 Gaussian 09, Revision E.01,
 Gaussian 09:  ES64L-G09RevE.01 30-Nov-2015

 ----------------------------
 #P OPT Freq B3LYP/6-31G(d,p)
 ----------------------------

 --------
 Frag_555
 --------
 Symbolic Z-matrix:
 Charge =  0 Multiplicity = 1

 SCF Done:  E(RB3LYP) =  -228.650695127     A.U. after   13 cycles
 SCF Done:  E(RB3LYP) =  -228.650733024     A.U. after    9 cycles
 SCF Done:  E(RB3LYP) =  -228.650735144     A.U. after    8 cycles
 SCF Done:  E(RB3LYP) =  -228.650737596     A.U. after    7 cycles
 SCF Done:  E(RB3LYP) =  -228.650738020     A.U. after    7 cycles
 SCF Done:  E(RB3LYP) =  -228.650738098     A.U. after    7 cycles
 Optimization completed.
    -- Stationary point found.
 Normal termination of Gaussian 09 at Thu Sep  8 14:58:23 2022.

 ----------------------------------------------------------------------
 #P Geom=AllCheck Guess=TCheck SCRF=Check GenChk RB3LYP/6-31G(d,p) Freq
 ----------------------------------------------------------------------

 Structure from the checkpoint file:  "B3LYP6-31Gdp.Frag_555.chk"
 --------
 Frag_555
 --------
 Charge =  0 Multiplicity = 1

                         Standard orientation:
 ---------------------------------------------------------------------
 Center     Atomic      Atomic             Coordinates (Angstroms)
 Number     Number       Type             X           Y           Z
 ---------------------------------------------------------------------
      1          6           0       -1.869982    0.085451   -0.416320
      2          6           0       -0.797705   -0.301994    0.615617
      3          6           0        0.619746   -0.113262    0.095821
      4          7           0        1.433762   -1.037896   -0.258243
      5          7           0        0.991155    1.212474   -0.073049
      6          1           0       -1.775061    1.134530   -0.709071
      7          1           0       -1.772780   -0.521823   -1.321288
      8          1           0       -2.874035   -0.068542   -0.009196
      9          1           0       -0.919336   -1.348437    0.912334
     10          1           0       -0.932563    0.298191    1.526246
     11          1           0        0.990589   -1.951309   -0.153965
     12          1           0        0.623223    1.881603    0.587809
     13          1           0        1.973187    1.332574   -0.284533
 ---------------------------------------------------------------------

 SCF Done:  E(RB3LYP) =  -228.650738098     A.U. after    1 cycles

 The electronic state is 1-A.
 Alpha  occ. eigenvalues --  -14.33656 -14.28373 -10.24837 -10.19715 -10.18387
 Alpha  occ. eigenvalues --   -0.93413  -0.83630  -0.76838  -0.64391  -0.57167
 Alpha  occ. eigenvalues --   -0.52079  -0.46045  -0.44225  -0.42565  -0.39917
 Alpha  occ. eigenvalues --   -0.37150  -0.35525  -0.33059  -0.24621  -0.23057
 Alpha virt. eigenvalues --    0.03538   0.07620   0.12047   0.13090   0.13365
 Alpha virt. eigenvalues --    0.15855   0.17559   0.18246   0.18753   0.22765
 Alpha virt. eigenvalues --    0.25379   0.34904   0.42039   0.52077   0.52576

 Mulliken charges:
               1
     1  C   -0.308194
     2  C   -0.231851
     3  C    0.422257
     4  N   -0.571767
     5  N   -0.592397
     6  H    0.118138
     7  H    0.118083
     8  H    0.106014
     9  H    0.105834
    10  H    0.098188
    11  H    0.213495
    12  H    0.253718
    13  H    0.268482
 Sum of Mulliken charges =   0.00000

 Dipole moment (field-independent basis, Debye):
    X=             -1.7801    Y=              1.2826    Z=              1.5436  Tot=              2.6826
 Quadrupole moment (field-independent basis, Debye-Ang):
   XX=            -34.0994   YY=            -27.7302   ZZ=            -32.4183
   XY=              4.2651   XZ=              0.9674   YZ=              1.1550

  Exact polarizability:  49.113  -2.407  52.626  -3.910   2.092  34.001
 Approx polarizability:  63.855  -8.483  80.201  -7.773   4.881  47.459

                      1                      2                      3
                      A                      A                      A
 Frequencies --     47.8699               221.4199               250.5444
 Red. masses --      2.4373                 1.0868                 2.9773
 Frc consts  --      0.0033                 0.0314                 0.1101
 IR Inten    --      1.4098                 0.5098                 2.6290

                      4                      5                      6
                      A                      A                      A
 Frequencies --    390.8839               448.7544               525.6799
 Red. masses --      1.1957                 1.9306                 2.6708
 Frc consts  --      0.1076                 0.2291                 0.4348
 IR Inten    --     70.3621                12.3838                13.3476

                      7                      8                      9
                      A                      A                      A
 Frequencies --    580.3296               706.6138               800.7602
 Red. masses --      1.2988                 3.6056                 1.2250
 Frc consts  --      0.2577                 1.0607                 0.4628
 IR Inten    --    186.4246                57.6193                 1.1344

                     10                     11                     12
                      A                      A                      A
 Frequencies --    812.6865               845.2042               997.6802
 Red. masses --      2.3107                 1.1579                 2.3055
 Frc consts  --      0.8992                 0.4874                 1.3520
 IR Inten    --      4.5021                29.2274                 3.1125

                     13                     14                     15
                      A                      A                      A
 Frequencies --   1062.2816              1092.7127              1151.8072
 Red. masses --      1.5004                 1.8135                 1.4405
 Frc consts  --      0.9975                 1.2758                 1.1259
 IR Inten    --     12.9538                 5.2165                66.1290

                     16                     17                     18
                      A                      A                      A
 Frequencies --   1175.1113              1278.2460              1347.8062
 Red. masses --      1.4734                 1.2128                 1.4081
 Frc consts  --      1.1988                 1.1675                 1.5071
 IR Inten    --     52.7526                 2.7084                 6.7062

                     19                     20                     21
                      A                      A                      A
 Frequencies --   1415.9048              1447.5321              1500.1597
 Red. masses --      1.3688                 1.9964                 1.0674
 Frc consts  --      1.6167                 2.4646                 1.4154
 IR Inten    --     11.7816                40.4909                 2.6090

                     22                     23                     24
                      A                      A                      A
 Frequencies --   1509.7479              1524.7901              1634.8562
 Red. masses --      1.0433                 1.0815                 1.2564
 Frc consts  --      1.4011                 1.4814                 1.9786
 IR Inten    --      5.7936                10.8767                61.3203

                     25                     26                     27
                      A                      A                      A
 Frequencies --   1732.1042              3027.9203              3052.9429
 Red. masses --      5.5920                 1.0677                 1.0351
 Frc consts  --      9.8848                 5.7674                 5.6839
 IR Inten    --    191.8121                27.4695                25.3385

                     28                     29                     30
                      A                      A                      A
 Frequencies --   3091.3901              3124.4421              3135.4275
 Red. masses --      1.0962                 1.1032                 1.1028
 Frc consts  --      6.1722                 6.3451                 6.3876
 IR Inten    --     12.6507                29.3454                30.3490

                     31                     32                     33
                      A                      A                      A
 Frequencies --   3492.4740              3569.3629              3690.5210
 Red. masses --      1.0751                 1.0465                 1.1001
 Frc consts  --      7.7259                 7.8554                 8.8276
 IR Inten    --      1.5227                14.1315                14.9826

 - Thermochemistry -
 -------------------
 Temperature   298.150 Kelvin.  Pressure   1.00000 Atm.
 Atom     1 has atomic number  6 and mass  12.00000

 Molecular mass:    72.06875 amu.
 Principal axes and moments of inertia in atomic units:
                           1         2         3
     Eigenvalues --   225.97909 470.83677 599.40439
           X            0.99958   0.02731   0.00942
           Y           -0.02735   0.99962   0.00442
           Z           -0.00929  -0.00468   0.99995
 This molecule is an asymmetric top.
 Rotational symmetry number  1.
 Rotational temperatures (Kelvin)      0.38328     0.18396     0.14450
 Rotational constants (GHZ):           7.98632     3.83305     3.01089
 Zero-point vibrational energy     303169.4 (Joules/Mol)
                                   72.45923 (Kcal/Mol)
 Warning -- explicit consideration of   7 degrees of freedom as
           vibrations may cause significant error
 Vibrational temperatures:     68.87   318.57   360.48   562.39   645.66
          (Kelvin)            756.34   834.96  1016.66  1152.11  1169.27
                             1216.06  1435.44  1528.38  1572.17  1657.19
                             1690.72  1839.11  1939.19  2037.17  2082.67
                             2158.39  2172.19  2193.83  2352.19  2492.11
                             4356.50  4392.50  4447.82  4495.37  4511.18
                             5024.88  5135.51  5309.83

 Zero-point correction=                           0.115471 (Hartree/Particle)
 Thermal correction to Energy=                    0.121630
 Thermal correction to Enthalpy=                  0.122574
 Thermal correction to Gibbs Free Energy=         0.085900
 Sum of electronic and zero-point Energies=           -228.535267
 Sum of electronic and thermal Energies=              -228.529108
 Sum of electronic and thermal Enthalpies=            -228.528164
 Sum of electronic and thermal Free Energies=         -228.564839

                     E (Thermal)             CV                S
                      KCal/Mol        Cal/Mol-Kelvin    Cal/Mol-Kelvin
 Total                   76.324             21.517             77.188
 Electronic               0.000              0.000              0.000
 Translational            0.889              2.981             38.742
 Rotational               0.889              2.981             25.659
 Vibrational             74.546             15.555             12.788
 Vibration     1          0.595              1.978              4.904
 Vibration     2          0.648              1.808              1.947
 Vibration     3          0.663              1.762              1.727
 Vibration     4          0.759              1.490              0.997
 Vibration     5          0.808              1.364              0.800
 Vibration     6          0.881              1.193              0.597
 Vibration     7          0.937              1.074              0.485

 Normal termination of Gaussian 09 at Thu Sep  8 14:58:32 2022.
