 Gaussian 09, Revision E.01,
 Gaussian 09:  ES64L-G09RevE.01 30-Nov-2015

 ----------------------------
 #P OPT Freq B3LYP/6-31G(d,p)
 ----------------------------

 ---------
 Frag_1054
 ---------
 Symbolic Z-matrix:
 Charge =  0 Multiplicity = 1

 SCF Done:  E(RB3LYP) =  -266.181121707     A.U. after   12 cycles
 SCF Done:  E(RB3LYP) =  -266.181171264     A.U. after    8 cycles
 SCF Done:  E(RB3LYP) =  -266.181173140     A.U. after    8 cycles
 Optimization completed.
    -- Stationary point found.
 Normal termination of Gaussian 09 at Thu Sep  8 14:53:23 2022.

 ----------------------------------------------------------------------
 #P Geom=AllCheck Guess=TCheck SCRF=Check GenChk RB3LYP/6-31G(d,p) Freq
 ----------------------------------------------------------------------

 Structure from the checkpoint file:  "B3LYP6-31Gdp.Frag_1054.chk"
 ---------
 Frag_1054
 ---------
 Charge =  0 Multiplicity = 1

                         Standard orientation:
 ---------------------------------------------------------------------
 Center     Atomic      Atomic             Coordinates (Angstroms)
 Number     Number       Type             X           Y           Z
 ---------------------------------------------------------------------
      1          8           0        1.284887   -0.411356   -0.067547
      2          6           0        0.017856   -0.022607    0.370329
      3          8           0       -0.344377    1.244068   -0.132469
      4          8           0       -0.973588   -0.904996   -0.048146
      5          1           0        1.185706   -0.673409   -0.995884
      6          1           0        0.080262   -0.021482    1.466341
      7          1           0        0.434250    1.812390   -0.057203
      8          1           0       -1.542733   -0.403591   -0.649933
 ---------------------------------------------------------------------

 SCF Done:  E(RB3LYP) =  -266.181173140     A.U. after    1 cycles

 The electronic state is 1-A.
 Alpha  occ. eigenvalues --  -19.16477 -19.15914 -19.15907 -10.33485  -1.10439
 Alpha  occ. eigenvalues --   -1.00850  -1.00481  -0.66831  -0.56496  -0.53961
 Alpha  occ. eigenvalues --   -0.49127  -0.42414  -0.37692  -0.36860  -0.32567
 Alpha  occ. eigenvalues --   -0.29937  -0.28752
 Alpha virt. eigenvalues --    0.07336   0.09822   0.10669   0.15155   0.22684
 Alpha virt. eigenvalues --    0.23517   0.27212   0.52399   0.53222   0.63938
 Alpha virt. eigenvalues --    0.73043   0.76395   0.77398   0.79688   0.83958

 Mulliken charges:
               1
     1  O   -0.510930
     2  C    0.558516
     3  O   -0.551006
     4  O   -0.531363
     5  H    0.300936
     6  H    0.097382
     7  H    0.316573
     8  H    0.319891
 Sum of Mulliken charges =  -0.00000

 Dipole moment (field-independent basis, Debye):
    X=              0.2203    Y=              1.3233    Z=             -1.1926  Tot=              1.7950
 Quadrupole moment (field-independent basis, Debye-Ang):
   XX=            -23.9833   YY=            -23.7494   ZZ=            -20.2676
   XY=              1.5197   XZ=             -0.1147   YZ=              1.7266

  Exact polarizability:  23.196   0.773  22.234   0.866   0.540  21.439
 Approx polarizability:  31.390   0.832  29.466   1.966   0.208  28.226

                      1                      2                      3
                      A                      A                      A
 Frequencies --    102.4238               241.9616               368.4460
 Red. masses --      1.1731                 1.1800                 1.1438
 Frc consts  --      0.0073                 0.0407                 0.0915
 IR Inten    --    168.1763                80.1479                33.1767

                      4                      5                      6
                      A                      A                      A
 Frequencies --    499.3662               534.4855               646.2717
 Red. masses --      3.6813                 3.3241                 3.5038
 Frc consts  --      0.5409                 0.5595                 0.8622
 IR Inten    --     21.6759                56.1697                29.9858

                      7                      8                      9
                      A                      A                      A
 Frequencies --    988.3021              1061.9579              1080.3850
 Red. masses --      4.0139                 3.6802                 3.1357
 Frc consts  --      2.3099                 2.4453                 2.1565
 IR Inten    --     51.0476               264.3076               212.5196

                     10                     11                     12
                      A                      A                      A
 Frequencies --   1230.1752              1317.8132              1348.7769
 Red. masses --      1.1563                 1.4895                 1.2925
 Frc consts  --      1.0310                 1.5241                 1.3853
 IR Inten    --     85.3788                30.4033                61.9005

                     13                     14                     15
                      A                      A                      A
 Frequencies --   1429.8882              1478.1969              3057.7466
 Red. masses --      1.3427                 1.3534                 1.0869
 Frc consts  --      1.6175                 1.7424                 5.9872
 IR Inten    --    115.1732               122.4648                74.4700

                     16                     17                     18
                      A                      A                      A
 Frequencies --   3778.9269              3802.5807              3824.2969
 Red. masses --      1.0648                 1.0657                 1.0654
 Frc consts  --      8.9589                 9.0792                 9.1802
 IR Inten    --     22.5786                43.7874                39.7285

 - Thermochemistry -
 -------------------
 Temperature   298.150 Kelvin.  Pressure   1.00000 Atm.
 Atom     1 has atomic number  8 and mass  15.99491

 Molecular mass:    64.01604 amu.
 Principal axes and moments of inertia in atomic units:
                           1         2         3
     Eigenvalues --   178.56770 190.03342 328.49796
           X            0.98122   0.19288  -0.00174
           Y           -0.19280   0.98103   0.02025
           Z            0.00561  -0.01953   0.99979
 This molecule is an asymmetric top.
 Rotational symmetry number  1.
 Rotational temperatures (Kelvin)      0.48505     0.45578     0.26367
 Rotational constants (GHZ):          10.10676     9.49697     5.49392
 Zero-point vibrational energy     160251.8 (Joules/Mol)
                                   38.30109 (Kcal/Mol)
 Warning -- explicit consideration of   5 degrees of freedom as
           vibrations may cause significant error
 Vibrational temperatures:    147.36   348.13   530.11   718.48   769.00
          (Kelvin)            929.84  1421.94  1527.92  1554.43  1769.95
                             1896.04  1940.59  2057.29  2126.79  4399.41
                             5437.03  5471.06  5502.30

 Zero-point correction=                           0.061037 (Hartree/Particle)
 Thermal correction to Energy=                    0.066140
 Thermal correction to Enthalpy=                  0.067084
 Thermal correction to Gibbs Free Energy=         0.033558
 Sum of electronic and zero-point Energies=           -266.120136
 Sum of electronic and thermal Energies=              -266.115033
 Sum of electronic and thermal Enthalpies=            -266.114089
 Sum of electronic and thermal Free Energies=         -266.147615

                     E (Thermal)             CV                S
                      KCal/Mol        Cal/Mol-Kelvin    Cal/Mol-Kelvin
 Total                   41.503             16.212             70.561
 Electronic               0.000              0.000              0.000
 Translational            0.889              2.981             38.389
 Rotational               0.889              2.981             23.926
 Vibrational             39.726             10.250              8.247
 Vibration     1          0.604              1.947              3.408
 Vibration     2          0.658              1.776              1.788
 Vibration     3          0.741              1.537              1.086
 Vibration     4          0.855              1.251              0.660
 Vibration     5          0.889              1.174              0.577

 Normal termination of Gaussian 09 at Thu Sep  8 14:53:29 2022.
