 Gaussian 09, Revision D.01,
 Gaussian 09:  ES64L-G09RevD.01 24-Apr-2013

 -------------------------
 #P OPT Freq B3LYP/6-31G**
 -------------------------

 -------
 Frag_43
 -------
 Symbolic Z-matrix:
 Charge =  0 Multiplicity = 1

 SCF Done:  E(RB3LYP) =  -158.470615319     A.U. after   11 cycles
 Optimization completed.
    -- Stationary point found.
 Normal termination of Gaussian 09 at Fri Jul 23 17:42:28 2021.

 ----------------------------------------------------------------------
 #P Geom=AllCheck Guess=TCheck SCRF=Check GenChk RB3LYP/6-31G(d,p) Freq
 ----------------------------------------------------------------------

 Structure from the checkpoint file:  "/vol2/users/liuj201281/HOFBenchmark/IsodesmicSplit/Sample60/Ring26/Running/Gau-540635.chk"
 -------
 Frag_43
 -------
 Charge =  0 Multiplicity = 1

                         Standard orientation:
 ---------------------------------------------------------------------
 Center     Atomic      Atomic             Coordinates (Angstroms)
 Number     Number       Type             X           Y           Z
 ---------------------------------------------------------------------
      1          6           0       -0.587400    1.478600   -0.555412
      2          6           0       -0.587400    0.495800    0.620788
      3          6           0        0.587400   -0.495800    0.620788
      4          6           0        0.587400   -1.478600   -0.555412
      5          1           0        0.342800    2.058200   -0.584912
      6          1           0       -1.417300    2.188600   -0.476612
      7          1           0       -0.687100    0.965400   -1.517212
      8          1           0       -1.531800   -0.066100    0.626888
      9          1           0       -0.567600    1.064200    1.559588
     10          1           0        0.567600   -1.064200    1.559588
     11          1           0        1.531800    0.066100    0.626888
     12          1           0        1.417300   -2.188600   -0.476612
     13          1           0       -0.342800   -2.058200   -0.584912
     14          1           0        0.687100   -0.965400   -1.517212
 ---------------------------------------------------------------------

 SCF Done:  E(RB3LYP) =  -158.470615319     A.U. after    1 cycles

 The electronic state is 1-A.
 Alpha  occ. eigenvalues --  -10.17642 -10.17621 -10.16971 -10.16971  -0.78705
 Alpha  occ. eigenvalues --   -0.71461  -0.63579  -0.56180  -0.45030  -0.44795
 Alpha  occ. eigenvalues --   -0.41140  -0.37791  -0.37785  -0.35470  -0.32013
 Alpha  occ. eigenvalues --   -0.31771  -0.31747
 Alpha virt. eigenvalues --    0.09019   0.13139   0.13791   0.14855   0.16489
 Alpha virt. eigenvalues --    0.17184   0.18119   0.18737   0.20308   0.21654
 Alpha virt. eigenvalues --    0.23489   0.24460   0.28361   0.50029   0.52001

 Mulliken charges:
               1
     1  C   -0.315604
     2  C   -0.168534
     3  C   -0.168534
     4  C   -0.315604
     5  H    0.100438
     6  H    0.099597
     7  H    0.104492
     8  H    0.089769
     9  H    0.089842
    10  H    0.089842
    11  H    0.089769
    12  H    0.099597
    13  H    0.100438
    14  H    0.104492
 Sum of Mulliken charges =   0.00000

 Dipole moment (field-independent basis, Debye):
    X=              0.0000    Y=              0.0000    Z=              0.0501  Tot=              0.0501
 Quadrupole moment (field-independent basis, Debye-Ang):
   XX=            -28.0293   YY=            -28.2824   ZZ=            -28.2529
   XY=              0.1088   XZ=              0.0000   YZ=              0.0000

  Exact polarizability:  43.159  -2.849  47.244   0.000   0.000  43.085
 Approx polarizability:  58.593   0.052  58.464   0.000   0.000  57.421

                      1                      2                      3
                      A                      B                      A
 Frequencies --    115.3320               218.7891               256.1761
 Red. masses --      1.5230                 1.0521                 1.4087
 Frc consts  --      0.0119                 0.0297                 0.0545
 IR Inten    --      0.0053                 0.0458                 0.0100

                      4                      5                      6
                      A                      B                      B
 Frequencies --    324.4533               435.3588               754.0542
 Red. masses --      1.7119                 1.9455                 1.1627
 Frc consts  --      0.1062                 0.2173                 0.3895
 IR Inten    --      0.0346                 0.4526                 4.0322

                      7                      8                      9
                      A                      A                      B
 Frequencies --    796.6929               836.7197               967.7869
 Red. masses --      1.4750                 1.6541                 2.2018
 Frc consts  --      0.5516                 0.6823                 1.2150
 IR Inten    --      1.4857                 0.1155                 1.9042

                     10                     11                     12
                      B                      A                      A
 Frequencies --    974.2696               997.1712              1088.4385
 Red. masses --      1.1541                 1.3806                 2.1176
 Frc consts  --      0.6455                 0.8088                 1.4781
 IR Inten    --      1.8301                 0.2909                 0.0350

                     13                     14                     15
                      B                      A                      B
 Frequencies --   1159.6241              1201.3698              1295.9927
 Red. masses --      1.8303                 1.8419                 1.2272
 Frc consts  --      1.4501                 1.5663                 1.2144
 IR Inten    --      2.8361                 0.0459                 0.6218

                     16                     17                     18
                      A                      B                      A
 Frequencies --   1319.3987              1379.5724              1388.6143
 Red. masses --      1.1676                 1.3039                 1.4661
 Frc consts  --      1.1975                 1.4621                 1.6657
 IR Inten    --      0.1672                 5.8854                 1.0742

                     19                     20                     21
                      A                      B                      B
 Frequencies --   1429.0339              1429.5052              1498.4281
 Red. masses --      1.2252                 1.2994                 1.0633
 Frc consts  --      1.4741                 1.5645                 1.4066
 IR Inten    --      1.7033                 5.5806                 0.2318

                     22                     23                     24
                      A                      B                      A
 Frequencies --   1501.3994              1512.4713              1520.1210
 Red. masses --      1.0644                 1.0403                 1.0643
 Frc consts  --      1.4137                 1.4021                 1.4490
 IR Inten    --      0.0737                 6.2408                 3.6989

                     25                     26                     27
                      B                      A                      B
 Frequencies --   1521.1598              1525.3262              3021.7041
 Red. masses --      1.0586                 1.0584                 1.0601
 Frc consts  --      1.4433                 1.4508                 5.7028
 IR Inten    --      7.1497                 0.4262                29.3666

                     28                     29                     30
                      A                      B                      A
 Frequencies --   3022.2618              3038.1551              3040.7338
 Red. masses --      1.0658                 1.0369                 1.0382
 Frc consts  --      5.7359                 5.6391                 5.6555
 IR Inten    --     20.4698                23.1080                25.8619

                     31                     32                     33
                      A                      B                      A
 Frequencies --   3057.3489              3061.2558              3105.3987
 Red. masses --      1.0957                 1.1033                 1.1015
 Frc consts  --      6.0341                 6.0918                 6.2586
 IR Inten    --     29.3479                34.0071                 1.8643

                     34                     35                     36
                      B                      B                      A
 Frequencies --   3106.6561              3111.3094              3118.1178
 Red. masses --      1.1016                 1.1023                 1.1012
 Frc consts  --      6.2640                 6.2867                 6.3084
 IR Inten    --     89.5656                56.2840                40.5502

 - Thermochemistry -
 -------------------
 Temperature   298.150 Kelvin.  Pressure   1.00000 Atm.
 Atom     1 has atomic number  6 and mass  12.00000

 Molecular mass:    58.07825 amu.
 Principal axes and moments of inertia in atomic units:
                           1         2         3
     Eigenvalues --   135.69944 385.35971 450.52837
           X           -0.44302   0.00000   0.89651
           Y            0.89651   0.00000   0.44302
           Z            0.00000   1.00000   0.00000
 This molecule is an asymmetric top.
 Rotational symmetry number  2.
 Rotational temperatures (Kelvin)      0.63828     0.22476     0.19225
 Rotational constants (GHZ):          13.29955     4.68326     4.00583
 Zero-point vibrational energy     347695.8 (Joules/Mol)
                                   83.10129 (Kcal/Mol)
 Warning -- explicit consideration of   5 degrees of freedom as
           vibrations may cause significant error
 Vibrational temperatures:    165.94   314.79   368.58   466.82   626.38
          (Kelvin)           1084.91  1146.26  1203.85  1392.43  1401.75
                             1434.71  1566.02  1668.44  1728.50  1864.64
                             1898.32  1984.89  1997.90  2056.06  2056.74
                             2155.90  2160.18  2176.11  2187.11  2188.61
                             2194.60  4347.55  4348.36  4371.22  4374.93
                             4398.84  4404.46  4467.97  4469.78  4476.47
                             4486.27

 Zero-point correction=                           0.132430 (Hartree/Particle)
 Thermal correction to Energy=                    0.138147
 Thermal correction to Enthalpy=                  0.139091
 Thermal correction to Gibbs Free Energy=         0.105052
 Sum of electronic and zero-point Energies=           -158.338185
 Sum of electronic and thermal Energies=              -158.332469
 Sum of electronic and thermal Enthalpies=            -158.331524
 Sum of electronic and thermal Free Energies=         -158.365563

                     E (Thermal)             CV                S
                      KCal/Mol        Cal/Mol-Kelvin    Cal/Mol-Kelvin
 Total                   86.688             19.523             71.641
 Electronic               0.000              0.000              0.000
 Translational            0.889              2.981             38.098
 Rotational               0.889              2.981             23.292
 Vibrational             84.911             13.561             10.251
 Vibration     1          0.608              1.937              3.177
 Vibration     2          0.647              1.812              1.969
 Vibration     3          0.666              1.752              1.688
 Vibration     4          0.709              1.627              1.288
 Vibration     5          0.796              1.393              0.841

 Optimization completed.
    -- Stationary point found.
 Normal termination of Gaussian 09 at Fri Jul 23 17:42:39 2021.
