 Gaussian 09, Revision E.01,
 Gaussian 09:  ES64L-G09RevE.01 30-Nov-2015

 ----------------------------
 #P OPT Freq B3LYP/6-31G(d,p)
 ----------------------------

 --------
 Frag_684
 --------
 Symbolic Z-matrix:
 Charge =  0 Multiplicity = 1

 SCF Done:  E(RB3LYP) =  -228.572768132     A.U. after   14 cycles
 SCF Done:  E(RB3LYP) =  -228.572828525     A.U. after    9 cycles
 SCF Done:  E(RB3LYP) =  -228.572830058     A.U. after    8 cycles
 Optimization completed.
    -- Stationary point found.
 Normal termination of Gaussian 09 at Thu Sep  8 15:14:21 2022.

 ----------------------------------------------------------------------
 #P Geom=AllCheck Guess=TCheck SCRF=Check GenChk RB3LYP/6-31G(d,p) Freq
 ----------------------------------------------------------------------

 Structure from the checkpoint file:  "B3LYP6-31Gdp.Frag_684.chk"
 --------
 Frag_684
 --------
 Charge =  0 Multiplicity = 1

                         Standard orientation:
 ---------------------------------------------------------------------
 Center     Atomic      Atomic             Coordinates (Angstroms)
 Number     Number       Type             X           Y           Z
 ---------------------------------------------------------------------
      1          6           0        1.994213   -0.114267    0.000027
      2          6           0        0.629548   -0.707614   -0.000027
      3          7           0       -0.441416    0.074124   -0.000063
      4          6           0       -1.774606   -0.556632    0.000037
      5          7           0       -0.527403    1.388434   -0.000022
      6          1           0        2.169809    0.520393    0.882881
      7          1           0        2.750309   -0.902090   -0.000092
      8          1           0        2.169748    0.520614   -0.882680
      9          1           0        0.463507   -1.774872   -0.000062
     10          1           0       -2.309563   -0.214688   -0.886422
     11          1           0       -1.682108   -1.641997   -0.000989
     12          1           0       -2.308775   -0.216307    0.887604
     13          1           0        0.433872    1.742119    0.000133
 ---------------------------------------------------------------------

 SCF Done:  E(RB3LYP) =  -228.572830058     A.U. after    1 cycles

 The electronic state is 1-A.
 Alpha  occ. eigenvalues --  -14.43971 -14.29865 -10.22476 -10.20577 -10.19086
 Alpha  occ. eigenvalues --   -1.02188  -0.79514  -0.76329  -0.68594  -0.57006
 Alpha  occ. eigenvalues --   -0.51133  -0.47733  -0.47131  -0.41681  -0.41433
 Alpha  occ. eigenvalues --   -0.39365  -0.37471  -0.34750  -0.26393  -0.17683
 Alpha virt. eigenvalues --    0.00221   0.08868   0.10607   0.12617   0.14824
 Alpha virt. eigenvalues --    0.17057   0.17123   0.17594   0.18373   0.21035
 Alpha virt. eigenvalues --    0.23563   0.32517   0.35326   0.49610   0.49884

 Mulliken charges:
               1
     1  C   -0.374894
     2  C    0.029336
     3  N   -0.135916
     4  C   -0.159804
     5  N   -0.456210
     6  H    0.123518
     7  H    0.116655
     8  H    0.123520
     9  H    0.099650
    10  H    0.149938
    11  H    0.115016
    12  H    0.149928
    13  H    0.219263
 Sum of Mulliken charges =   0.00000

 Dipole moment (field-independent basis, Debye):
    X=              0.6267    Y=             -2.4739    Z=              0.0003  Tot=              2.5520
 Quadrupole moment (field-independent basis, Debye-Ang):
   XX=            -28.2857   YY=            -33.4266   ZZ=            -32.7968
   XY=              4.2281   XZ=             -0.0000   YZ=              0.0004

  Exact polarizability:  62.246  -6.762  56.391   0.000   0.000  31.088
 Approx polarizability:  89.737 -29.789 108.561   0.001   0.000  43.514

                      1                      2                      3
                      A                      A                      A
 Frequencies --     88.7203               169.5501               220.7715
 Red. masses --      1.1141                 1.2842                 1.6150
 Frc consts  --      0.0052                 0.0218                 0.0464
 IR Inten    --      2.3951                 1.8818                 1.5714

                      4                      5                      6
                      A                      A                      A
 Frequencies --    289.6647               469.8254               536.3055
 Red. masses --      2.8032                 2.9734                 1.4011
 Frc consts  --      0.1386                 0.3867                 0.2374
 IR Inten    --      3.9088                 8.3507                44.4045

                      7                      8                      9
                      A                      A                      A
 Frequencies --    562.5546               607.8729               707.9864
 Red. masses --      1.6580                 3.1389                 1.4409
 Frc consts  --      0.3092                 0.6834                 0.4255
 IR Inten    --     27.4083                17.6226                27.7556

                     10                     11                     12
                      A                      A                      A
 Frequencies --    871.4799              1042.3871              1048.4274
 Red. masses --      2.2790                 1.3813                 2.4483
 Frc consts  --      1.0198                 0.8843                 1.5856
 IR Inten    --      0.3300                 0.0605                 5.6038

                     13                     14                     15
                      A                      A                      A
 Frequencies --   1118.7180              1146.9567              1155.2532
 Red. masses --      1.5066                 2.2440                 1.3821
 Frc consts  --      1.1110                 1.7392                 1.0868
 IR Inten    --      7.2657                18.4216                 0.2982

                     16                     17                     18
                      A                      A                      A
 Frequencies --   1208.5132              1400.4687              1425.9832
 Red. masses --      2.0175                 1.2812                 1.3685
 Frc consts  --      1.7361                 1.4806                 1.6396
 IR Inten    --     69.1800                39.6020                 0.5644

                     19                     20                     21
                      A                      A                      A
 Frequencies --   1457.5098              1479.5417              1483.7697
 Red. masses --      1.2151                 1.0428                 1.0421
 Frc consts  --      1.5208                 1.3449                 1.3517
 IR Inten    --      6.8112                10.2134                 6.0749

                     22                     23                     24
                      A                      A                      A
 Frequencies --   1487.9954              1514.1156              1527.3257
 Red. masses --      1.3266                 1.0790                 1.4504
 Frc consts  --      1.7306                 1.4574                 1.9935
 IR Inten    --     19.0235                17.5539                13.2500

                     25                     26                     27
                      A                      A                      A
 Frequencies --   1626.4983              2986.8083              3021.2343
 Red. masses --      3.9220                 1.0427                 1.1000
 Frc consts  --      6.1131                 5.4806                 5.9157
 IR Inten    --    104.6228                30.3307                32.8478

                     28                     29                     30
                      A                      A                      A
 Frequencies --   3086.3996              3135.5465              3172.6775
 Red. masses --      1.0309                 1.0936                 1.1055
 Frc consts  --      5.7861                 6.3346                 6.5564
 IR Inten    --     17.5564                13.0061                 6.5108

                     31                     32                     33
                      A                      A                      A
 Frequencies --   3185.8934              3253.2600              3441.5998
 Red. masses --      1.1074                 1.0910                 1.0725
 Frc consts  --      6.6224                 6.8032                 7.4849
 IR Inten    --      8.7426                 5.4501                16.9300

 - Thermochemistry -
 -------------------
 Temperature   298.150 Kelvin.  Pressure   1.00000 Atm.
 Atom     1 has atomic number  6 and mass  12.00000

 Molecular mass:    72.06875 amu.
 Principal axes and moments of inertia in atomic units:
                           1         2         3
     Eigenvalues --   179.71763 468.78144 625.95352
           X            0.99912   0.04201  -0.00000
           Y           -0.04201   0.99912   0.00001
           Z            0.00000  -0.00001   1.00000
 This molecule is an asymmetric top.
 Rotational symmetry number  1.
 Rotational temperatures (Kelvin)      0.48194     0.18476     0.13837
 Rotational constants (GHZ):          10.04209     3.84986     2.88319
 Zero-point vibrational energy     298657.4 (Joules/Mol)
                                   71.38083 (Kcal/Mol)
 Warning -- explicit consideration of   8 degrees of freedom as
           vibrations may cause significant error
 Vibrational temperatures:    127.65   243.94   317.64   416.76   675.97
          (Kelvin)            771.62   809.39   874.59  1018.63  1253.86
                             1499.76  1508.45  1609.58  1650.21  1662.15
                             1738.78  2014.96  2051.67  2097.03  2128.73
                             2134.81  2140.89  2178.47  2197.48  2340.17
                             4297.35  4346.88  4440.64  4511.35  4564.77
                             4583.78  4680.71  4951.69

 Zero-point correction=                           0.113753 (Hartree/Particle)
 Thermal correction to Energy=                    0.120056
 Thermal correction to Enthalpy=                  0.121001
 Thermal correction to Gibbs Free Energy=         0.084436
 Sum of electronic and zero-point Energies=           -228.459077
 Sum of electronic and thermal Energies=              -228.452774
 Sum of electronic and thermal Enthalpies=            -228.451830
 Sum of electronic and thermal Free Energies=         -228.488394

                     E (Thermal)             CV                S
                      KCal/Mol        Cal/Mol-Kelvin    Cal/Mol-Kelvin
 Total                   75.337             21.587             76.957
 Electronic               0.000              0.000              0.000
 Translational            0.889              2.981             38.742
 Rotational               0.889              2.981             25.470
 Vibrational             73.559             15.625             12.746
 Vibration     1          0.602              1.957              3.688
 Vibration     2          0.625              1.880              2.440
 Vibration     3          0.647              1.809              1.953
 Vibration     4          0.686              1.693              1.476
 Vibration     5          0.827              1.317              0.738
 Vibration     6          0.891              1.170              0.573
 Vibration     7          0.918              1.112              0.519
 Vibration     8          0.967              1.015              0.436

 Optimization completed.
    -- Stationary point found.
 Normal termination of Gaussian 09 at Thu Sep  8 15:14:31 2022.
