 Gaussian 09, Revision E.01,
 Gaussian 09:  ES64L-G09RevE.01 30-Nov-2015

 ----------------------------
 #P OPT Freq B3LYP/6-31G(d,p)
 ----------------------------

 --------
 Frag_963
 --------
 Symbolic Z-matrix:
 Charge =  0 Multiplicity = 1

 SCF Done:  E(RB3LYP) =  -380.623505733     A.U. after   14 cycles
 SCF Done:  E(RB3LYP) =  -380.623623833     A.U. after   11 cycles
 SCF Done:  E(RB3LYP) =  -380.623649565     A.U. after    9 cycles
 SCF Done:  E(RB3LYP) =  -380.623657954     A.U. after    8 cycles
 SCF Done:  E(RB3LYP) =  -380.623665172     A.U. after    9 cycles
 SCF Done:  E(RB3LYP) =  -380.623672986     A.U. after    9 cycles
 SCF Done:  E(RB3LYP) =  -380.623685186     A.U. after   11 cycles
 SCF Done:  E(RB3LYP) =  -380.623697198     A.U. after   11 cycles
 SCF Done:  E(RB3LYP) =  -380.623712163     A.U. after   11 cycles
 SCF Done:  E(RB3LYP) =  -380.623700069     A.U. after   11 cycles
 SCF Done:  E(RB3LYP) =  -380.631519903     A.U. after   12 cycles
 SCF Done:  E(RB3LYP) =  -380.630040129     A.U. after   13 cycles
 SCF Done:  E(RB3LYP) =  -380.631527060     A.U. after   10 cycles
 SCF Done:  E(RB3LYP) =  -380.630100754     A.U. after   12 cycles
 SCF Done:  E(RB3LYP) =  -380.631570347     A.U. after    9 cycles
 SCF Done:  E(RB3LYP) =  -380.631584281     A.U. after   10 cycles
 SCF Done:  E(RB3LYP) =  -380.631585208     A.U. after    8 cycles
 SCF Done:  E(RB3LYP) =  -380.631585532     A.U. after    7 cycles
 SCF Done:  E(RB3LYP) =  -380.631585537     A.U. after    7 cycles
 Optimization completed.
    -- Stationary point found.
 Normal termination of Gaussian 09 at Thu Sep  8 15:24:01 2022.

 ----------------------------------------------------------------------
 #P Geom=AllCheck Guess=TCheck SCRF=Check GenChk RB3LYP/6-31G(d,p) Freq
 ----------------------------------------------------------------------

 Structure from the checkpoint file:  "B3LYP6-31Gdp.Frag_963.chk"
 --------
 Frag_963
 --------
 Charge =  0 Multiplicity = 1

                         Standard orientation:
 ---------------------------------------------------------------------
 Center     Atomic      Atomic             Coordinates (Angstroms)
 Number     Number       Type             X           Y           Z
 ---------------------------------------------------------------------
      1          6           0       -0.390368    1.514817   -0.056708
      2          6           0       -0.415503   -0.002116    0.032532
      3          8           0       -0.564452   -0.365207    1.349386
      4          8           0       -1.446386   -0.594230   -0.712377
      5          8           0        0.754219   -0.611843   -0.564106
      6          8           0        1.943641   -0.089386    0.091749
      7          1           0       -1.329320    1.908419    0.336234
      8          1           0        0.439489    1.912804    0.527824
      9          1           0       -0.282156    1.826370   -1.099631
     10          1           0       -0.603734   -1.333650    1.366935
     11          1           0       -1.235306   -0.488667   -1.650908
     12          1           0        2.350083    0.383837   -0.652620
 ---------------------------------------------------------------------

 SCF Done:  E(RB3LYP) =  -380.631585537     A.U. after    1 cycles

 The electronic state is 1-A.
 Alpha  occ. eigenvalues --  -19.20678 -19.20644 -19.16669 -19.15882 -10.34132
 Alpha  occ. eigenvalues --  -10.18421  -1.13385  -1.06988  -1.01256  -0.89820
 Alpha  occ. eigenvalues --   -0.74616  -0.62009  -0.55880  -0.54031  -0.49500
 Alpha  occ. eigenvalues --   -0.47304  -0.43247  -0.40543  -0.39134  -0.37452
 Alpha  occ. eigenvalues --   -0.36312  -0.32934  -0.31083  -0.29314  -0.27172
 Alpha virt. eigenvalues --    0.02020   0.06509   0.09445   0.10669   0.14421
 Alpha virt. eigenvalues --    0.15688   0.16211   0.22103   0.23359   0.26803
 Alpha virt. eigenvalues --    0.29334   0.55412   0.56075   0.56632   0.59756

 Mulliken charges:
               1
     1  C   -0.338519
     2  C    0.712203
     3  O   -0.500728
     4  O   -0.539795
     5  O   -0.347942
     6  O   -0.315472
     7  H    0.135682
     8  H    0.135648
     9  H    0.093650
    10  H    0.317855
    11  H    0.315147
    12  H    0.332272
 Sum of Mulliken charges =   0.00000

 Dipole moment (field-independent basis, Debye):
    X=              0.5587    Y=              1.1353    Z=             -2.2475  Tot=              2.5792
 Quadrupole moment (field-independent basis, Debye-Ang):
   XX=            -35.1602   YY=            -32.5163   ZZ=            -32.4772
   XY=              2.3484   XZ=             -1.3228   YZ=             -2.6949

  Exact polarizability:  42.358   2.778  35.085   0.874  -1.096  36.603
 Approx polarizability:  59.179   5.914  45.796   3.333   0.527  53.409

                      1                      2                      3
                      A                      A                      A
 Frequencies --    133.4093               217.1773               234.0699
 Red. masses --      3.9759                 1.2055                 1.2005
 Frc consts  --      0.0417                 0.0335                 0.0388
 IR Inten    --      2.5485                22.0048                 4.0265

                      4                      5                      6
                      A                      A                      A
 Frequencies --    267.1272               294.0322               341.3221
 Red. masses --      1.2887                 1.9030                 1.7034
 Frc consts  --      0.0542                 0.0969                 0.1169
 IR Inten    --     89.1470                68.4801               104.0155

                      7                      8                      9
                      A                      A                      A
 Frequencies --    387.5095               426.7008               494.7773
 Red. masses --      2.8335                 2.1571                 4.2467
 Frc consts  --      0.2507                 0.2314                 0.6125
 IR Inten    --     12.1467                57.6470                11.0274

                     10                     11                     12
                      A                      A                      A
 Frequencies --    551.4658               616.2208               796.3277
 Red. masses --      4.0085                 5.2882                 5.4682
 Frc consts  --      0.7182                 1.1831                 2.0430
 IR Inten    --     43.3901                24.6799                16.4094

                     13                     14                     15
                      A                      A                      A
 Frequencies --    903.7686               952.5493               995.7323
 Red. masses --      2.6686                11.9235                 1.7945
 Frc consts  --      1.2842                 6.3743                 1.0483
 IR Inten    --     51.7311                 6.3883                48.9508

                     16                     17                     18
                      A                      A                      A
 Frequencies --   1098.1717              1139.1260              1201.5972
 Red. masses --      1.8548                 1.7844                 2.5838
 Frc consts  --      1.3179                 1.3643                 2.1980
 IR Inten    --     67.4842               108.4708               255.5891

                     19                     20                     21
                      A                      A                      A
 Frequencies --   1356.9794              1379.6427              1396.6802
 Red. masses --      1.4958                 1.3559                 1.2893
 Frc consts  --      1.6228                 1.5206                 1.4819
 IR Inten    --    118.8697               129.1020                 4.8956

                     22                     23                     24
                      A                      A                      A
 Frequencies --   1461.0459              1495.6086              1513.2374
 Red. masses --      2.0095                 1.0519                 1.0637
 Frc consts  --      2.5274                 1.3863                 1.4351
 IR Inten    --     91.9911                 0.5861                 3.9637

                     25                     26                     27
                      A                      A                      A
 Frequencies --   3070.7092              3150.3070              3173.8914
 Red. masses --      1.0380                 1.1005                 1.1036
 Frc consts  --      5.7664                 6.4347                 6.5501
 IR Inten    --      9.4464                15.2120                 6.9055

                     28                     29                     30
                      A                      A                      A
 Frequencies --   3756.9219              3787.1980              3809.9630
 Red. masses --      1.0687                 1.0648                 1.0653
 Frc consts  --      8.8873                 8.9979                 9.1105
 IR Inten    --     23.8730                34.3465                31.0721

 - Thermochemistry -
 -------------------
 Temperature   298.150 Kelvin.  Pressure   1.00000 Atm.
 Atom     1 has atomic number  6 and mass  12.00000

 Molecular mass:    94.02661 amu.
 Principal axes and moments of inertia in atomic units:
                           1         2         3
     Eigenvalues --   368.97749 607.70884 629.07297
           X            1.00000   0.00010  -0.00310
           Y           -0.00099   0.95696  -0.29020
           Z            0.00294   0.29021   0.95696
 This molecule is an asymmetric top.
 Rotational symmetry number  1.
 Rotational temperatures (Kelvin)      0.23474     0.14253     0.13768
 Rotational constants (GHZ):           4.89120     2.96975     2.86889
 Zero-point vibrational energy     241665.2 (Joules/Mol)
                                   57.75937 (Kcal/Mol)
 Warning -- explicit consideration of  11 degrees of freedom as
           vibrations may cause significant error
 Vibrational temperatures:    191.95   312.47   336.77   384.34   423.05
          (Kelvin)            491.09   557.54   613.93   711.87   793.44
                              886.60  1145.74  1300.32  1370.50  1432.63
                             1580.02  1638.95  1728.83  1952.39  1985.00
                             2009.51  2102.12  2151.84  2177.21  4418.06
                             4532.58  4566.52  5405.37  5448.93  5481.68

 Zero-point correction=                           0.092045 (Hartree/Particle)
 Thermal correction to Energy=                    0.099347
 Thermal correction to Enthalpy=                  0.100291
 Thermal correction to Gibbs Free Energy=         0.061661
 Sum of electronic and zero-point Energies=           -380.539540
 Sum of electronic and thermal Energies=              -380.532238
 Sum of electronic and thermal Enthalpies=            -380.531294
 Sum of electronic and thermal Free Energies=         -380.569924

                     E (Thermal)             CV                S
                      KCal/Mol        Cal/Mol-Kelvin    Cal/Mol-Kelvin
 Total                   62.341             26.077             81.304
 Electronic               0.000              0.000              0.000
 Translational            0.889              2.981             39.534
 Rotational               0.889              2.981             26.448
 Vibrational             60.564             20.115             15.322
 Vibration     1          0.613              1.920              2.896
 Vibration     2          0.646              1.815              1.983
 Vibration     3          0.654              1.789              1.848
 Vibration     4          0.672              1.733              1.615
 Vibration     5          0.689              1.685              1.451
 Vibration     6          0.721              1.593              1.206
 Vibration     7          0.756              1.497              1.010
 Vibration     8          0.788              1.412              0.870
 Vibration     9          0.850              1.262              0.671
 Vibration    10          0.907              1.136              0.541
 Vibration    11          0.976              0.998              0.423

 Optimization completed.
    -- Stationary point found.
 Normal termination of Gaussian 09 at Thu Sep  8 15:24:10 2022.
