 Gaussian 09, Revision E.01,
 Gaussian 09:  ES64L-G09RevE.01 30-Nov-2015

 ----------------------------
 #P OPT Freq B3LYP/6-31G(d,p)
 ----------------------------

 --------
 Frag_708
 --------
 Symbolic Z-matrix:
 Charge =  0 Multiplicity = 1

 SCF Done:  E(RB3LYP) =  -228.618832385     A.U. after   13 cycles
 SCF Done:  E(RB3LYP) =  -228.618883761     A.U. after   10 cycles
 SCF Done:  E(RB3LYP) =  -228.618888038     A.U. after    8 cycles
 SCF Done:  E(RB3LYP) =  -228.618889278     A.U. after    8 cycles
 SCF Done:  E(RB3LYP) =  -228.618889353     A.U. after    7 cycles
 Optimization completed.
    -- Stationary point found.
 Normal termination of Gaussian 09 at Thu Sep  8 14:57:34 2022.

 ----------------------------------------------------------------------
 #P Geom=AllCheck Guess=TCheck SCRF=Check GenChk RB3LYP/6-31G(d,p) Freq
 ----------------------------------------------------------------------

 Structure from the checkpoint file:  "B3LYP6-31Gdp.Frag_708.chk"
 --------
 Frag_708
 --------
 Charge =  0 Multiplicity = 1

                         Standard orientation:
 ---------------------------------------------------------------------
 Center     Atomic      Atomic             Coordinates (Angstroms)
 Number     Number       Type             X           Y           Z
 ---------------------------------------------------------------------
      1          6           0       -1.510063   -0.979894   -0.207740
      2          6           0       -0.577228   -0.069539    0.102235
      3          7           0       -0.766293    1.320620   -0.017464
      4          6           0        0.826131   -0.437504    0.526158
      5          7           0        1.801096   -0.054136   -0.504645
      6          1           0       -2.516431   -0.693671   -0.500775
      7          1           0       -1.272461   -2.036371   -0.214146
      8          1           0       -1.723833    1.585931   -0.215703
      9          1           0       -0.411173    1.848855    0.773182
     10          1           0        1.016723    0.033880    1.512100
     11          1           0        0.878857   -1.518898    0.684850
     12          1           0        1.611443    0.902316   -0.794337
     13          1           0        2.740212   -0.065807   -0.114328
 ---------------------------------------------------------------------

 SCF Done:  E(RB3LYP) =  -228.618889353     A.U. after    1 cycles

 The electronic state is 1-A.
 Alpha  occ. eigenvalues --  -14.33608 -14.30371 -10.21509 -10.20850 -10.15566
 Alpha  occ. eigenvalues --   -0.91217  -0.86227  -0.73527  -0.65581  -0.55558
 Alpha  occ. eigenvalues --   -0.50779  -0.46957  -0.45742  -0.43613  -0.39852
 Alpha  occ. eigenvalues --   -0.37699  -0.34566  -0.31860  -0.22595  -0.20617
 Alpha virt. eigenvalues --    0.03824   0.07819   0.11457   0.12840   0.13917
 Alpha virt. eigenvalues --    0.15199   0.17905   0.19135   0.21219   0.24949
 Alpha virt. eigenvalues --    0.25787   0.34761   0.38885   0.54178   0.54670

 Mulliken charges:
               1
     1  C   -0.305123
     2  C    0.300868
     3  N   -0.632040
     4  C   -0.092633
     5  N   -0.592322
     6  H    0.072821
     7  H    0.090971
     8  H    0.253151
     9  H    0.248876
    10  H    0.067113
    11  H    0.109724
    12  H    0.246837
    13  H    0.231756
 Sum of Mulliken charges =  -0.00000

 Dipole moment (field-independent basis, Debye):
    X=             -0.1191    Y=              1.7890    Z=              1.9560  Tot=              2.6535
 Quadrupole moment (field-independent basis, Debye-Ang):
   XX=            -27.5507   YY=            -28.7933   ZZ=            -34.1843
   XY=             -0.7000   XZ=              2.6556   YZ=              0.4657

  Exact polarizability:  55.069   6.080  52.207   5.505   1.607  31.933
 Approx polarizability:  72.475  13.457  77.670   8.606   3.395  45.052

                      1                      2                      3
                      A                      A                      A
 Frequencies --    104.9323               227.4892               275.8470
 Red. masses --      2.7574                 1.2302                 2.1723
 Frc consts  --      0.0179                 0.0375                 0.0974
 IR Inten    --      1.4838                43.2771                10.5315

                      4                      5                      6
                      A                      A                      A
 Frequencies --    361.8786               413.6726               469.3848
 Red. masses --      1.1259                 2.1079                 2.1579
 Frc consts  --      0.0869                 0.2125                 0.2801
 IR Inten    --     51.8652                 2.4200                13.2772

                      7                      8                      9
                      A                      A                      A
 Frequencies --    614.5915               682.3158               785.6766
 Red. masses --      2.0132                 1.2488                 1.4973
 Frc consts  --      0.4480                 0.3425                 0.5446
 IR Inten    --     91.4274                79.0152                92.6370

                     10                     11                     12
                      A                      A                      A
 Frequencies --    828.0998               839.9927               864.6455
 Red. masses --      1.6359                 1.8295                 1.3925
 Frc consts  --      0.6610                 0.7606                 0.6134
 IR Inten    --     19.1077                91.3836                86.6866

                     13                     14                     15
                      A                      A                      A
 Frequencies --    989.7249              1011.3783              1087.8478
 Red. masses --      1.4565                 2.1217                 2.0827
 Frc consts  --      0.8406                 1.2787                 1.4522
 IR Inten    --      3.8572                34.7814                 8.7454

                     16                     17                     18
                      A                      A                      A
 Frequencies --   1135.1167              1202.4820              1282.5834
 Red. masses --      1.3925                 1.2152                 1.2026
 Frc consts  --      1.0571                 1.0353                 1.1655
 IR Inten    --      2.5947                 2.7393                 2.0456

                     19                     20                     21
                      A                      A                      A
 Frequencies --   1356.0880              1431.9204              1468.5139
 Red. masses --      2.3270                 1.4952                 1.2216
 Frc consts  --      2.5213                 1.8063                 1.5522
 IR Inten    --     29.6119                28.3463                 5.9240

                     22                     23                     24
                      A                      A                      A
 Frequencies --   1528.8169              1655.3841              1656.4650
 Red. masses --      1.0988                 1.0980                 1.1337
 Frc consts  --      1.5131                 1.7727                 1.8329
 IR Inten    --      2.8571                30.4739                38.3754

                     25                     26                     27
                      A                      A                      A
 Frequencies --   1739.8865              2898.2489              3086.0360
 Red. masses --      4.9000                 1.0742                 1.0869
 Frc consts  --      8.7395                 5.3160                 6.0989
 IR Inten    --     76.0538               109.3864                27.6385

                     28                     29                     30
                      A                      A                      A
 Frequencies --   3161.6345              3256.8198              3490.7547
 Red. masses --      1.0628                 1.1136                 1.0492
 Frc consts  --      6.2593                 6.9592                 7.5324
 IR Inten    --      8.1044                13.2471                 3.9990

                     31                     32                     33
                      A                      A                      A
 Frequencies --   3521.5828              3580.6982              3629.2507
 Red. masses --      1.0487                 1.0930                 1.0955
 Frc consts  --      7.6625                 8.2569                 8.5018
 IR Inten    --      1.3566                 0.3972                 2.5819

 - Thermochemistry -
 -------------------
 Temperature   298.150 Kelvin.  Pressure   1.00000 Atm.
 Atom     1 has atomic number  6 and mass  12.00000

 Molecular mass:    72.06875 amu.
 Principal axes and moments of inertia in atomic units:
                           1         2         3
     Eigenvalues --   228.45813 458.11081 601.94400
           X            0.99971   0.01249   0.02035
           Y           -0.01259   0.99991   0.00468
           Z           -0.02029  -0.00494   0.99978
 This molecule is an asymmetric top.
 Rotational symmetry number  1.
 Rotational temperatures (Kelvin)      0.37912     0.18907     0.14389
 Rotational constants (GHZ):           7.89966     3.93953     2.99819
 Zero-point vibrational energy     302893.0 (Joules/Mol)
                                   72.39317 (Kcal/Mol)
 Warning -- explicit consideration of   7 degrees of freedom as
           vibrations may cause significant error
 Vibrational temperatures:    150.97   327.31   396.88   520.66   595.18
          (Kelvin)            675.34   884.26   981.70  1130.41  1191.45
                             1208.56  1244.03  1423.99  1455.15  1565.17
                             1633.18  1730.10  1845.35  1951.11  2060.21
                             2112.86  2199.62  2381.73  2383.28  2503.31
                             4169.93  4440.11  4548.88  4685.83  5022.41
                             5066.77  5151.82  5221.68

 Zero-point correction=                           0.115366 (Hartree/Particle)
 Thermal correction to Energy=                    0.121523
 Thermal correction to Enthalpy=                  0.122467
 Thermal correction to Gibbs Free Energy=         0.086394
 Sum of electronic and zero-point Energies=           -228.503523
 Sum of electronic and thermal Energies=              -228.497366
 Sum of electronic and thermal Enthalpies=            -228.496422
 Sum of electronic and thermal Free Energies=         -228.532496

                     E (Thermal)             CV                S
                      KCal/Mol        Cal/Mol-Kelvin    Cal/Mol-Kelvin
 Total                   76.257             22.158             75.924
 Electronic               0.000              0.000              0.000
 Translational            0.889              2.981             38.742
 Rotational               0.889              2.981             25.647
 Vibrational             74.479             16.196             11.535
 Vibration     1          0.605              1.945              3.361
 Vibration     2          0.651              1.799              1.899
 Vibration     3          0.677              1.718              1.559
 Vibration     4          0.736              1.551              1.114
 Vibration     5          0.777              1.441              0.914
 Vibration     6          0.826              1.318              0.739
 Vibration     7          0.974              1.001              0.425

 Optimization completed.
    -- Stationary point found.
 Normal termination of Gaussian 09 at Thu Sep  8 14:57:43 2022.
