 Gaussian 09, Revision E.01,
 Gaussian 09:  ES64L-G09RevE.01 30-Nov-2015

 --------------------------------
 #P OPT=calcfc Freq B3LYP/6-31G**
 --------------------------------

 --------
 Frag_333
 --------
 Symbolic Z-matrix:
 Charge =  0 Multiplicity = 1

 SCF Done:  E(RB3LYP) =  -212.578651648     A.U. after   13 cycles
 SCF Done:  E(RB3LYP) =  -212.580732304     A.U. after   13 cycles
 SCF Done:  E(RB3LYP) =  -212.587590793     A.U. after   13 cycles
 SCF Done:  E(RB3LYP) =  -212.549380110     A.U. after   13 cycles
 SCF Done:  E(RB3LYP) =  -212.565313825     A.U. after   11 cycles
 SCF Done:  E(RB3LYP) =  -212.587599795     A.U. after    8 cycles
 SCF Done:  E(RB3LYP) =  -212.591315832     A.U. after   13 cycles
 SCF Done:  E(RB3LYP) =  -212.551158303     A.U. after   13 cycles
 SCF Done:  E(RB3LYP) =  -212.591423623     A.U. after    8 cycles
 SCF Done:  E(RB3LYP) =  -212.591995368     A.U. after   13 cycles
 SCF Done:  E(RB3LYP) =  -212.593476921     A.U. after   10 cycles
 SCF Done:  E(RB3LYP) =  -212.592005931     A.U. after   14 cycles
 SCF Done:  E(RB3LYP) =  -212.593615327     A.U. after   11 cycles
 SCF Done:  E(RB3LYP) =  -212.593741614     A.U. after   10 cycles
 SCF Done:  E(RB3LYP) =  -212.593823682     A.U. after   10 cycles
 SCF Done:  E(RB3LYP) =  -212.593839905     A.U. after   11 cycles
 SCF Done:  E(RB3LYP) =  -212.593855268     A.U. after   10 cycles
 SCF Done:  E(RB3LYP) =  -212.593858289     A.U. after    9 cycles
 SCF Done:  E(RB3LYP) =  -212.593858446     A.U. after    7 cycles
 Optimization completed.
    -- Stationary point found.
 Normal termination of Gaussian 09 at Fri Sep 10 17:39:35 2021.

 ----------------------------------------------------------------------
 #P Geom=AllCheck Guess=TCheck SCRF=Check GenChk RB3LYP/6-31G(d,p) Freq
 ----------------------------------------------------------------------

 Structure from the checkpoint file:  "/public/home/users/caep010/.cache/gau_scr/Gau-101754.chk"
 --------
 Frag_333
 --------
 Charge =  0 Multiplicity = 1

                         Standard orientation:
 ---------------------------------------------------------------------
 Center     Atomic      Atomic             Coordinates (Angstroms)
 Number     Number       Type             X           Y           Z
 ---------------------------------------------------------------------
      1          6           0        1.717277   -0.815824   -0.003858
      2          6           0        0.429266   -0.033162    0.016408
      3          6           0        0.569628    1.468280    0.009082
      4          6           0       -0.754455   -0.671108    0.007009
      5          7           0       -2.036410   -0.112035   -0.100475
      6          1           0        2.352467   -0.569386    0.858692
      7          1           0        1.537321   -1.895267    0.010476
      8          1           0        2.314123   -0.593177   -0.900063
      9          1           0        1.326540    1.791998    0.735121
     10          1           0       -0.359495    1.991498    0.259751
     11          1           0        0.895509    1.843117   -0.971239
     12          1           0       -0.768389   -1.759410    0.011056
     13          1           0       -2.736265   -0.597685    0.447336
     14          1           0       -2.077239    0.883445    0.080339
 ---------------------------------------------------------------------

 SCF Done:  E(RB3LYP) =  -212.593858446     A.U. after    1 cycles

 The electronic state is 1-A.
 Alpha  occ. eigenvalues --  -14.32893 -10.19843 -10.17479 -10.16936 -10.16709
 Alpha  occ. eigenvalues --   -0.89435  -0.77812  -0.68291  -0.65314  -0.53754
 Alpha  occ. eigenvalues --   -0.49600  -0.45806  -0.41826  -0.41272  -0.37486
 Alpha  occ. eigenvalues --   -0.37213  -0.35692  -0.33346  -0.31396  -0.18543
 Alpha virt. eigenvalues --    0.05680   0.07937   0.11513   0.11648   0.15115
 Alpha virt. eigenvalues --    0.16542   0.18556   0.19225   0.20870   0.23363
 Alpha virt. eigenvalues --    0.23893   0.26734   0.35630   0.43163   0.51674

 Mulliken charges:
               1
     1  C   -0.359832
     2  C    0.116979
     3  C   -0.365444
     4  C    0.024889
     5  N   -0.606410
     6  H    0.099564
     7  H    0.099320
     8  H    0.103373
     9  H    0.106352
    10  H    0.083654
    11  H    0.115421
    12  H    0.081182
    13  H    0.252437
    14  H    0.248518
 Sum of Mulliken charges =  -0.00000

 Dipole moment (field-independent basis, Debye):
    X=             -0.7080    Y=              0.2859    Z=              1.0752  Tot=              1.3187
 Quadrupole moment (field-independent basis, Debye-Ang):
   XX=            -29.3312   YY=            -30.1683   ZZ=            -34.2776
   XY=             -0.0135   XZ=             -3.2475   YZ=             -0.4257

  Exact polarizability:  70.325   4.786  52.127  -1.008  -0.569  33.129
 Approx polarizability: 101.548  11.884  70.207   0.010  -0.729  46.741

                      1                      2                      3
                      A                      A                      A
 Frequencies --    107.4804               197.1586               259.2807
 Red. masses --      1.0670                 1.1961                 1.2017
 Frc consts  --      0.0073                 0.0274                 0.0476
 IR Inten    --      0.9614                 3.4181                19.3173

                      4                      5                      6
                      A                      A                      A
 Frequencies --    290.8360               311.8412               372.6133
 Red. masses --      2.7909                 1.6840                 2.2027
 Frc consts  --      0.1391                 0.0965                 0.1802
 IR Inten    --      1.9277                26.5339                 2.5213

                      7                      8                      9
                      A                      A                      A
 Frequencies --    465.5858               562.2682               692.9806
 Red. masses --      2.0014                 3.0078                 1.4266
 Frc consts  --      0.2556                 0.5603                 0.4036
 IR Inten    --     30.3348                 0.1594               317.6997

                     10                     11                     12
                      A                      A                      A
 Frequencies --    796.4107               886.6911               980.7876
 Red. masses --      2.9300                 1.3420                 1.3651
 Frc consts  --      1.0950                 0.6216                 0.7737
 IR Inten    --      2.8571                13.4862                 0.5055

                     13                     14                     15
                      A                      A                      A
 Frequencies --   1024.7133              1039.2185              1100.9877
 Red. masses --      1.2473                 1.5381                 1.5697
 Frc consts  --      0.7717                 0.9787                 1.1211
 IR Inten    --      2.3478                 0.0734                 1.9570

                     16                     17                     18
                      A                      A                      A
 Frequencies --   1142.7573              1208.8032              1292.9858
 Red. masses --      1.4045                 3.3339                 2.3904
 Frc consts  --      1.0806                 2.8702                 2.3545
 IR Inten    --      4.6666                71.3441                 6.9336

                     19                     20                     21
                      A                      A                      A
 Frequencies --   1401.8346              1428.9846              1441.5611
 Red. masses --      1.2621                 1.3661                 1.2753
 Frc consts  --      1.4613                 1.6435                 1.5614
 IR Inten    --      1.3966                 2.3720                 1.1275

                     22                     23                     24
                      A                      A                      A
 Frequencies --   1484.3838              1499.2797              1506.4956
 Red. masses --      1.0466                 1.0437                 1.0500
 Frc consts  --      1.3587                 1.3822                 1.4040
 IR Inten    --      0.2222                10.1590                 3.7135

                     25                     26                     27
                      A                      A                      A
 Frequencies --   1518.5455              1655.2991              1766.1678
 Red. masses --      1.0722                 1.1394                 5.3281
 Frc consts  --      1.4568                 1.8394                 9.7924
 IR Inten    --      1.5121                33.4102                74.4951

                     28                     29                     30
                      A                      A                      A
 Frequencies --   3005.8201              3016.0216              3046.5962
 Red. masses --      1.0391                 1.0388                 1.1000
 Frc consts  --      5.5313                 5.5674                 6.0152
 IR Inten    --     53.8400                51.6925                39.6848

                     31                     32                     33
                      A                      A                      A
 Frequencies --   3062.6672              3094.5587              3107.5192
 Red. masses --      1.0988                 1.0992                 1.0980
 Frc consts  --      6.0727                 6.2018                 6.2472
 IR Inten    --     33.0639                40.8919                29.1061

                     34                     35                     36
                      A                      A                      A
 Frequencies --   3165.8828              3541.1903              3644.5425
 Red. masses --      1.0895                 1.0476                 1.0966
 Frc consts  --      6.4337                 7.7401                 8.5821
 IR Inten    --     21.4476                 2.4947                 3.3227

 - Thermochemistry -
 -------------------
 Temperature   298.150 Kelvin.  Pressure   1.00000 Atm.
 Atom     1 has atomic number  6 and mass  12.00000

 Molecular mass:    71.07350 amu.
 Principal axes and moments of inertia in atomic units:
                           1         2         3
     Eigenvalues --   221.76781 494.07723 691.14449
           X            0.99984  -0.01467  -0.01067
           Y            0.01465   0.99989  -0.00227
           Z            0.01071   0.00211   0.99994
 This molecule is an asymmetric top.
 Rotational symmetry number  1.
 Rotational temperatures (Kelvin)      0.39056     0.17530     0.12532
 Rotational constants (GHZ):           8.13798     3.65275     2.61124
 Zero-point vibrational energy     329695.3 (Joules/Mol)
                                   78.79907 (Kcal/Mol)
 Warning -- explicit consideration of   8 degrees of freedom as
           vibrations may cause significant error
 Vibrational temperatures:    154.64   283.67   373.05   418.45   448.67
          (Kelvin)            536.11   669.87   808.98   997.04  1145.86
                             1275.75  1411.13  1474.33  1495.20  1584.07
                             1644.17  1739.20  1860.32  2016.92  2055.99
                             2074.08  2135.69  2157.13  2167.51  2184.85
                             2381.60  2541.12  4324.70  4339.38  4383.37
                             4406.49  4452.37  4471.02  4554.99  5094.98
                             5243.68

 Zero-point correction=                           0.125574 (Hartree/Particle)
 Thermal correction to Energy=                    0.132247
 Thermal correction to Enthalpy=                  0.133191
 Thermal correction to Gibbs Free Energy=         0.096105
 Sum of electronic and zero-point Energies=           -212.468284
 Sum of electronic and thermal Energies=              -212.461611
 Sum of electronic and thermal Enthalpies=            -212.460667
 Sum of electronic and thermal Free Energies=         -212.497754

                     E (Thermal)             CV                S
                      KCal/Mol        Cal/Mol-Kelvin    Cal/Mol-Kelvin
 Total                   82.986             23.448             78.055
 Electronic               0.000              0.000              0.000
 Translational            0.889              2.981             38.700
 Rotational               0.889              2.981             25.830
 Vibrational             81.209             17.486             13.525
 Vibration     1          0.606              1.943              3.314
 Vibration     2          0.637              1.844              2.159
 Vibration     3          0.668              1.747              1.667
 Vibration     4          0.687              1.691              1.469
 Vibration     5          0.700              1.651              1.353
 Vibration     6          0.744              1.528              1.069
 Vibration     7          0.823              1.326              0.750
 Vibration     8          0.918              1.113              0.519

 Normal termination of Gaussian 09 at Fri Sep 10 17:39:45 2021.
