 Gaussian 09, Revision E.01,
 Gaussian 09:  ES64L-G09RevE.01 30-Nov-2015

 --------------------------------
 #P OPT=calcfc Freq B3LYP/6-31G**
 --------------------------------

 --------
 Frag_191
 --------
 Symbolic Z-matrix:
 Charge =  0 Multiplicity = 1

 SCF Done:  E(RB3LYP) =  -173.253955136     A.U. after   13 cycles
 SCF Done:  E(RB3LYP) =  -173.261899548     A.U. after   12 cycles
 SCF Done:  E(RB3LYP) =  -173.262037216     A.U. after   12 cycles
 SCF Done:  E(RB3LYP) =  -173.263336715     A.U. after   12 cycles
 SCF Done:  E(RB3LYP) =  -173.263424625     A.U. after   11 cycles
 SCF Done:  E(RB3LYP) =  -173.262870871     A.U. after   12 cycles
 SCF Done:  E(RB3LYP) =  -173.263515841     A.U. after    8 cycles
 SCF Done:  E(RB3LYP) =  -173.263550217     A.U. after    9 cycles
 SCF Done:  E(RB3LYP) =  -173.263550907     A.U. after    8 cycles
 SCF Done:  E(RB3LYP) =  -173.263551291     A.U. after    7 cycles
 Optimization completed.
    -- Stationary point found.
 Normal termination of Gaussian 09 at Sat Aug 21 02:19:53 2021.

 ----------------------------------------------------------------------
 #P Geom=AllCheck Guess=TCheck SCRF=Check GenChk RB3LYP/6-31G(d,p) Freq
 ----------------------------------------------------------------------

 Structure from the checkpoint file:  "/public/home/users/caep010/.cache/gau_scr/Gau-48234.chk"
 --------
 Frag_191
 --------
 Charge =  0 Multiplicity = 1

                         Standard orientation:
 ---------------------------------------------------------------------
 Center     Atomic      Atomic             Coordinates (Angstroms)
 Number     Number       Type             X           Y           Z
 ---------------------------------------------------------------------
      1          6           0        1.903511    0.067683    0.126840
      2          6           0        0.657793   -0.365007   -0.113478
      3          7           0       -0.481989    0.416081   -0.261081
      4          6           0       -1.769292   -0.125015    0.146676
      5          1           0        2.128840    1.117707    0.292370
      6          1           0        2.734154   -0.626758    0.131348
      7          1           0        0.468914   -1.426655   -0.269677
      8          1           0       -0.345152    1.383642    0.006032
      9          1           0       -2.570176    0.529847   -0.207933
     10          1           0       -1.881640   -0.251594    1.235537
     11          1           0       -1.913093   -1.104725   -0.320340
 ---------------------------------------------------------------------

 SCF Done:  E(RB3LYP) =  -173.263551291     A.U. after    1 cycles

 The electronic state is 1-A.
 Alpha  occ. eigenvalues --  -14.33807 -10.21423 -10.20798 -10.15220  -0.91788
 Alpha  occ. eigenvalues --   -0.74041  -0.66431  -0.58304  -0.47846  -0.46872
 Alpha  occ. eigenvalues --   -0.43088  -0.39749  -0.38805  -0.35741  -0.30686
 Alpha  occ. eigenvalues --   -0.19202
 Alpha virt. eigenvalues --    0.04869   0.09485   0.11388   0.13496   0.16107
 Alpha virt. eigenvalues --    0.16671   0.17892   0.21164   0.22048   0.33851
 Alpha virt. eigenvalues --    0.36977   0.48742   0.52622   0.53779   0.58301

 Mulliken charges:
               1
     1  C   -0.302509
     2  C    0.141646
     3  N   -0.496628
     4  C   -0.175125
     5  H    0.072945
     6  H    0.089123
     7  H    0.087090
     8  H    0.247830
     9  H    0.112471
    10  H    0.102767
    11  H    0.120392
 Sum of Mulliken charges =  -0.00000

 Dipole moment (field-independent basis, Debye):
    X=             -1.3417    Y=              0.2405    Z=              0.5775  Tot=              1.4804
 Quadrupole moment (field-independent basis, Debye-Ang):
   XX=            -25.0490   YY=            -22.6794   ZZ=            -28.5312
   XY=             -0.2252   XZ=             -0.2326   YZ=              0.9856

  Exact polarizability:  60.831   1.472  37.062   2.418   1.708  23.819
 Approx polarizability:  82.757   3.539  51.073   6.386   2.404  32.976

                      1                      2                      3
                      A                      A                      A
 Frequencies --    135.4321               194.0542               309.8009
 Red. masses --      2.6271                 1.0944                 2.1383
 Frc consts  --      0.0284                 0.0243                 0.1209
 IR Inten    --      6.0554                 0.9979                 3.2528

                      4                      5                      6
                      A                      A                      A
 Frequencies --    495.1543               638.2118               716.5410
 Red. masses --      1.9513                 1.2888                 1.6448
 Frc consts  --      0.2819                 0.3093                 0.4975
 IR Inten    --     26.9165                92.1023                17.9868

                      7                      8                      9
                      A                      A                      A
 Frequencies --    801.6430               912.3490              1008.8184
 Red. masses --      1.4285                 1.7471                 1.1216
 Frc consts  --      0.5409                 0.8568                 0.6725
 IR Inten    --     56.0626                 3.1831                22.9115

                     10                     11                     12
                      A                      A                      A
 Frequencies --   1061.6399              1149.8929              1172.7488
 Red. masses --      1.3127                 1.3154                 3.0059
 Frc consts  --      0.8717                 1.0248                 2.4358
 IR Inten    --      7.5256                 8.3192                65.9356

                     13                     14                     15
                      A                      A                      A
 Frequencies --   1295.0786              1342.2276              1417.4791
 Red. masses --      2.5315                 1.1919                 1.2169
 Frc consts  --      2.5016                 1.2651                 1.4406
 IR Inten    --     62.8827                14.5816                 3.2421

                     16                     17                     18
                      A                      A                      A
 Frequencies --   1476.7887              1504.4066              1506.1503
 Red. masses --      1.1528                 1.0704                 1.2393
 Frc consts  --      1.4813                 1.4273                 1.6563
 IR Inten    --      4.8189                23.9813                 2.1897

                     19                     20                     21
                      A                      A                      A
 Frequencies --   1537.3327              1729.2167              2983.7373
 Red. masses --      1.0945                 4.1633                 1.0550
 Frc consts  --      1.5241                 7.3348                 5.5338
 IR Inten    --     11.3830               163.0076               105.4639

                     22                     23                     24
                      A                      A                      A
 Frequencies --   3080.1288              3122.9814              3155.7347
 Red. masses --      1.0800                 1.1032                 1.0785
 Frc consts  --      6.0367                 6.3392                 6.3282
 IR Inten    --     36.0593                25.4045                21.1381

                     25                     26                     27
                      A                      A                      A
 Frequencies --   3164.3139              3259.3466              3579.5116
 Red. masses --      1.0731                 1.1137                 1.0749
 Frc consts  --      6.3306                 6.9705                 8.1148
 IR Inten    --      0.5810                14.7703                 3.5380

 - Thermochemistry -
 -------------------
 Temperature   298.150 Kelvin.  Pressure   1.00000 Atm.
 Atom     1 has atomic number  6 and mass  12.00000

 Molecular mass:    57.05785 amu.
 Principal axes and moments of inertia in atomic units:
                           1         2         3
     Eigenvalues --    53.13234 425.64134 454.70415
           X            0.99997   0.00738  -0.00259
           Y           -0.00719   0.99761   0.06876
           Z            0.00309  -0.06874   0.99763
 This molecule is an asymmetric top.
 Rotational symmetry number  1.
 Rotational temperatures (Kelvin)      1.63015     0.20349     0.19048
 Rotational constants (GHZ):          33.96691     4.24005     3.96904
 Zero-point vibrational energy     255706.1 (Joules/Mol)
                                   61.11522 (Kcal/Mol)
 Warning -- explicit consideration of   4 degrees of freedom as
           vibrations may cause significant error
 Vibrational temperatures:    194.86   279.20   445.73   712.42   918.24
          (Kelvin)           1030.94  1153.38  1312.67  1451.46  1527.46
                             1654.44  1687.32  1863.33  1931.16  2039.43
                             2124.77  2164.50  2167.01  2211.88  2487.95
                             4292.93  4431.61  4493.27  4540.39  4552.74
                             4689.47  5150.11

 Zero-point correction=                           0.097393 (Hartree/Particle)
 Thermal correction to Energy=                    0.102629
 Thermal correction to Enthalpy=                  0.103573
 Thermal correction to Gibbs Free Energy=         0.070137
 Sum of electronic and zero-point Energies=           -173.166158
 Sum of electronic and thermal Energies=              -173.160922
 Sum of electronic and thermal Enthalpies=            -173.159978
 Sum of electronic and thermal Free Energies=         -173.193415

                     E (Thermal)             CV                S
                      KCal/Mol        Cal/Mol-Kelvin    Cal/Mol-Kelvin
 Total                   64.401             17.377             70.374
 Electronic               0.000              0.000              0.000
 Translational            0.889              2.981             38.046
 Rotational               0.889              2.981             23.846
 Vibrational             62.623             11.415              8.483
 Vibration     1          0.613              1.918              2.867
 Vibration     2          0.635              1.848              2.189
 Vibration     3          0.699              1.655              1.363
 Vibration     4          0.851              1.261              0.670

 Optimization completed.
    -- Stationary point found.
 Normal termination of Gaussian 09 at Sat Aug 21 02:20:00 2021.
