 Gaussian 09, Revision E.01,
 Gaussian 09:  ES64L-G09RevE.01 30-Nov-2015

 ----------------------------
 #P OPT Freq B3LYP/6-31G(d,p)
 ----------------------------

 ---------
 Frag_1081
 ---------
 Symbolic Z-matrix:
 Charge =  0 Multiplicity = 1

 SCF Done:  E(RB3LYP) =  -360.843103254     A.U. after   13 cycles
 SCF Done:  E(RB3LYP) =  -360.843171337     A.U. after   10 cycles
 SCF Done:  E(RB3LYP) =  -360.843194009     A.U. after   10 cycles
 SCF Done:  E(RB3LYP) =  -360.843194163     A.U. after    8 cycles
 SCF Done:  E(RB3LYP) =  -360.843195992     A.U. after    7 cycles
 SCF Done:  E(RB3LYP) =  -360.843196256     A.U. after    7 cycles
 SCF Done:  E(RB3LYP) =  -360.843196398     A.U. after    7 cycles
 SCF Done:  E(RB3LYP) =  -360.843196487     A.U. after    7 cycles
 Optimization completed.
    -- Stationary point found.
 Normal termination of Gaussian 09 at Thu Sep  8 14:50:57 2022.

 ----------------------------------------------------------------------
 #P Geom=AllCheck Guess=TCheck SCRF=Check GenChk RB3LYP/6-31G(d,p) Freq
 ----------------------------------------------------------------------

 Structure from the checkpoint file:  "B3LYP6-31Gdp.Frag_1081.chk"
 ---------
 Frag_1081
 ---------
 Charge =  0 Multiplicity = 1

                         Standard orientation:
 ---------------------------------------------------------------------
 Center     Atomic      Atomic             Coordinates (Angstroms)
 Number     Number       Type             X           Y           Z
 ---------------------------------------------------------------------
      1          7           0        0.668032    1.349730   -0.405684
      2          6           0        0.441811   -0.027278    0.018626
      3          8           0        0.400405   -0.190961    1.415803
      4          8           0        1.526171   -0.804609   -0.415858
      5          6           0       -0.864165   -0.566454   -0.590744
      6          8           0       -2.008312    0.013794    0.046366
      7          1           0        1.404477    1.728398    0.189037
      8          1           0       -0.162341    1.903809   -0.202428
      9          1           0       -0.520712   -0.023821    1.670854
     10          1           0        1.851969   -0.369685   -1.215565
     11          1           0       -0.891215   -1.640777   -0.394220
     12          1           0       -0.872139   -0.403981   -1.674431
     13          1           0       -2.298252    0.774550   -0.471243
 ---------------------------------------------------------------------

 SCF Done:  E(RB3LYP) =  -360.843196487     A.U. after    1 cycles

 The electronic state is 1-A.
 Alpha  occ. eigenvalues --  -19.17013 -19.14713 -19.14021 -14.32653 -10.30893
 Alpha  occ. eigenvalues --  -10.23705  -1.07024  -1.03394  -0.99257  -0.87639
 Alpha  occ. eigenvalues --   -0.71998  -0.61562  -0.54557  -0.52089  -0.50520
 Alpha  occ. eigenvalues --   -0.48199  -0.44968  -0.42201  -0.37762  -0.35300
 Alpha  occ. eigenvalues --   -0.34652  -0.32238  -0.31472  -0.26479  -0.25146
 Alpha virt. eigenvalues --    0.04012   0.08955   0.11368   0.13268   0.13494
 Alpha virt. eigenvalues --    0.16369   0.16885   0.18880   0.24467   0.27427
 Alpha virt. eigenvalues --    0.28162   0.29675   0.54062   0.55543   0.56955

 Mulliken charges:
               1
     1  N   -0.610170
     2  C    0.563418
     3  O   -0.532362
     4  O   -0.529549
     5  C    0.001519
     6  O   -0.544924
     7  H    0.252686
     8  H    0.223226
     9  H    0.312881
    10  H    0.314346
    11  H    0.135914
    12  H    0.098282
    13  H    0.314734
 Sum of Mulliken charges =   0.00000

 Dipole moment (field-independent basis, Debye):
    X=             -1.6389    Y=              2.4862    Z=             -1.7329  Tot=              3.4453
 Quadrupole moment (field-independent basis, Debye-Ang):
   XX=            -35.4935   YY=            -34.1654   ZZ=            -35.3453
   XY=             -0.4566   XZ=             -0.8142   YZ=              2.2847

  Exact polarizability:  41.912  -1.385  38.771  -1.665  -0.187  37.033
 Approx polarizability:  56.265  -4.416  52.372  -3.309  -2.136  52.241

                      1                      2                      3
                      A                      A                      A
 Frequencies --     94.6527               193.7152               243.8122
 Red. masses --      3.0180                 1.2926                 4.0557
 Frc consts  --      0.0159                 0.0286                 0.1420
 IR Inten    --      4.7024                49.3102                15.8759

                      4                      5                      6
                      A                      A                      A
 Frequencies --    298.7994               355.0910               400.1377
 Red. masses --      1.0625                 1.9083                 4.2412
 Frc consts  --      0.0559                 0.1418                 0.4001
 IR Inten    --     63.7525                 8.8019                11.0845

                      7                      8                      9
                      A                      A                      A
 Frequencies --    416.3029               483.6180               503.0545
 Red. masses --      1.3476                 1.2613                 2.5881
 Frc consts  --      0.1376                 0.1738                 0.3859
 IR Inten    --     33.2115                99.9054               120.3170

                     10                     11                     12
                      A                      A                      A
 Frequencies --    525.7186               619.2479               817.2150
 Red. masses --      2.7262                 3.9310                 5.5260
 Frc consts  --      0.4439                 0.8881                 2.1744
 IR Inten    --     22.8068                24.7171                11.0052

                     13                     14                     15
                      A                      A                      A
 Frequencies --    903.1121               945.5900              1016.0201
 Red. masses --      1.8389                 1.6086                 2.4901
 Frc consts  --      0.8837                 0.8474                 1.5145
 IR Inten    --    115.2597                29.0914                60.1622

                     16                     17                     18
                      A                      A                      A
 Frequencies --   1051.3605              1073.3950              1160.8124
 Red. masses --      2.4853                 2.6130                 1.2418
 Frc consts  --      1.6186                 1.7738                 0.9859
 IR Inten    --    246.1774                39.7036                81.4527

                     19                     20                     21
                      A                      A                      A
 Frequencies --   1232.2390              1278.8377              1358.4573
 Red. masses --      1.6772                 2.0468                 1.4272
 Frc consts  --      1.5005                 1.9722                 1.5517
 IR Inten    --     82.8909                37.4871               107.5854

                     22                     23                     24
                      A                      A                      A
 Frequencies --   1372.2002              1393.6164              1463.7469
 Red. masses --      1.2838                 1.3559                 1.9414
 Frc consts  --      1.4243                 1.5515                 2.4508
 IR Inten    --     29.4555                90.5487                54.6006

                     25                     26                     27
                      A                      A                      A
 Frequencies --   1501.1457              1664.3438              3058.9084
 Red. masses --      1.0830                 1.1038                 1.0629
 Frc consts  --      1.4379                 1.8014                 5.8598
 IR Inten    --      6.2983                46.1568                32.2948

                     28                     29                     30
                      A                      A                      A
 Frequencies --   3134.7611              3479.6617              3559.6191
 Red. masses --      1.1054                 1.0498                 1.0909
 Frc consts  --      6.4002                 7.4894                 8.1441
 IR Inten    --     19.8357                 1.2181                 1.8375

                     31                     32                     33
                      A                      A                      A
 Frequencies --   3763.9038              3821.6508              3838.0171
 Red. masses --      1.0651                 1.0652                 1.0671
 Frc consts  --      8.8907                 9.1661                 9.2613
 IR Inten    --     43.7901                37.8327                25.3231

 - Thermochemistry -
 -------------------
 Temperature   298.150 Kelvin.  Pressure   1.00000 Atm.
 Atom     1 has atomic number  7 and mass  14.00307

 Molecular mass:    93.04259 amu.
 Principal axes and moments of inertia in atomic units:
                           1         2         3
     Eigenvalues --   355.06757 652.55809 663.27426
           X            0.99986   0.01447   0.00897
           Y           -0.01700   0.87845   0.47752
           Z           -0.00097  -0.47761   0.87857
 This molecule is an asymmetric top.
 Rotational symmetry number  1.
 Rotational temperatures (Kelvin)      0.24394     0.13273     0.13059
 Rotational constants (GHZ):           5.08281     2.76564     2.72096
 Zero-point vibrational energy     281258.6 (Joules/Mol)
                                   67.22242 (Kcal/Mol)
 Warning -- explicit consideration of  11 degrees of freedom as
           vibrations may cause significant error
 Vibrational temperatures:    136.18   278.71   350.79   429.91   510.90
          (Kelvin)            575.71   598.97   695.82   723.78   756.39
                              890.96  1175.79  1299.38  1360.49  1461.82
                             1512.67  1544.37  1670.15  1772.91  1839.96
                             1954.51  1974.29  2005.10  2106.00  2159.81
                             2394.62  4401.08  4510.22  5006.45  5121.49
                             5415.41  5498.50  5522.04

 Zero-point correction=                           0.107126 (Hartree/Particle)
 Thermal correction to Energy=                    0.114313
 Thermal correction to Enthalpy=                  0.115257
 Thermal correction to Gibbs Free Energy=         0.076652
 Sum of electronic and zero-point Energies=           -360.736071
 Sum of electronic and thermal Energies=              -360.728884
 Sum of electronic and thermal Enthalpies=            -360.727940
 Sum of electronic and thermal Free Energies=         -360.766545

                     E (Thermal)             CV                S
                      KCal/Mol        Cal/Mol-Kelvin    Cal/Mol-Kelvin
 Total                   71.732             26.066             81.251
 Electronic               0.000              0.000              0.000
 Translational            0.889              2.981             39.503
 Rotational               0.889              2.981             26.533
 Vibrational             69.955             20.104             15.215
 Vibration     1          0.603              1.953              3.562
 Vibration     2          0.635              1.849              2.192
 Vibration     3          0.659              1.773              1.775
 Vibration     4          0.692              1.676              1.424
 Vibration     5          0.731              1.565              1.144
 Vibration     6          0.766              1.470              0.962
 Vibration     7          0.780              1.435              0.905
 Vibration     8          0.840              1.286              0.700
 Vibration     9          0.858              1.243              0.651
 Vibration    10          0.881              1.193              0.597
 Vibration    11          0.979              0.991              0.418

 Normal termination of Gaussian 09 at Thu Sep  8 14:51:07 2022.
