 Gaussian 09, Revision E.01,
 Gaussian 09:  ES64L-G09RevE.01 30-Nov-2015

 -------------------------
 #P OPT Freq B3LYP/6-31G**
 -------------------------

 --------
 Frag_176
 --------
 Symbolic Z-matrix:
 Charge =  0 Multiplicity = 1

 SCF Done:  E(RB3LYP) =  -244.626802954     A.U. after   14 cycles
 SCF Done:  E(RB3LYP) =  -244.639720221     A.U. after   13 cycles
 SCF Done:  E(RB3LYP) =  -244.642684811     A.U. after   13 cycles
 SCF Done:  E(RB3LYP) =  -244.646863648     A.U. after   14 cycles
 SCF Done:  E(RB3LYP) =  -244.647495932     A.U. after   11 cycles
 SCF Done:  E(RB3LYP) =  -244.647799581     A.U. after   11 cycles
 SCF Done:  E(RB3LYP) =  -244.647873781     A.U. after   10 cycles
 SCF Done:  E(RB3LYP) =  -244.647914862     A.U. after    9 cycles
 SCF Done:  E(RB3LYP) =  -244.647994524     A.U. after   11 cycles
 SCF Done:  E(RB3LYP) =  -244.648040350     A.U. after   11 cycles
 SCF Done:  E(RB3LYP) =  -244.648093206     A.U. after   11 cycles
 SCF Done:  E(RB3LYP) =  -244.648091957     A.U. after   11 cycles
 SCF Done:  E(RB3LYP) =  -244.648105939     A.U. after   12 cycles
 SCF Done:  E(RB3LYP) =  -244.648115657     A.U. after   10 cycles
 SCF Done:  E(RB3LYP) =  -244.648116369     A.U. after    8 cycles
 SCF Done:  E(RB3LYP) =  -244.648116565     A.U. after    8 cycles
 Optimization completed.
    -- Stationary point found.
 Normal termination of Gaussian 09 at Sat Aug 21 01:40:00 2021.

 ----------------------------------------------------------------------
 #P Geom=AllCheck Guess=TCheck SCRF=Check GenChk RB3LYP/6-31G(d,p) Freq
 ----------------------------------------------------------------------

 Structure from the checkpoint file:  "/public/home/users/caep010/.cache/gau_scr/Gau-98439.chk"
 --------
 Frag_176
 --------
 Charge =  0 Multiplicity = 1

                         Standard orientation:
 ---------------------------------------------------------------------
 Center     Atomic      Atomic             Coordinates (Angstroms)
 Number     Number       Type             X           Y           Z
 ---------------------------------------------------------------------
      1          6           0       -0.670677    1.396648    0.018828
      2          6           0       -0.599386   -0.107854    0.015604
      3          7           0       -1.677308   -0.796850   -0.070526
      4          7           0        0.671620   -0.661753    0.168349
      5          7           0        1.817769    0.114500   -0.076600
      6          1           0       -0.185997    1.808296    0.908614
      7          1           0       -0.150257    1.817384   -0.846187
      8          1           0       -1.720617    1.686522   -0.004437
      9          1           0       -1.473166   -1.803079   -0.065834
     10          1           0        0.728669   -1.659795   -0.012823
     11          1           0        2.507272   -0.066137    0.647136
     12          1           0        2.229905   -0.107237   -0.981626
 ---------------------------------------------------------------------

 SCF Done:  E(RB3LYP) =  -244.648116565     A.U. after    1 cycles

 The electronic state is 1-A.
 Alpha  occ. eigenvalues --  -14.37343 -14.36514 -14.28257 -10.24712 -10.17027
 Alpha  occ. eigenvalues --   -0.99183  -0.88374  -0.77136  -0.71561  -0.56626
 Alpha  occ. eigenvalues --   -0.52833  -0.51231  -0.49790  -0.41160  -0.38195
 Alpha  occ. eigenvalues --   -0.37832  -0.32589  -0.27727  -0.24821  -0.22562
 Alpha virt. eigenvalues --    0.04465   0.06309   0.09140   0.13960   0.14348
 Alpha virt. eigenvalues --    0.15827   0.18867   0.19401   0.19867   0.26381
 Alpha virt. eigenvalues --    0.33673   0.43964   0.55029   0.56130   0.58091

 Mulliken charges:
               1
     1  C   -0.329268
     2  C    0.461104
     3  N   -0.566545
     4  N   -0.432096
     5  N   -0.454819
     6  H    0.123012
     7  H    0.121125
     8  H    0.131412
     9  H    0.190986
    10  H    0.237197
    11  H    0.263748
    12  H    0.254142
 Sum of Mulliken charges =   0.00000

 Dipole moment (field-independent basis, Debye):
    X=              4.0365    Y=             -1.2677    Z=             -0.4704  Tot=              4.2569
 Quadrupole moment (field-independent basis, Debye-Ang):
   XX=            -31.9810   YY=            -27.1733   ZZ=            -30.5419
   XY=             -3.6997   XZ=             -0.8980   YZ=              0.5811

  Exact polarizability:  55.016   4.622  45.333   0.662   0.411  28.387
 Approx polarizability:  80.487  10.869  60.341   2.587   0.665  40.362

                      1                      2                      3
                      A                      A                      A
 Frequencies --    122.8110               172.7662               275.7126
 Red. masses --      3.8478                 1.0672                 1.5923
 Frc consts  --      0.0342                 0.0188                 0.0713
 IR Inten    --      4.5537                 2.1105                46.0152

                      4                      5                      6
                      A                      A                      A
 Frequencies --    317.9431               487.2170               538.1349
 Red. masses --      1.6726                 2.7662                 1.5449
 Frc consts  --      0.0996                 0.3869                 0.2636
 IR Inten    --     39.3312                11.6217                34.4920

                      7                      8                      9
                      A                      A                      A
 Frequencies --    548.5165               600.2082               831.6818
 Red. masses --      2.2043                 2.0630                 2.7730
 Frc consts  --      0.3908                 0.4379                 1.1301
 IR Inten    --      4.7432                29.8190                17.0551

                     10                     11                     12
                      A                      A                      A
 Frequencies --    862.2331               888.4358              1043.2310
 Red. masses --      1.3864                 1.6379                 1.6333
 Frc consts  --      0.6073                 0.7617                 1.0473
 IR Inten    --     86.7555               113.9962                 0.9764

                     13                     14                     15
                      A                      A                      A
 Frequencies --   1076.6334              1115.4120              1216.9332
 Red. masses --      1.5167                 1.7463                 1.8740
 Frc consts  --      1.0358                 1.2801                 1.6351
 IR Inten    --      0.3668                47.2147                 7.3005

                     16                     17                     18
                      A                      A                      A
 Frequencies --   1313.7051              1390.7447              1439.4607
 Red. masses --      1.1573                 1.4572                 2.1550
 Frc consts  --      1.1768                 1.6606                 2.6308
 IR Inten    --      0.8960                79.0095               129.2554

                     19                     20                     21
                      A                      A                      A
 Frequencies --   1473.3984              1481.8004              1492.7031
 Red. masses --      1.3714                 1.0859                 1.0533
 Frc consts  --      1.7541                 1.4049                 1.3828
 IR Inten    --     19.5274                 0.3686                 7.2171

                     22                     23                     24
                      A                      A                      A
 Frequencies --   1696.1495              1729.5621              3067.4153
 Red. masses --      1.1806                 4.3313                 1.0368
 Frc consts  --      2.0011                 7.6337                 5.7475
 IR Inten    --     15.3703               163.0682                 9.5532

                     25                     26                     27
                      A                      A                      A
 Frequencies --   3127.9239              3177.7490              3407.1836
 Red. masses --      1.1000                 1.1034                 1.0740
 Frc consts  --      6.3408                 6.5646                 7.3460
 IR Inten    --     13.7449                 9.6431                24.7716

                     28                     29                     30
                      A                      A                      A
 Frequencies --   3458.4715              3514.0757              3561.2873
 Red. masses --      1.0484                 1.0758                 1.0954
 Frc consts  --      7.3880                 7.8274                 8.1851
 IR Inten    --      9.5681                 8.4384                 0.5149

 - Thermochemistry -
 -------------------
 Temperature   298.150 Kelvin.  Pressure   1.00000 Atm.
 Atom     1 has atomic number  6 and mass  12.00000

 Molecular mass:    73.06400 amu.
 Principal axes and moments of inertia in atomic units:
                           1         2         3
     Eigenvalues --   206.01344 436.90201 617.90756
           X            0.99930  -0.03725  -0.00462
           Y            0.03728   0.99929   0.00593
           Z            0.00440  -0.00610   0.99997
 This molecule is an asymmetric top.
 Rotational symmetry number  1.
 Rotational temperatures (Kelvin)      0.42043     0.19825     0.14017
 Rotational constants (GHZ):           8.76031     4.13077     2.92073
 Zero-point vibrational energy     271728.8 (Joules/Mol)
                                   64.94473 (Kcal/Mol)
 Warning -- explicit consideration of   8 degrees of freedom as
           vibrations may cause significant error
 Vibrational temperatures:    176.70   248.57   396.69   457.45   701.00
          (Kelvin)            774.26   789.19   863.56  1196.60  1240.56
                             1278.26  1500.97  1549.03  1604.83  1750.89
                             1890.13  2000.97  2071.06  2119.89  2131.98
                             2147.66  2440.38  2488.45  4413.32  4500.38
                             4572.07  4902.17  4975.96  5055.96  5123.89

 Zero-point correction=                           0.103496 (Hartree/Particle)
 Thermal correction to Energy=                    0.109587
 Thermal correction to Enthalpy=                  0.110531
 Thermal correction to Gibbs Free Energy=         0.074541
 Sum of electronic and zero-point Energies=           -244.544621
 Sum of electronic and thermal Energies=              -244.538530
 Sum of electronic and thermal Enthalpies=            -244.537586
 Sum of electronic and thermal Free Energies=         -244.573575

                     E (Thermal)             CV                S
                      KCal/Mol        Cal/Mol-Kelvin    Cal/Mol-Kelvin
 Total                   68.767             21.160             75.747
 Electronic               0.000              0.000              0.000
 Translational            0.889              2.981             38.783
 Rotational               0.889              2.981             25.523
 Vibrational             66.989             15.198             11.441
 Vibration     1          0.610              1.930              3.056
 Vibration     2          0.626              1.876              2.405
 Vibration     3          0.677              1.718              1.560
 Vibration     4          0.704              1.639              1.321
 Vibration     5          0.843              1.278              0.691
 Vibration     6          0.893              1.166              0.569
 Vibration     7          0.904              1.143              0.547
 Vibration     8          0.958              1.031              0.449

 Optimization completed.
    -- Stationary point found.
 Normal termination of Gaussian 09 at Sat Aug 21 01:40:08 2021.
