 Gaussian 09, Revision E.01,
 Gaussian 09:  ES64L-G09RevE.01 30-Nov-2015

 -------------------------
 #P OPT Freq B3LYP/6-31G**
 -------------------------

 --------
 Frag_250
 --------
 Symbolic Z-matrix:
 Charge =  0 Multiplicity = 1

 SCF Done:  E(RB3LYP) =  -242.221940946     A.U. after   14 cycles
 SCF Done:  E(RB3LYP) =  -242.226854835     A.U. after   13 cycles
 SCF Done:  E(RB3LYP) =  -242.228940810     A.U. after   12 cycles
 SCF Done:  E(RB3LYP) =  -242.229049204     A.U. after    9 cycles
 SCF Done:  E(RB3LYP) =  -242.229065470     A.U. after    9 cycles
 SCF Done:  E(RB3LYP) =  -242.229066950     A.U. after    8 cycles
 Optimization completed.
    -- Stationary point found.
 Normal termination of Gaussian 09 at Sat Aug 21 01:33:31 2021.

 ----------------------------------------------------------------------
 #P Geom=AllCheck Guess=TCheck SCRF=Check GenChk RB3LYP/6-31G(d,p) Freq
 ----------------------------------------------------------------------

 Structure from the checkpoint file:  "/public/home/users/caep010/.cache/gau_scr/Gau-99869.chk"
 --------
 Frag_250
 --------
 Charge =  0 Multiplicity = 1

                         Standard orientation:
 ---------------------------------------------------------------------
 Center     Atomic      Atomic             Coordinates (Angstroms)
 Number     Number       Type             X           Y           Z
 ---------------------------------------------------------------------
      1          6           0       -1.060294    0.456372   -0.000006
      2          6           0        0.137214    1.133613    0.000007
      3          7           0        1.061322    0.140882   -0.000006
      4          7           0        0.481266   -1.079925    0.000002
      5          7           0       -0.808116   -0.885755    0.000004
      6          1           0       -2.067451    0.844199   -0.000010
      7          1           0        0.396165    2.180383    0.000009
      8          1           0        2.068466    0.209093   -0.000006
 ---------------------------------------------------------------------

 SCF Done:  E(RB3LYP) =  -242.229066950     A.U. after    1 cycles

 The electronic state is 1-A.
 Alpha  occ. eigenvalues --  -14.42846 -14.39049 -14.35254 -10.24119 -10.21417
 Alpha  occ. eigenvalues --   -1.09462  -0.90257  -0.80488  -0.64899  -0.62307
 Alpha  occ. eigenvalues --   -0.56674  -0.46500  -0.46395  -0.44908  -0.33060
 Alpha  occ. eigenvalues --   -0.30353  -0.26835  -0.26492
 Alpha virt. eigenvalues --   -0.00400   0.04942   0.06727   0.12018   0.14985
 Alpha virt. eigenvalues --    0.20408   0.21810   0.27192   0.38886   0.43197
 Alpha virt. eigenvalues --    0.52616   0.53325   0.53581   0.59563   0.61023

 Mulliken charges:
               1
     1  C    0.041579
     2  C    0.081460
     3  N   -0.308731
     4  N   -0.077913
     5  N   -0.271627
     6  H    0.113802
     7  H    0.132175
     8  H    0.289257
 Sum of Mulliken charges =   0.00000

 Dipole moment (field-independent basis, Debye):
    X=              2.0642    Y=              3.8774    Z=             -0.0000  Tot=              4.3926
 Quadrupole moment (field-independent basis, Debye-Ang):
   XX=            -22.7442   YY=            -29.9438   ZZ=            -29.6512
   XY=             -0.1975   XZ=              0.0000   YZ=              0.0000

  Exact polarizability:  43.626   0.165  41.751   0.000   0.000  16.477
 Approx polarizability:  75.493   1.566  75.201   0.000   0.000  24.974

                      1                      2                      3
                      A                      A                      A
 Frequencies --    570.3631               661.0037               727.8561
 Red. masses --      1.9115                 2.2095                 4.0720
 Frc consts  --      0.3664                 0.5688                 1.2710
 IR Inten    --     59.4544                26.5874                10.4569

                      4                      5                      6
                      A                      A                      A
 Frequencies --    774.2323               861.1862               952.1570
 Red. masses --      1.2094                 1.2869                 5.1267
 Frc consts  --      0.4271                 0.5623                 2.7385
 IR Inten    --     41.1676                 6.1810                 2.9463

                      7                      8                      9
                      A                      A                      A
 Frequencies --    974.1920              1039.6679              1110.9909
 Red. masses --      3.1006                 4.2725                 1.4822
 Frc consts  --      1.7338                 2.7209                 1.0779
 IR Inten    --      1.5024                29.1229                32.8341

                     10                     11                     12
                      A                      A                      A
 Frequencies --   1133.6231              1185.9244              1295.5361
 Red. masses --      1.6915                 4.2908                 8.3532
 Frc consts  --      1.2808                 3.5555                 8.2604
 IR Inten    --      0.6538                 9.4343                15.9805

                     13                     14                     15
                      A                      A                      A
 Frequencies --   1387.1002              1469.0745              1553.2833
 Red. masses --      1.8817                 3.4022                 2.9677
 Frc consts  --      2.1332                 4.3261                 4.2187
 IR Inten    --      2.1200                 0.0410                 7.8180

                     16                     17                     18
                      A                      A                      A
 Frequencies --   3282.3149              3304.0432              3663.9531
 Red. masses --      1.0923                 1.1066                 1.0827
 Frc consts  --      6.9338                 7.1173                 8.5634
 IR Inten    --      1.0543                 0.2640                72.1654

 - Thermochemistry -
 -------------------
 Temperature   298.150 Kelvin.  Pressure   1.00000 Atm.
 Atom     1 has atomic number  6 and mass  12.00000

 Molecular mass:    69.03270 amu.
 Principal axes and moments of inertia in atomic units:
                           1         2         3
     Eigenvalues --   179.76013 182.96329 362.72341
           X            0.59319   0.80507   0.00000
           Y            0.80507  -0.59319   0.00000
           Z           -0.00000  -0.00000   1.00000
 This molecule is an asymmetric top.
 Rotational symmetry number  1.
 Rotational temperatures (Kelvin)      0.48183     0.47339     0.23879
 Rotational constants (GHZ):          10.03972     9.86395     4.97553
 Zero-point vibrational energy     155194.5 (Joules/Mol)
                                   37.09239 (Kcal/Mol)
 Warning -- explicit consideration of   1 degrees of freedom as
           vibrations may cause significant error
 Vibrational temperatures:    820.62   951.04  1047.22  1113.95  1239.05
          (Kelvin)           1369.94  1401.64  1495.85  1598.47  1631.03
                             1706.28  1863.99  1995.73  2113.67  2234.83
                             4722.51  4753.78  5271.60

 Zero-point correction=                           0.059110 (Hartree/Particle)
 Thermal correction to Energy=                    0.062709
 Thermal correction to Enthalpy=                  0.063653
 Thermal correction to Gibbs Free Energy=         0.032932
 Sum of electronic and zero-point Energies=           -242.169956
 Sum of electronic and thermal Energies=              -242.166358
 Sum of electronic and thermal Enthalpies=            -242.165414
 Sum of electronic and thermal Free Energies=         -242.196135

                     E (Thermal)             CV                S
                      KCal/Mol        Cal/Mol-Kelvin    Cal/Mol-Kelvin
 Total                   39.350             12.307             64.657
 Electronic               0.000              0.000              0.000
 Translational            0.889              2.981             38.613
 Rotational               0.889              2.981             23.993
 Vibrational             37.573              6.346              2.051
 Vibration     1          0.926              1.095              0.504

 Optimization completed.
    -- Stationary point found.
 Normal termination of Gaussian 09 at Sat Aug 21 01:33:38 2021.
