 Gaussian 09, Revision E.01,
 Gaussian 09:  ES64L-G09RevE.01 30-Nov-2015

 --------------------------------
 #P OPT=calcfc Freq B3LYP/6-31G**
 --------------------------------

 --------
 Frag_160
 --------
 Symbolic Z-matrix:
 Charge =  0 Multiplicity = 1

 SCF Done:  E(RB3LYP) =  -284.426603116     A.U. after   14 cycles
 SCF Done:  E(RB3LYP) =  -284.447666539     A.U. after   13 cycles
 SCF Done:  E(RB3LYP) =  -284.447820095     A.U. after   13 cycles
 SCF Done:  E(RB3LYP) =  -284.447947371     A.U. after   13 cycles
 SCF Done:  E(RB3LYP) =  -284.369584260     A.U. after   14 cycles
 SCF Done:  E(RB3LYP) =  -284.385538311     A.U. after   12 cycles
 SCF Done:  E(RB3LYP) =  -284.400076587     A.U. after   12 cycles
 SCF Done:  E(RB3LYP) =  -284.413082633     A.U. after   11 cycles
 SCF Done:  E(RB3LYP) =  -284.424417440     A.U. after   11 cycles
 SCF Done:  E(RB3LYP) =  -284.433918953     A.U. after   11 cycles
 SCF Done:  E(RB3LYP) =  -284.441404876     A.U. after   11 cycles
 SCF Done:  E(RB3LYP) =  -284.446350912     A.U. after   11 cycles
 SCF Done:  E(RB3LYP) =  -284.447933249     A.U. after   11 cycles
 SCF Done:  E(RB3LYP) =  -284.447971152     A.U. after    8 cycles
 SCF Done:  E(RB3LYP) =  -284.448141038     A.U. after   11 cycles
 SCF Done:  E(RB3LYP) =  -284.448174228     A.U. after   11 cycles
 SCF Done:  E(RB3LYP) =  -284.448182773     A.U. after   10 cycles
 SCF Done:  E(RB3LYP) =  -284.448186603     A.U. after    9 cycles
 SCF Done:  E(RB3LYP) =  -284.448186653     A.U. after    7 cycles
 Optimization completed.
    -- Stationary point found.
 Normal termination of Gaussian 09 at Sat Aug 21 02:19:25 2021.

 ----------------------------------------------------------------------
 #P Geom=AllCheck Guess=TCheck SCRF=Check GenChk RB3LYP/6-31G(d,p) Freq
 ----------------------------------------------------------------------

 Structure from the checkpoint file:  "/public/home/users/caep010/.cache/gau_scr/Gau-209130.chk"
 --------
 Frag_160
 --------
 Charge =  0 Multiplicity = 1

                         Standard orientation:
 ---------------------------------------------------------------------
 Center     Atomic      Atomic             Coordinates (Angstroms)
 Number     Number       Type             X           Y           Z
 ---------------------------------------------------------------------
      1          6           0       -1.842325   -0.092583    0.000677
      2          8           0       -0.555287   -0.723671    0.002982
      3          6           0        0.495696    0.140185   -0.001976
      4          7           0        1.671829   -0.555719   -0.051143
      5          8           0        0.393867    1.351159    0.005926
      6          1           0       -1.968094    0.539418    0.883405
      7          1           0       -2.567466   -0.906649    0.009385
      8          1           0       -1.971847    0.522945   -0.893057
      9          1           0        2.508796   -0.029616    0.138735
     10          1           0        1.666943   -1.541588    0.156065
 ---------------------------------------------------------------------

 SCF Done:  E(RB3LYP) =  -284.448186653     A.U. after    1 cycles

 The electronic state is 1-A.
 Alpha  occ. eigenvalues --  -19.18356 -19.11411 -14.35653 -10.32930 -10.23608
 Alpha  occ. eigenvalues --   -1.09710  -1.00343  -0.90791  -0.71777  -0.59060
 Alpha  occ. eigenvalues --   -0.54847  -0.51080  -0.47599  -0.44455  -0.42097
 Alpha  occ. eigenvalues --   -0.40108  -0.35671  -0.29316  -0.27429  -0.26732
 Alpha virt. eigenvalues --    0.05554   0.08195   0.12048   0.12759   0.15288
 Alpha virt. eigenvalues --    0.16235   0.17872   0.25712   0.34664   0.37010
 Alpha virt. eigenvalues --    0.51459   0.52794   0.56002   0.58282   0.59229

 Mulliken charges:
               1
     1  C   -0.073270
     2  O   -0.480554
     3  C    0.751289
     4  N   -0.625247
     5  O   -0.506763
     6  H    0.127862
     7  H    0.115463
     8  H    0.129306
     9  H    0.282916
    10  H    0.278998
 Sum of Mulliken charges =  -0.00000

 Dipole moment (field-independent basis, Debye):
    X=              0.3516    Y=             -2.2441    Z=              0.6278  Tot=              2.3566
 Quadrupole moment (field-independent basis, Debye-Ang):
   XX=            -20.1549   YY=            -32.0895   ZZ=            -29.4869
   XY=             -2.5236   XZ=              1.4715   YZ=             -0.6183

  Exact polarizability:  42.904  -1.331  35.333   0.148  -0.053  21.815
 Approx polarizability:  50.922  -2.262  57.403  -0.255   0.290  29.579

                      1                      2                      3
                      A                      A                      A
 Frequencies --    105.0554               166.7640               292.1799
 Red. masses --      1.1485                 3.0102                 3.3564
 Frc consts  --      0.0075                 0.0493                 0.1688
 IR Inten    --      1.5979                 8.9280                16.4389

                      4                      5                      6
                      A                      A                      A
 Frequencies --    323.9385               468.1874               520.6176
 Red. masses --      1.2251                 2.0956                 1.2597
 Frc consts  --      0.0757                 0.2706                 0.2012
 IR Inten    --    276.6624                 5.8417                11.3101

                      7                      8                      9
                      A                      A                      A
 Frequencies --    667.5911               770.9936               879.1627
 Red. masses --      5.0018                10.6464                 3.4263
 Frc consts  --      1.3134                 3.7287                 1.5603
 IR Inten    --      2.8950                28.0853                23.0767

                     10                     11                     12
                      A                      A                      A
 Frequencies --   1096.3980              1130.0673              1182.9672
 Red. masses --      2.7451                 3.0156                 1.2683
 Frc consts  --      1.9442                 2.2690                 1.0457
 IR Inten    --     12.7732                99.1749                 0.8272

                     13                     14                     15
                      A                      A                      A
 Frequencies --   1217.8383              1374.0743              1488.1747
 Red. masses --      1.5345                 2.9701                 1.2377
 Frc consts  --      1.3409                 3.3041                 1.6150
 IR Inten    --     18.3350               366.7818                31.0578

                     16                     17                     18
                      A                      A                      A
 Frequencies --   1495.8403              1515.7268              1620.8026
 Red. masses --      1.0472                 1.0566                 1.2611
 Frc consts  --      1.3805                 1.4302                 1.9519
 IR Inten    --      5.0093                 6.5462               145.4260

                     19                     20                     21
                      A                      A                      A
 Frequencies --   1845.5430              3062.2563              3138.4769
 Red. masses --      9.7724                 1.0299                 1.1071
 Frc consts  --     19.6109                 5.6901                 6.4249
 IR Inten    --    356.3647                32.7617                24.7782

                     22                     23                     24
                      A                      A                      A
 Frequencies --   3168.0734              3620.5446              3756.6281
 Red. masses --      1.1068                 1.0454                 1.1045
 Frc consts  --      6.5449                 8.0740                 9.1839
 IR Inten    --     19.4962                43.6674                49.4825

 - Thermochemistry -
 -------------------
 Temperature   298.150 Kelvin.  Pressure   1.00000 Atm.
 Atom     1 has atomic number  6 and mass  12.00000

 Molecular mass:    75.03203 amu.
 Principal axes and moments of inertia in atomic units:
                           1         2         3
     Eigenvalues --   169.96320 412.52222 570.58720
           X            0.99939  -0.03441   0.00541
           Y            0.03444   0.99939  -0.00586
           Z           -0.00521   0.00605   0.99997
 This molecule is an asymmetric top.
 Rotational symmetry number  1.
 Rotational temperatures (Kelvin)      0.50960     0.20996     0.15180
 Rotational constants (GHZ):          10.61842     4.37489     3.16295
 Zero-point vibrational energy     208795.6 (Joules/Mol)
                                   49.90335 (Kcal/Mol)
 Warning -- explicit consideration of   6 degrees of freedom as
           vibrations may cause significant error
 Vibrational temperatures:    151.15   239.94   420.38   466.07   673.62
          (Kelvin)            749.05   960.51  1109.29  1264.92  1577.47
                             1625.91  1702.02  1752.20  1976.98  2141.15
                             2152.18  2180.79  2331.97  2655.32  4405.90
                             4515.56  4558.15  5209.15  5404.94

 Zero-point correction=                           0.079526 (Hartree/Particle)
 Thermal correction to Energy=                    0.085358
 Thermal correction to Enthalpy=                  0.086302
 Thermal correction to Gibbs Free Energy=         0.050673
 Sum of electronic and zero-point Energies=           -284.368661
 Sum of electronic and thermal Energies=              -284.362829
 Sum of electronic and thermal Enthalpies=            -284.361885
 Sum of electronic and thermal Free Energies=         -284.397514

                     E (Thermal)             CV                S
                      KCal/Mol        Cal/Mol-Kelvin    Cal/Mol-Kelvin
 Total                   53.563             19.112             74.987
 Electronic               0.000              0.000              0.000
 Translational            0.889              2.981             38.862
 Rotational               0.889              2.981             25.195
 Vibrational             51.785             13.150             10.930
 Vibration     1          0.605              1.945              3.358
 Vibration     2          0.624              1.883              2.472
 Vibration     3          0.688              1.688              1.461
 Vibration     4          0.708              1.628              1.290
 Vibration     5          0.825              1.321              0.743
 Vibration     6          0.876              1.204              0.609

 Optimization completed.
    -- Stationary point found.
 Normal termination of Gaussian 09 at Sat Aug 21 02:19:34 2021.
