 Gaussian 09, Revision E.01,
 Gaussian 09:  ES64L-G09RevE.01 30-Nov-2015

 ----------------------------
 #P OPT Freq B3LYP/6-31G(d,p)
 ----------------------------

 --------
 Frag_951
 --------
 Symbolic Z-matrix:
 Charge =  0 Multiplicity = 1

 SCF Done:  E(RB3LYP) =  -268.361700909     A.U. after   13 cycles
 SCF Done:  E(RB3LYP) =  -268.361773911     A.U. after    9 cycles
 SCF Done:  E(RB3LYP) =  -268.361776941     A.U. after    8 cycles
 Optimization completed.
    -- Stationary point found.
 Normal termination of Gaussian 09 at Thu Sep  8 14:57:54 2022.

 ----------------------------------------------------------------------
 #P Geom=AllCheck Guess=TCheck SCRF=Check GenChk RB3LYP/6-31G(d,p) Freq
 ----------------------------------------------------------------------

 Structure from the checkpoint file:  "B3LYP6-31Gdp.Frag_951.chk"
 --------
 Frag_951
 --------
 Charge =  0 Multiplicity = 1

                         Standard orientation:
 ---------------------------------------------------------------------
 Center     Atomic      Atomic             Coordinates (Angstroms)
 Number     Number       Type             X           Y           Z
 ---------------------------------------------------------------------
      1          6           0        2.039865    0.034068   -0.000029
      2          6           0        0.713862   -0.670519    0.000022
      3          6           0       -0.469416   -0.044716    0.000016
      4          8           0       -1.701004   -0.643606    0.000010
      5          8           0       -0.606406    1.304311    0.000058
      6          1           0        1.905965    1.118352   -0.000266
      7          1           0        2.639599   -0.227858   -0.881490
      8          1           0        2.639484   -0.227478    0.881623
      9          1           0        0.705169   -1.757658    0.000116
     10          1           0       -1.582924   -1.602421   -0.000194
     11          1           0       -1.553873    1.498419   -0.000382
 ---------------------------------------------------------------------

 SCF Done:  E(RB3LYP) =  -268.361776941     A.U. after    1 cycles

 The electronic state is 1-A.
 Alpha  occ. eigenvalues --  -19.18671 -19.17693 -10.28838 -10.16932 -10.16105
 Alpha  occ. eigenvalues --   -1.09869  -1.02560  -0.76626  -0.66842  -0.59903
 Alpha  occ. eigenvalues --   -0.56435  -0.46159  -0.43159  -0.42467  -0.38825
 Alpha  occ. eigenvalues --   -0.38710  -0.36355  -0.35181  -0.32759  -0.19718
 Alpha virt. eigenvalues --    0.06068   0.07193   0.09287   0.13545   0.15978
 Alpha virt. eigenvalues --    0.18934   0.19288   0.22736   0.25275   0.34969
 Alpha virt. eigenvalues --    0.42143   0.54203   0.55588   0.57531   0.58514

 Mulliken charges:
               1
     1  C   -0.344587
     2  C   -0.164549
     3  C    0.539123
     4  O   -0.548505
     5  O   -0.528002
     6  H    0.125267
     7  H    0.105062
     8  H    0.105070
     9  H    0.056280
    10  H    0.326340
    11  H    0.328501
 Sum of Mulliken charges =  -0.00000

 Dipole moment (field-independent basis, Debye):
    X=             -1.1811    Y=             -1.1974    Z=             -0.0011  Tot=              1.6819
 Quadrupole moment (field-independent basis, Debye-Ang):
   XX=            -28.0429   YY=            -25.7225   ZZ=            -31.5661
   XY=             -0.4652   XZ=              0.0020   YZ=             -0.0008

  Exact polarizability:  53.840  -4.102  40.395   0.001  -0.000  23.225
 Approx polarizability:  75.178 -10.477  58.337   0.002   0.000  31.886

                      1                      2                      3
                      A                      A                      A
 Frequencies --     26.5656               153.9550               249.7589
 Red. masses --      1.1645                 1.1114                 3.4293
 Frc consts  --      0.0005                 0.0155                 0.1260
 IR Inten    --    119.9532                58.3429                 3.4749

                      4                      5                      6
                      A                      A                      A
 Frequencies --    267.2721               353.1249               494.1175
 Red. masses --      2.3946                 1.1308                 3.6821
 Frc consts  --      0.1008                 0.0831                 0.5297
 IR Inten    --     24.9463                18.7332                14.9236

                      7                      8                      9
                      A                      A                      A
 Frequencies --    578.7582               634.9694               740.2608
 Red. masses --      3.8625                 5.5861                 1.2163
 Frc consts  --      0.7623                 1.3270                 0.3927
 IR Inten    --      8.9931                 0.0601                65.4740

                     10                     11                     12
                      A                      A                      A
 Frequencies --    872.2432              1027.2226              1065.8101
 Red. masses --      3.0102                 1.8883                 1.3687
 Frc consts  --      1.3494                 1.1740                 0.9161
 IR Inten    --     11.7875               113.6803                 0.0531

                     13                     14                     15
                      A                      A                      A
 Frequencies --   1121.0149              1191.6189              1214.8549
 Red. masses --      2.5483                 1.6286                 1.2141
 Frc consts  --      1.8868                 1.3625                 1.0557
 IR Inten    --      1.3340               167.4350                40.2143

                     16                     17                     18
                      A                      A                      A
 Frequencies --   1343.9519              1417.4494              1463.1967
 Red. masses --      1.6746                 1.3826                 1.8954
 Frc consts  --      1.7821                 1.6367                 2.3908
 IR Inten    --    161.0324                50.0213                54.0905

                     19                     20                     21
                      A                      A                      A
 Frequencies --   1503.3984              1515.6216              1808.4532
 Red. masses --      1.0441                 1.0603                 6.4755
 Frc consts  --      1.3903                 1.4351                12.4778
 IR Inten    --      4.7721                 7.6718               251.8663

                     22                     23                     24
                      A                      A                      A
 Frequencies --   3021.7619              3062.9338              3133.0493
 Red. masses --      1.0401                 1.1013                 1.0961
 Frc consts  --      5.5957                 6.0872                 6.3395
 IR Inten    --     55.6479                38.7085                 9.8838

                     25                     26                     27
                      A                      A                      A
 Frequencies --   3171.9415              3821.3268              3836.5627
 Red. masses --      1.0896                 1.0657                 1.0653
 Frc consts  --      6.4590                 9.1687                 9.2383
 IR Inten    --     25.4091                87.1207                43.1716

 - Thermochemistry -
 -------------------
 Temperature   298.150 Kelvin.  Pressure   1.00000 Atm.
 Atom     1 has atomic number  6 and mass  12.00000

 Molecular mass:    74.03678 amu.
 Principal axes and moments of inertia in atomic units:
                           1         2         3
     Eigenvalues --   179.07425 483.11469 651.00118
           X            1.00000  -0.00205   0.00001
           Y            0.00205   1.00000  -0.00001
           Z           -0.00001   0.00001   1.00000
 This molecule is an asymmetric top.
 Rotational symmetry number  1.
 Rotational temperatures (Kelvin)      0.48368     0.17928     0.13305
 Rotational constants (GHZ):          10.07817     3.73564     2.77225
 Zero-point vibrational energy     233817.3 (Joules/Mol)
                                   55.88367 (Kcal/Mol)
 Warning -- explicit consideration of   7 degrees of freedom as
           vibrations may cause significant error
 Vibrational temperatures:     38.22   221.51   359.35   384.54   508.07
          (Kelvin)            710.92   832.70   913.58  1065.07  1254.96
                             1477.94  1533.46  1612.89  1714.47  1747.90
                             1933.64  2039.39  2105.21  2163.05  2180.64
                             2601.96  4347.64  4406.87  4507.75  4563.71
                             5498.03  5519.95

 Zero-point correction=                           0.089056 (Hartree/Particle)
 Thermal correction to Energy=                    0.095568
 Thermal correction to Enthalpy=                  0.096512
 Thermal correction to Gibbs Free Energy=         0.058552
 Sum of electronic and zero-point Energies=           -268.272721
 Sum of electronic and thermal Energies=              -268.266209
 Sum of electronic and thermal Enthalpies=            -268.265265
 Sum of electronic and thermal Free Energies=         -268.303225

                     E (Thermal)             CV                S
                      KCal/Mol        Cal/Mol-Kelvin    Cal/Mol-Kelvin
 Total                   59.970             21.312             79.894
 Electronic               0.000              0.000              0.000
 Translational            0.889              2.981             38.822
 Rotational               0.889              2.981             25.535
 Vibrational             58.192             15.350             15.537
 Vibration     1          0.593              1.984              6.071
 Vibration     2          0.619              1.898              2.623
 Vibration     3          0.663              1.763              1.732
 Vibration     4          0.672              1.733              1.614
 Vibration     5          0.729              1.569              1.152
 Vibration     6          0.850              1.263              0.673
 Vibration     7          0.935              1.077              0.488

 Optimization completed.
    -- Stationary point found.
 Normal termination of Gaussian 09 at Thu Sep  8 14:58:02 2022.
