 Gaussian 09, Revision D.01,
 Gaussian 09:  ES64L-G09RevD.01 24-Apr-2013

 -------------------------
 #P OPT Freq B3LYP/6-31G**
 -------------------------

 ------
 Frag_8
 ------
 Symbolic Z-matrix:
 Charge =  0 Multiplicity = 1

 SCF Done:  E(RB3LYP) =  -133.954296109     A.U. after   13 cycles
 Optimization completed.
    -- Stationary point found.
 Normal termination of Gaussian 09 at Fri Jul 23 06:21:03 2021.

 ----------------------------------------------------------------------
 #P Geom=AllCheck Guess=TCheck SCRF=Check GenChk RB3LYP/6-31G(d,p) Freq
 ----------------------------------------------------------------------

 Structure from the checkpoint file:  "/vol2/users/liuj201281/HOFBenchmark/IsodesmicSplit/Sample60/Ring26/Running/Gau-32143.chk"
 ------
 Frag_8
 ------
 Charge =  0 Multiplicity = 1

                         Standard orientation:
 ---------------------------------------------------------------------
 Center     Atomic      Atomic             Coordinates (Angstroms)
 Number     Number       Type             X           Y           Z
 ---------------------------------------------------------------------
      1          6           0        1.251978   -0.196618    0.017883
      2          6           0        0.068695    0.429215   -0.001917
      3          7           0       -1.189521   -0.167451   -0.089817
      4          1           0        1.331448   -1.280420    0.027383
      5          1           0        2.173893    0.370857   -0.001417
      6          1           0        0.027725    1.516916   -0.015417
      7          1           0       -1.202048   -1.156150    0.128383
      8          1           0       -1.928408    0.325369    0.393983
 ---------------------------------------------------------------------

 SCF Done:  E(RB3LYP) =  -133.954296109     A.U. after    1 cycles

 The electronic state is 1-A.
 Alpha  occ. eigenvalues --  -14.33566 -10.21123 -10.15311  -0.90081  -0.72045
 Alpha  occ. eigenvalues --   -0.57549  -0.51260  -0.45728  -0.40272  -0.35916
 Alpha  occ. eigenvalues --   -0.32923  -0.20050
 Alpha virt. eigenvalues --    0.05080   0.08509   0.12157   0.15052   0.17799
 Alpha virt. eigenvalues --    0.20231   0.32401   0.37037   0.50367   0.56310
 Alpha virt. eigenvalues --    0.57328   0.63988   0.65285   0.69536   0.71384

 Mulliken charges:
               1
     1  C   -0.281907
     2  C    0.112461
     3  N   -0.596694
     4  H    0.074047
     5  H    0.089506
     6  H    0.092620
     7  H    0.253861
     8  H    0.256107
 Sum of Mulliken charges =   0.00000

 Dipole moment (field-independent basis, Debye):
    X=             -1.1944    Y=             -0.0549    Z=              1.0783  Tot=              1.6100
 Quadrupole moment (field-independent basis, Debye-Ang):
   XX=            -17.1379   YY=            -16.2381   ZZ=            -21.6968
   XY=              0.2869   XZ=             -2.1682   YZ=             -0.1229

  Exact polarizability:  42.956  -3.088  28.866  -0.477   0.035  12.803
 Approx polarizability:  64.242  -7.918  39.262   0.706   0.037  17.356

                      1                      2                      3
                      A                      A                      A
 Frequencies --    355.4027               470.1444               615.7630
 Red. masses --      1.0907                 1.9509                 1.1389
 Frc consts  --      0.0812                 0.2541                 0.2544
 IR Inten    --     54.2092                 3.6884               254.4399

                      4                      5                      6
                      A                      A                      A
 Frequencies --    722.8618               811.0317               964.5411
 Red. masses --      1.6887                 1.4243                 1.3556
 Frc consts  --      0.5199                 0.5520                 0.7430
 IR Inten    --     49.5137                63.0352                 2.3633

                      7                      8                      9
                      A                      A                      A
 Frequencies --   1007.9563              1082.5657              1294.3666
 Red. masses --      1.1455                 1.6681                 2.0694
 Frc consts  --      0.6857                 1.1518                 2.0427
 IR Inten    --     19.6569                11.8300                32.1470

                     10                     11                     12
                      A                      A                      A
 Frequencies --   1344.0100              1463.0245              1657.2497
 Red. masses --      1.1872                 1.1758                 1.1586
 Frc consts  --      1.2635                 1.4828                 1.8748
 IR Inten    --      8.0593                 1.7727                25.3680

                     13                     14                     15
                      A                      A                      A
 Frequencies --   1736.5478              3160.9756              3169.8923
 Red. masses --      3.9176                 1.0606                 1.0926
 Frc consts  --      6.9606                 6.2437                 6.4682
 IR Inten    --    130.9245                14.2003                 7.5137

                     16                     17                     18
                      A                      A                      A
 Frequencies --   3259.1652              3552.9432              3659.7710
 Red. masses --      1.1136                 1.0475                 1.0979
 Frc consts  --      6.9693                 7.7909                 8.6642
 IR Inten    --     15.1801                 5.9753                 6.7935

 - Thermochemistry -
 -------------------
 Temperature   298.150 Kelvin.  Pressure   1.00000 Atm.
 Atom     1 has atomic number  6 and mass  12.00000

 Molecular mass:    43.04220 amu.
 Principal axes and moments of inertia in atomic units:
                           1         2         3
     Eigenvalues --    31.77880 181.10360 210.96450
           X            0.99985  -0.00250  -0.01733
           Y            0.00233   0.99995  -0.00954
           Z            0.01735   0.00949   0.99980
 This molecule is an asymmetric top.
 Rotational symmetry number  1.
 Rotational temperatures (Kelvin)      2.72552     0.47826     0.41056
 Rotational constants (GHZ):          56.79073     9.96524     8.55472
 Zero-point vibrational energy     181403.0 (Joules/Mol)
                                   43.35636 (Kcal/Mol)
 Warning -- explicit consideration of   3 degrees of freedom as
           vibrations may cause significant error
 Vibrational temperatures:    511.34   676.43   885.94  1040.04  1166.89
          (Kelvin)           1387.76  1450.22  1557.57  1862.30  1933.73
                             2104.96  2384.41  2498.50  4547.93  4560.76
                             4689.21  5111.89  5265.59

 Zero-point correction=                           0.069093 (Hartree/Particle)
 Thermal correction to Energy=                    0.072994
 Thermal correction to Enthalpy=                  0.073938
 Thermal correction to Gibbs Free Energy=         0.044456
 Sum of electronic and zero-point Energies=           -133.885203
 Sum of electronic and thermal Energies=              -133.881302
 Sum of electronic and thermal Enthalpies=            -133.880358
 Sum of electronic and thermal Free Energies=         -133.909840

                     E (Thermal)             CV                S
                      KCal/Mol        Cal/Mol-Kelvin    Cal/Mol-Kelvin
 Total                   45.804             12.780             62.050
 Electronic               0.000              0.000              0.000
 Translational            0.889              2.981             37.205
 Rotational               0.889              2.981             21.723
 Vibrational             44.027              6.818              3.121
 Vibration     1          0.731              1.564              1.142
 Vibration     2          0.827              1.316              0.737
 Vibration     3          0.975              0.999              0.423

 Optimization completed.
    -- Stationary point found.
 Normal termination of Gaussian 09 at Fri Jul 23 06:21:11 2021.
