 Gaussian 09, Revision E.01,
 Gaussian 09:  ES64L-G09RevE.01 30-Nov-2015

 ----------------------------
 #P OPT Freq B3LYP/6-31G(d,p)
 ----------------------------

 --------
 Frag_508
 --------
 Symbolic Z-matrix:
 Charge =  0 Multiplicity = 1

 SCF Done:  E(RB3LYP) =  -311.112113796     A.U. after   14 cycles
 SCF Done:  E(RB3LYP) =  -311.112190182     A.U. after   11 cycles
 SCF Done:  E(RB3LYP) =  -311.111952668     A.U. after   12 cycles
 SCF Done:  E(RB3LYP) =  -311.112198724     A.U. after   11 cycles
 SCF Done:  E(RB3LYP) =  -311.112199958     A.U. after    8 cycles
 SCF Done:  E(RB3LYP) =  -311.112199938     A.U. after    7 cycles
 Optimization completed.
    -- Stationary point found.
 Normal termination of Gaussian 09 at Thu Sep  8 15:10:26 2022.

 ----------------------------------------------------------------------
 #P Geom=AllCheck Guess=TCheck SCRF=Check GenChk RB3LYP/6-31G(d,p) Freq
 ----------------------------------------------------------------------

 Structure from the checkpoint file:  "B3LYP6-31Gdp.Frag_508.chk"
 --------
 Frag_508
 --------
 Charge =  0 Multiplicity = 1

                         Standard orientation:
 ---------------------------------------------------------------------
 Center     Atomic      Atomic             Coordinates (Angstroms)
 Number     Number       Type             X           Y           Z
 ---------------------------------------------------------------------
      1          6           0        1.948816   -0.795221   -0.009841
      2          6           0        0.909418    0.317498   -0.021838
      3          8           0        1.262705    1.482387   -0.031221
      4          6           0       -0.587651   -0.065162   -0.007992
      5          6           0       -0.942125   -0.504333    1.434096
      6          6           0       -0.869870   -1.225030   -0.985447
      7          6           0       -1.428798    1.162411   -0.390993
      8          1           0        2.023009   -1.240510   -1.008829
      9          1           0        2.918033   -0.369845    0.253774
     10          1           0        1.693240   -1.602455    0.682676
     11          1           0       -0.747906    0.300935    2.149539
     12          1           0       -2.005932   -0.758571    1.492383
     13          1           0       -0.374082   -1.385607    1.748682
     14          1           0       -0.327949   -2.136428   -0.715643
     15          1           0       -1.938612   -1.464124   -0.978470
     16          1           0       -0.597825   -0.958134   -2.012532
     17          1           0       -2.495453    0.921218   -0.334518
     18          1           0       -1.204959    1.491067   -1.410360
     19          1           0       -1.221947    2.002380    0.275152
 ---------------------------------------------------------------------

 SCF Done:  E(RB3LYP) =  -311.112199938     A.U. after    1 cycles

 The electronic state is 1-A.
 Alpha  occ. eigenvalues --  -19.13339 -10.26986 -10.20583 -10.18804 -10.18533
 Alpha  occ. eigenvalues --  -10.18443 -10.16992  -1.03359  -0.81975  -0.73689
 Alpha  occ. eigenvalues --   -0.69339  -0.68281  -0.60562  -0.50186  -0.47544
 Alpha  occ. eigenvalues --   -0.45289  -0.44905  -0.42786  -0.41758  -0.40438
 Alpha  occ. eigenvalues --   -0.38817  -0.38461  -0.36882  -0.35396  -0.35041
 Alpha  occ. eigenvalues --   -0.33134  -0.32817  -0.23749
 Alpha virt. eigenvalues --   -0.00975   0.07133   0.11824   0.12825   0.13322
 Alpha virt. eigenvalues --    0.14841   0.15345   0.15909   0.17185   0.18984
 Alpha virt. eigenvalues --    0.19268   0.20712   0.21102   0.22264   0.22972

 Mulliken charges:
               1
     1  C   -0.392418
     2  C    0.442266
     3  O   -0.445123
     4  C   -0.040749
     5  C   -0.310690
     6  C   -0.314289
     7  C   -0.288598
     8  H    0.135306
     9  H    0.136088
    10  H    0.120228
    11  H    0.116986
    12  H    0.110031
    13  H    0.100023
    14  H    0.101502
    15  H    0.108028
    16  H    0.107598
    17  H    0.088628
    18  H    0.104579
    19  H    0.120604
 Sum of Mulliken charges =  -0.00000

 Dipole moment (field-independent basis, Debye):
    X=             -0.8633    Y=             -2.5346    Z=              0.0498  Tot=              2.6780
 Quadrupole moment (field-independent basis, Debye-Ang):
   XX=            -44.7027   YY=            -48.2590   ZZ=            -43.5355
   XY=             -3.6242   XZ=             -0.2205   YZ=              0.2134

  Exact polarizability:  69.471  -0.298  67.653  -0.162  -0.020  58.997
 Approx polarizability:  90.872   4.820 102.573  -0.671  -0.424  82.282

                      1                      2                      3
                      A                      A                      A
 Frequencies --     47.4399               145.8273               199.4354
 Red. masses --      3.9582                 1.0279                 1.1393
 Frc consts  --      0.0052                 0.0129                 0.0267
 IR Inten    --      2.7967                 0.1659                 0.0951

                      4                      5                      6
                      A                      A                      A
 Frequencies --    224.3343               261.2837               263.9113
 Red. masses --      1.5536                 1.1098                 1.9500
 Frc consts  --      0.0461                 0.0446                 0.0800
 IR Inten    --      0.0771                 0.4895                 2.2548

                      7                      8                      9
                      A                      A                      A
 Frequencies --    281.7192               346.6867               359.7100
 Red. masses --      1.4399                 2.4213                 2.8130
 Frc consts  --      0.0673                 0.1715                 0.2144
 IR Inten    --      0.5824                 1.3133                 2.1833

                     10                     11                     12
                      A                      A                      A
 Frequencies --    371.7748               459.1949               553.7600
 Red. masses --      2.2377                 2.5489                 3.7168
 Frc consts  --      0.1822                 0.3167                 0.6715
 IR Inten    --      0.1190                 2.0320                 7.7196

                     13                     14                     15
                      A                      A                      A
 Frequencies --    609.6253               669.8741               836.0641
 Red. masses --      2.3357                 3.2590                 2.4900
 Frc consts  --      0.5114                 0.8616                 1.0255
 IR Inten    --      0.2258                 4.4223                 3.8160

                     16                     17                     18
                      A                      A                      A
 Frequencies --    939.5948               948.4681               960.4749
 Red. masses --      1.8826                 1.8525                 1.6069
 Frc consts  --      0.9792                 0.9818                 0.8734
 IR Inten    --      0.7752                 1.7453                15.8901

                     19                     20                     21
                      A                      A                      A
 Frequencies --    969.9801               997.1215              1060.1313
 Red. masses --      1.2047                 1.4181                 1.4275
 Frc consts  --      0.6678                 0.8307                 0.9453
 IR Inten    --      0.0628                 1.8165                 0.0899

                     22                     23                     24
                      A                      A                      A
 Frequencies --   1072.1407              1159.2353              1229.5401
 Red. masses --      1.6646                 2.3167                 2.6228
 Frc consts  --      1.1273                 1.8343                 2.3362
 IR Inten    --      1.1706                73.2121                 2.5781

                     25                     26                     27
                      A                      A                      A
 Frequencies --   1253.1111              1299.2624              1394.0323
 Red. masses --      2.8582                 2.8967                 1.3186
 Frc consts  --      2.6443                 2.8810                 1.5097
 IR Inten    --      3.2654                 9.7843                32.6384

                     28                     29                     30
                      A                      A                      A
 Frequencies --   1410.3787              1414.6201              1443.1473
 Red. masses --      1.2089                 1.2332                 1.2173
 Frc consts  --      1.4168                 1.4540                 1.4937
 IR Inten    --      3.2891                 7.1437                 3.5815

                     31                     32                     33
                      A                      A                      A
 Frequencies --   1476.4092              1489.7261              1494.2285
 Red. masses --      1.0508                 1.0537                 1.0483
 Frc consts  --      1.3495                 1.3778                 1.3790
 IR Inten    --      8.2676                 7.3762                 1.4627

                     34                     35                     36
                      A                      A                      A
 Frequencies --   1499.1890              1502.6660              1515.8937
 Red. masses --      1.0442                 1.0453                 1.0509
 Frc consts  --      1.3827                 1.3906                 1.4228
 IR Inten    --      0.7170                 0.7496                 4.3729

                     37                     38                     39
                      A                      A                      A
 Frequencies --   1521.0610              1533.4717              1801.1510
 Red. masses --      1.0506                 1.0660                11.0863
 Frc consts  --      1.4321                 1.4769                21.1903
 IR Inten    --      7.5552                16.7753               138.5912

                     40                     41                     42
                      A                      A                      A
 Frequencies --   3039.6718              3042.5818              3051.3163
 Red. masses --      1.0349                 1.0351                 1.0379
 Frc consts  --      5.6339                 5.6456                 5.6938
 IR Inten    --     23.4871                17.2737                11.8544

                     43                     44                     45
                      A                      A                      A
 Frequencies --   3053.3457              3108.6736              3112.0887
 Red. masses --      1.0376                 1.1025                 1.1019
 Frc consts  --      5.6993                 6.2777                 6.2880
 IR Inten    --     12.7265                 7.6713                12.1898

                     46                     47                     48
                      A                      A                      A
 Frequencies --   3117.1062              3118.3122              3120.4509
 Red. masses --      1.0988                 1.1022                 1.1019
 Frc consts  --      6.2900                 6.3148                 6.3216
 IR Inten    --     10.6665                28.1972                44.4761

                     49                     50                     51
                      A                      A                      A
 Frequencies --   3123.0566              3145.0211              3163.9429
 Red. masses --      1.1016                 1.1008                 1.1035
 Frc consts  --      6.3307                 6.4150                 6.5083
 IR Inten    --     36.1230                18.4879                11.2345

 - Thermochemistry -
 -------------------
 Temperature   298.150 Kelvin.  Pressure   1.00000 Atm.
 Atom     1 has atomic number  6 and mass  12.00000

 Molecular mass:   100.08882 amu.
 Principal axes and moments of inertia in atomic units:
                           1         2         3
     Eigenvalues --   569.52050 790.14160 949.06213
           X            0.99415  -0.10805   0.00095
           Y            0.10805   0.99414   0.00376
           Z           -0.00135  -0.00363   0.99999
 This molecule is an asymmetric top.
 Rotational symmetry number  1.
 Warning -- assumption of classical behavior for rotation
           may cause significant error
 Rotational temperatures (Kelvin)      0.15208     0.10962     0.09126
 Rotational constants (GHZ):           3.16888     2.28407     1.90160
 Zero-point vibrational energy     443881.8 (Joules/Mol)
                                  106.09030 (Kcal/Mol)
 Warning -- explicit consideration of  13 degrees of freedom as
           vibrations may cause significant error
 Vibrational temperatures:     68.26   209.81   286.94   322.77   375.93
          (Kelvin)            379.71   405.33   498.80   517.54   534.90
                              660.68   796.74   877.11   963.80  1202.91
                             1351.87  1364.63  1381.91  1395.58  1434.63
                             1525.29  1542.57  1667.88  1769.03  1802.95
                             1869.35  2005.70  2029.22  2035.32  2076.36
                             2124.22  2143.38  2149.86  2157.00  2162.00
                             2181.03  2188.46  2206.32  2591.45  4373.40
                             4377.59  4390.16  4393.08  4472.68  4477.60
                             4484.82  4486.55  4489.63  4493.38  4524.98
                             4552.20

 Zero-point correction=                           0.169066 (Hartree/Particle)
 Thermal correction to Energy=                    0.178099
 Thermal correction to Enthalpy=                  0.179043
 Thermal correction to Gibbs Free Energy=         0.136078
 Sum of electronic and zero-point Energies=           -310.943134
 Sum of electronic and thermal Energies=              -310.934101
 Sum of electronic and thermal Enthalpies=            -310.933157
 Sum of electronic and thermal Free Energies=         -310.976122

                     E (Thermal)             CV                S
                      KCal/Mol        Cal/Mol-Kelvin    Cal/Mol-Kelvin
 Total                  111.759             32.795             90.427
 Electronic               0.000              0.000              0.000
 Translational            0.889              2.981             39.721
 Rotational               0.889              2.981             27.548
 Vibrational            109.981             26.834             23.158
 Vibration     1          0.595              1.979              4.921
 Vibration     2          0.617              1.907              2.726
 Vibration     3          0.638              1.841              2.138
 Vibration     4          0.649              1.804              1.924
 Vibration     5          0.669              1.744              1.653
 Vibration     6          0.670              1.739              1.636
 Vibration     7          0.681              1.707              1.523
 Vibration     8          0.725              1.582              1.181
 Vibration     9          0.734              1.555              1.123
 Vibration    10          0.743              1.530              1.072
 Vibration    11          0.817              1.341              0.768
 Vibration    12          0.909              1.131              0.536
 Vibration    13          0.969              1.011              0.433

 Normal termination of Gaussian 09 at Thu Sep  8 15:10:46 2022.
