 Gaussian 09, Revision E.01,
 Gaussian 09:  ES64L-G09RevE.01 30-Nov-2015

 ----------------------------
 #P OPT Freq B3LYP/6-31G(d,p)
 ----------------------------

 ---------
 Frag_1095
 ---------
 Symbolic Z-matrix:
 Charge =  0 Multiplicity = 1

 SCF Done:  E(RB3LYP) =  -340.894489754     A.U. after   14 cycles
 SCF Done:  E(RB3LYP) =  -340.894584124     A.U. after   10 cycles
 SCF Done:  E(RB3LYP) =  -340.894593138     A.U. after   10 cycles
 SCF Done:  E(RB3LYP) =  -340.894600665     A.U. after    9 cycles
 SCF Done:  E(RB3LYP) =  -340.894601447     A.U. after    9 cycles
 SCF Done:  E(RB3LYP) =  -340.894603388     A.U. after    8 cycles
 Optimization completed.
    -- Stationary point found.
 Normal termination of Gaussian 09 at Thu Sep  8 14:52:26 2022.

 ----------------------------------------------------------------------
 #P Geom=AllCheck Guess=TCheck SCRF=Check GenChk RB3LYP/6-31G(d,p) Freq
 ----------------------------------------------------------------------

 Structure from the checkpoint file:  "B3LYP6-31Gdp.Frag_1095.chk"
 ---------
 Frag_1095
 ---------
 Charge =  0 Multiplicity = 1

                         Standard orientation:
 ---------------------------------------------------------------------
 Center     Atomic      Atomic             Coordinates (Angstroms)
 Number     Number       Type             X           Y           Z
 ---------------------------------------------------------------------
      1          6           0        0.888989    1.325834   -0.450504
      2          6           0        0.402689   -0.077337   -0.043816
      3          8           0        0.107919   -0.053278    1.405239
      4          8           0        1.449676   -0.960211   -0.311946
      5          7           0       -0.745306   -0.591019   -0.710433
      6          7           0       -1.897333    0.068865   -0.107920
      7          1           0        0.126766    2.083641   -0.234225
      8          1           0        1.805945    1.612125    0.078397
      9          1           0        1.095985    1.330584   -1.522312
     10          1           0        0.828227    0.412501    1.849288
     11          1           0        1.004147   -1.820783   -0.380825
     12          1           0       -2.704791   -0.537442   -0.247501
     13          1           0       -2.144104    0.996613   -0.501319
     14          1           0       -1.724540    0.194769    0.906547
 ---------------------------------------------------------------------

 SCF Done:  E(RB3LYP) =  -340.894603388     A.U. after    1 cycles

 The electronic state is 1-A.
 Alpha  occ. eigenvalues --  -19.12770 -19.11835 -14.45010 -14.26177 -10.27596
 Alpha  occ. eigenvalues --  -10.16112  -1.03886  -0.98883  -0.96353  -0.77088
 Alpha  occ. eigenvalues --   -0.69958  -0.58192  -0.55932  -0.55678  -0.49528
 Alpha  occ. eigenvalues --   -0.47816  -0.42227  -0.40036  -0.37538  -0.35781
 Alpha  occ. eigenvalues --   -0.32083  -0.27933  -0.25538  -0.24784  -0.16247
 Alpha virt. eigenvalues --    0.03400   0.09433   0.09575   0.12180   0.13949
 Alpha virt. eigenvalues --    0.17203   0.17564   0.18536   0.19379   0.24810
 Alpha virt. eigenvalues --    0.27405   0.28966   0.35685   0.55747   0.57597

 Mulliken charges:
               1
     1  C   -0.316977
     2  C    0.609791
     3  O   -0.591825
     4  O   -0.542219
     5  N   -0.553315
     6  N   -0.389357
     7  H    0.064214
     8  H    0.092222
     9  H    0.124604
    10  H    0.296761
    11  H    0.299678
    12  H    0.319076
    13  H    0.278636
    14  H    0.308710
 Sum of Mulliken charges =  -0.00000

 Dipole moment (field-independent basis, Debye):
    X=             -4.0645    Y=              2.3103    Z=              1.5779  Tot=              4.9343
 Quadrupole moment (field-independent basis, Debye-Ang):
   XX=            -26.7277   YY=            -34.7792   ZZ=            -38.7920
   XY=             -0.7259   XZ=              1.2055   YZ=              0.1340

  Exact polarizability:  54.977  -1.508  44.635   1.050   2.583  40.153
 Approx polarizability:  74.866  -4.208  61.438   0.985   6.561  58.283

                      1                      2                      3
                      A                      A                      A
 Frequencies --    157.3799               198.7372               252.0501
 Red. masses --      2.8200                 1.1160                 1.0774
 Frc consts  --      0.0412                 0.0260                 0.0403
 IR Inten    --     20.3039                28.3393                 4.6670

                      4                      5                      6
                      A                      A                      A
 Frequencies --    306.4097               318.8622               368.9781
 Red. masses --      1.0701                 2.8195                 2.5393
 Frc consts  --      0.0592                 0.1689                 0.2037
 IR Inten    --     58.5109                38.7565                 8.1084

                      7                      8                      9
                      A                      A                      A
 Frequencies --    401.3827               429.4644               522.8635
 Red. masses --      3.3358                 1.4485                 2.6056
 Frc consts  --      0.3166                 0.1574                 0.4197
 IR Inten    --     23.2363                30.5942                23.7107

                     10                     11                     12
                      A                      A                      A
 Frequencies --    553.2201               589.2825               718.7041
 Red. masses --      4.9374                 3.9382                 5.8559
 Frc consts  --      0.8903                 0.8057                 1.7822
 IR Inten    --     42.1415                21.3251                32.1226

                     13                     14                     15
                      A                      A                      A
 Frequencies --    819.2428               905.9487               973.8314
 Red. masses --      5.1429                 2.5567                 1.7175
 Frc consts  --      2.0337                 1.2363                 0.9596
 IR Inten    --     63.3161                50.0119                34.8999

                     16                     17                     18
                      A                      A                      A
 Frequencies --   1018.9970              1093.0411              1099.7172
 Red. masses --      1.7743                 1.3316                 1.6996
 Frc consts  --      1.0855                 0.9374                 1.2110
 IR Inten    --    121.6821                55.3881               194.1509

                     19                     20                     21
                      A                      A                      A
 Frequencies --   1170.8719              1203.6365              1274.2548
 Red. masses --      1.7063                 1.6753                 2.7976
 Frc consts  --      1.3783                 1.4300                 2.6764
 IR Inten    --     16.3810                85.8333                75.0805

                     22                     23                     24
                      A                      A                      A
 Frequencies --   1387.8239              1423.1818              1469.7587
 Red. masses --      1.3096                 1.3542                 1.3250
 Frc consts  --      1.4861                 1.6160                 1.6864
 IR Inten    --     44.0032                18.0822               161.9363

                     25                     26                     27
                      A                      A                      A
 Frequencies --   1498.9899              1511.2213              1636.5751
 Red. masses --      1.0999                 1.0704                 1.0572
 Frc consts  --      1.4561                 1.4403                 1.6684
 IR Inten    --     49.3104                 7.2315                14.4655

                     28                     29                     30
                      A                      A                      A
 Frequencies --   1676.8899              3033.3830              3093.5070
 Red. masses --      1.0538                 1.0387                 1.1017
 Frc consts  --      1.7459                 5.6310                 6.2120
 IR Inten    --     34.0331                23.0079                46.0916

                     31                     32                     33
                      A                      A                      A
 Frequencies --   3146.4136              3171.9855              3244.0089
 Red. masses --      1.0990                 1.0511                 1.0788
 Frc consts  --      6.4103                 6.2311                 6.6892
 IR Inten    --     17.1607               114.1353                56.2129

                     34                     35                     36
                      A                      A                      A
 Frequencies --   3516.1586              3744.3226              3818.9619
 Red. masses --      1.0805                 1.0638                 1.0662
 Frc consts  --      7.8708                 8.7870                 9.1619
 IR Inten    --     37.8169                23.4642                10.0863

 - Thermochemistry -
 -------------------
 Temperature   298.150 Kelvin.  Pressure   1.00000 Atm.
 Atom     1 has atomic number  6 and mass  12.00000

 Molecular mass:    92.05858 amu.
 Principal axes and moments of inertia in atomic units:
                           1         2         3
     Eigenvalues --   372.27848 622.65398 640.03942
           X            0.99958   0.02732  -0.00935
           Y           -0.02875   0.97115  -0.23672
           Z            0.00262   0.23689   0.97153
 This molecule is an asymmetric top.
 Rotational symmetry number  1.
 Rotational temperatures (Kelvin)      0.23266     0.13910     0.13533
 Rotational constants (GHZ):           4.84783     2.89847     2.81973
 Zero-point vibrational energy     309534.1 (Joules/Mol)
                                   73.98042 (Kcal/Mol)
 Warning -- explicit consideration of  11 degrees of freedom as
           vibrations may cause significant error
 Vibrational temperatures:    226.43   285.94   362.64   440.85   458.77
          (Kelvin)            530.88   577.50   617.90   752.28   795.96
                              847.84  1034.05  1178.71  1303.46  1401.12
                             1466.11  1572.64  1582.25  1684.62  1731.76
                             1833.37  1996.77  2047.64  2114.65  2156.71
                             2174.31  2354.66  2412.67  4364.36  4450.86
                             4526.98  4563.77  4667.40  5058.96  5387.24
                             5494.63

 Zero-point correction=                           0.117895 (Hartree/Particle)
 Thermal correction to Energy=                    0.125145
 Thermal correction to Enthalpy=                  0.126090
 Thermal correction to Gibbs Free Energy=         0.087722
 Sum of electronic and zero-point Energies=           -340.776708
 Sum of electronic and thermal Energies=              -340.769458
 Sum of electronic and thermal Enthalpies=            -340.768514
 Sum of electronic and thermal Free Energies=         -340.806882

                     E (Thermal)             CV                S
                      KCal/Mol        Cal/Mol-Kelvin    Cal/Mol-Kelvin
 Total                   78.530             26.900             80.752
 Electronic               0.000              0.000              0.000
 Translational            0.889              2.981             39.471
 Rotational               0.889              2.981             26.498
 Vibrational             76.752             20.939             14.783
 Vibration     1          0.621              1.894              2.581
 Vibration     2          0.637              1.842              2.145
 Vibration     3          0.664              1.759              1.716
 Vibration     4          0.697              1.662              1.382
 Vibration     5          0.705              1.638              1.316
 Vibration     6          0.741              1.536              1.084
 Vibration     7          0.767              1.467              0.958
 Vibration     8          0.791              1.406              0.860
 Vibration     9          0.878              1.199              0.603
 Vibration    10          0.909              1.133              0.538
 Vibration    11          0.947              1.055              0.468

 Normal termination of Gaussian 09 at Thu Sep  8 14:52:37 2022.
