 Gaussian 09, Revision E.01,
 Gaussian 09:  ES64L-G09RevE.01 30-Nov-2015

 ----------------------------
 #P OPT Freq B3LYP/6-31G(d,p)
 ----------------------------

 --------
 Frag_922
 --------
 Symbolic Z-matrix:
 Charge =  0 Multiplicity = 1

 SCF Done:  E(RB3LYP) =  -363.029652539     A.U. after   13 cycles
 SCF Done:  E(RB3LYP) =  -363.029729371     A.U. after    9 cycles
 SCF Done:  E(RB3LYP) =  -363.029737134     A.U. after    8 cycles
 SCF Done:  E(RB3LYP) =  -363.029738149     A.U. after    8 cycles
 SCF Done:  E(RB3LYP) =  -363.029740292     A.U. after    8 cycles
 SCF Done:  E(RB3LYP) =  -363.029740506     A.U. after    8 cycles
 SCF Done:  E(RB3LYP) =  -363.029740892     A.U. after    7 cycles
 SCF Done:  E(RB3LYP) =  -363.029741112     A.U. after    7 cycles
 SCF Done:  E(RB3LYP) =  -363.029741759     A.U. after    8 cycles
 SCF Done:  E(RB3LYP) =  -363.029743071     A.U. after    8 cycles
 SCF Done:  E(RB3LYP) =  -363.029745615     A.U. after   10 cycles
 SCF Done:  E(RB3LYP) =  -363.029745952     A.U. after    8 cycles
 Optimization completed.
    -- Stationary point found.
 Normal termination of Gaussian 09 at Thu Sep  8 15:03:41 2022.

 ----------------------------------------------------------------------
 #P Geom=AllCheck Guess=TCheck SCRF=Check GenChk RB3LYP/6-31G(d,p) Freq
 ----------------------------------------------------------------------

 Structure from the checkpoint file:  "B3LYP6-31Gdp.Frag_922.chk"
 --------
 Frag_922
 --------
 Charge =  0 Multiplicity = 1

                         Standard orientation:
 ---------------------------------------------------------------------
 Center     Atomic      Atomic             Coordinates (Angstroms)
 Number     Number       Type             X           Y           Z
 ---------------------------------------------------------------------
      1          6           0        1.624138    1.249716    0.050068
      2          6           0        0.954397    0.091467   -0.002086
      3          7           0        1.528572   -1.180090    0.118844
      4          6           0       -0.571797    0.038082   -0.060754
      5          6           0       -1.169571   -0.300990    1.311604
      6          8           0       -0.879537   -0.996749   -0.996494
      7          8           0       -1.044549    1.285806   -0.516181
      8          1           0        2.707608    1.268675    0.121614
      9          1           0        1.096316    2.191751    0.025892
     10          1           0        2.531923   -1.182631   -0.014557
     11          1           0        1.069256   -1.862418   -0.473195
     12          1           0       -0.943595    0.491828    2.028646
     13          1           0       -2.261833   -0.406013    1.237665
     14          1           0       -0.755361   -1.239577    1.683979
     15          1           0       -1.825916   -1.183953   -0.937875
     16          1           0       -1.948718    1.400865   -0.195674
 ---------------------------------------------------------------------

 SCF Done:  E(RB3LYP) =  -363.029745952     A.U. after    1 cycles

 The electronic state is 1-A.
 Alpha  occ. eigenvalues --  -19.15184 -19.15116 -14.32306 -10.29373 -10.20862
 Alpha  occ. eigenvalues --  -10.18624 -10.14691  -1.06134  -0.99613  -0.89565
 Alpha  occ. eigenvalues --   -0.75304  -0.71428  -0.64367  -0.55122  -0.52372
 Alpha  occ. eigenvalues --   -0.50284  -0.47840  -0.45143  -0.42720  -0.42201
 Alpha  occ. eigenvalues --   -0.39076  -0.37505  -0.35163  -0.33795  -0.31671
 Alpha  occ. eigenvalues --   -0.29420  -0.27982  -0.19627
 Alpha virt. eigenvalues --    0.04153   0.05943   0.09626   0.11044   0.14868
 Alpha virt. eigenvalues --    0.15946   0.15993   0.16886   0.18137   0.19915
 Alpha virt. eigenvalues --    0.22906   0.25202   0.26333   0.30255   0.35132

 Mulliken charges:
               1
     1  C   -0.309012
     2  C    0.290536
     3  N   -0.644392
     4  C    0.434359
     5  C   -0.336180
     6  O   -0.541169
     7  O   -0.531722
     8  H    0.069644
     9  H    0.105868
    10  H    0.249922
    11  H    0.271788
    12  H    0.128095
    13  H    0.078644
    14  H    0.137403
    15  H    0.297839
    16  H    0.298376
 Sum of Mulliken charges =  -0.00000

 Dipole moment (field-independent basis, Debye):
    X=             -1.9604    Y=             -1.1839    Z=              0.8489  Tot=              2.4424
 Quadrupole moment (field-independent basis, Debye-Ang):
   XX=            -31.4828   YY=            -42.1184   ZZ=            -46.2598
   XY=             -1.6964   XZ=             -1.6246   YZ=              2.5876

  Exact polarizability:  65.732   5.352  64.762  -0.234   1.233  38.435
 Approx polarizability:  85.472  10.260 101.777   1.085   1.994  52.918

                      1                      2                      3
                      A                      A                      A
 Frequencies --     80.6915               103.8396               245.0873
 Red. masses --      2.1113                 1.4845                 2.8279
 Frc consts  --      0.0081                 0.0094                 0.1001
 IR Inten    --      6.9895                35.9047                14.3650

                      4                      5                      6
                      A                      A                      A
 Frequencies --    266.5201               308.3596               347.0130
 Red. masses --      1.1551                 2.7866                 1.1014
 Frc consts  --      0.0483                 0.1561                 0.0781
 IR Inten    --      1.8268                 5.2991               128.0617

                      7                      8                      9
                      A                      A                      A
 Frequencies --    375.7924               382.8872               412.5447
 Red. masses --      2.6389                 1.6321                 1.5840
 Frc consts  --      0.2196                 0.1410                 0.1588
 IR Inten    --      7.0577                17.0555                18.8773

                     10                     11                     12
                      A                      A                      A
 Frequencies --    484.0987               523.6931               544.5352
 Red. masses --      4.3105                 2.9363                 3.6513
 Frc consts  --      0.5952                 0.4745                 0.6379
 IR Inten    --      2.6805                10.4871                28.1602

                     13                     14                     15
                      A                      A                      A
 Frequencies --    648.1805               708.8684               727.4393
 Red. masses --      2.6091                 1.1300                 3.4896
 Frc consts  --      0.6459                 0.3345                 1.0880
 IR Inten    --     85.8173                69.7513                 0.2315

                     16                     17                     18
                      A                      A                      A
 Frequencies --    785.8360               833.8005               925.1838
 Red. masses --      1.4725                 1.4719                 2.5260
 Frc consts  --      0.5358                 0.6029                 1.2739
 IR Inten    --    104.8946                80.9868                43.2028

                     19                     20                     21
                      A                      A                      A
 Frequencies --    957.8040               991.8936              1065.8026
 Red. masses --      2.0531                 1.5617                 1.5370
 Frc consts  --      1.1097                 0.9053                 1.0287
 IR Inten    --     37.5572                 7.5950                24.1604

                     22                     23                     24
                      A                      A                      A
 Frequencies --   1136.1327              1146.7179              1204.2559
 Red. masses --      1.5315                 2.6816                 3.5436
 Frc consts  --      1.1648                 2.0775                 3.0278
 IR Inten    --     56.5574               162.2933               139.1929

                     25                     26                     27
                      A                      A                      A
 Frequencies --   1248.3571              1345.6949              1414.5036
 Red. masses --      1.2296                 2.0710                 1.2827
 Frc consts  --      1.1290                 2.2096                 1.5121
 IR Inten    --     54.0162                28.4601                18.2290

                     28                     29                     30
                      A                      A                      A
 Frequencies --   1434.9309              1464.9116              1492.4608
 Red. masses --      1.3844                 1.5371                 1.0481
 Frc consts  --      1.6795                 1.9434                 1.3754
 IR Inten    --     16.4696                24.7868                 1.2612

                     31                     32                     33
                      A                      A                      A
 Frequencies --   1523.2006              1642.3678              1737.8064
 Red. masses --      1.1580                 1.1432                 5.5049
 Frc consts  --      1.5830                 1.8168                 9.7950
 IR Inten    --     13.0869                60.8470                71.8510

                     34                     35                     36
                      A                      A                      A
 Frequencies --   3018.1367              3117.8760              3159.3204
 Red. masses --      1.0504                 1.0854                 1.1035
 Frc consts  --      5.6376                 6.2164                 6.4894
 IR Inten    --     34.9322                17.0769                 8.7052

                     37                     38                     39
                      A                      A                      A
 Frequencies --   3171.1966              3287.3838              3544.7751
 Red. masses --      1.0649                 1.1105                 1.0473
 Frc consts  --      6.3098                 7.0709                 7.7534
 IR Inten    --     13.4780                 3.7211                15.1745

                     40                     41                     42
                      A                      A                      A
 Frequencies --   3652.2434              3808.5719              3811.6737
 Red. masses --      1.0972                 1.0663                 1.0663
 Frc consts  --      8.6231                 9.1129                 9.1281
 IR Inten    --     15.2395                 9.2912                12.3833

 - Thermochemistry -
 -------------------
 Temperature   298.150 Kelvin.  Pressure   1.00000 Atm.
 Atom     1 has atomic number  6 and mass  12.00000

 Molecular mass:   103.06333 amu.
 Principal axes and moments of inertia in atomic units:
                           1         2         3
     Eigenvalues --   531.92465 736.36437 907.58417
           X            0.99882   0.02952  -0.03845
           Y           -0.02933   0.99955   0.00566
           Z            0.03860  -0.00452   0.99924
 This molecule is an asymmetric top.
 Rotational symmetry number  1.
 Warning -- assumption of classical behavior for rotation
           may cause significant error
 Rotational temperatures (Kelvin)      0.16283     0.11762     0.09543
 Rotational constants (GHZ):           3.39285     2.45088     1.98851
 Zero-point vibrational energy     353391.2 (Joules/Mol)
                                   84.46251 (Kcal/Mol)
 Warning -- explicit consideration of  12 degrees of freedom as
           vibrations may cause significant error
 Vibrational temperatures:    116.10   149.40   352.63   383.46   443.66
          (Kelvin)            499.27   540.68   550.89   593.56   696.51
                              753.48   783.46   932.59  1019.90  1046.62
                             1130.64  1199.65  1331.13  1378.06  1427.11
                             1533.45  1634.64  1649.87  1732.65  1796.11
                             1936.15  2035.15  2064.54  2107.68  2147.32
                             2191.54  2363.00  2500.31  4342.42  4485.92
                             4545.55  4562.64  4729.81  5100.13  5254.76
                             5479.68  5484.14

 Zero-point correction=                           0.134600 (Hartree/Particle)
 Thermal correction to Energy=                    0.143030
 Thermal correction to Enthalpy=                  0.143974
 Thermal correction to Gibbs Free Energy=         0.102516
 Sum of electronic and zero-point Energies=           -362.895146
 Sum of electronic and thermal Energies=              -362.886716
 Sum of electronic and thermal Enthalpies=            -362.885772
 Sum of electronic and thermal Free Energies=         -362.927230

                     E (Thermal)             CV                S
                      KCal/Mol        Cal/Mol-Kelvin    Cal/Mol-Kelvin
 Total                   89.752             31.602             87.254
 Electronic               0.000              0.000              0.000
 Translational            0.889              2.981             39.808
 Rotational               0.889              2.981             27.366
 Vibrational             87.975             25.641             20.080
 Vibration     1          0.600              1.962              3.874
 Vibration     2          0.605              1.946              3.381
 Vibration     3          0.660              1.771              1.766
 Vibration     4          0.672              1.735              1.619
 Vibration     5          0.698              1.658              1.371
 Vibration     6          0.725              1.581              1.180
 Vibration     7          0.747              1.522              1.056
 Vibration     8          0.752              1.507              1.028
 Vibration     9          0.776              1.443              0.918
 Vibration    10          0.840              1.285              0.699
 Vibration    11          0.879              1.198              0.601
 Vibration    12          0.900              1.152              0.556

 Optimization completed.
    -- Stationary point found.
 Normal termination of Gaussian 09 at Thu Sep  8 15:03:56 2022.
