 Gaussian 09, Revision D.01,
 Gaussian 09:  ES64L-G09RevD.01 24-Apr-2013

 -------------------------
 #P OPT Freq B3LYP/6-31G**
 -------------------------

 -------
 Frag_58
 -------
 Symbolic Z-matrix:
 Charge =  0 Multiplicity = 1

 SCF Done:  E(RB3LYP) =  -283.092659886     A.U. after   15 cycles
 Optimization completed.
    -- Stationary point found.
 Normal termination of Gaussian 09 at Thu Jul 22 20:58:09 2021.

 ----------------------------------------------------------------------
 #P Geom=AllCheck Guess=TCheck SCRF=Check GenChk RB3LYP/6-31G(d,p) Freq
 ----------------------------------------------------------------------

 Structure from the checkpoint file:  "/vol2/users/liuj201281/HOFBenchmark/IsodesmicSplit/Sample60/Ring26/Running/Gau-73916.chk"
 -------
 Frag_58
 -------
 Charge =  0 Multiplicity = 1

                         Standard orientation:
 ---------------------------------------------------------------------
 Center     Atomic      Atomic             Coordinates (Angstroms)
 Number     Number       Type             X           Y           Z
 ---------------------------------------------------------------------
      1          6           0        0.152789   -1.864614    0.000000
      2          6           0       -0.604706   -0.775810    0.000000
      3          7           0        0.000000    0.559887    0.000000
      4          8           0       -0.792296    1.502791    0.000000
      5          8           0        1.225500    0.657781    0.000000
      6          1           0        1.233589   -1.783119    0.000000
      7          1           0       -0.302716   -2.848112    0.000000
      8          1           0       -1.685006   -0.730005    0.000000
 ---------------------------------------------------------------------

 SCF Done:  E(RB3LYP) =  -283.092659886     A.U. after    1 cycles

 The electronic state is 1-A'.
 Alpha  occ. eigenvalues --  -19.18641 -19.18523 -14.57706 -10.26259 -10.23767
 Alpha  occ. eigenvalues --   -1.22810  -1.05635  -0.84672  -0.71782  -0.58753
 Alpha  occ. eigenvalues --   -0.54938  -0.53507  -0.51895  -0.47973  -0.42977
 Alpha  occ. eigenvalues --   -0.32102  -0.31293  -0.31097  -0.29595
 Alpha virt. eigenvalues --   -0.09590   0.01069   0.09316   0.11398   0.13525
 Alpha virt. eigenvalues --    0.22389   0.26143   0.29045   0.35136   0.46712
 Alpha virt. eigenvalues --    0.50139   0.52749   0.57598   0.59479   0.63662

 Mulliken charges:
               1
     1  C   -0.211768
     2  C    0.103287
     3  N    0.433449
     4  O   -0.377446
     5  O   -0.394743
     6  H    0.163017
     7  H    0.138733
     8  H    0.145471
 Sum of Mulliken charges =   0.00000

 Dipole moment (field-independent basis, Debye):
    X=             -0.9891    Y=             -3.7764    Z=              0.0000  Tot=              3.9038
 Quadrupole moment (field-independent basis, Debye-Ang):
   XX=            -28.8119   YY=            -27.1764   ZZ=            -28.1418
   XY=              0.4952   XZ=              0.0000   YZ=              0.0000

  Exact polarizability:  39.162  -6.524  49.472   0.000   0.000  14.617
 Approx polarizability:  78.983 -23.116  78.691   0.000   0.000  21.095

                      1                      2                      3
                     A"                     A'                     A"
 Frequencies --    114.9582               331.4519               539.4367
 Red. masses --      2.8067                 3.6595                 1.6801
 Frc consts  --      0.0219                 0.2369                 0.2880
 IR Inten    --      0.8224                 1.0609                 0.2541

                      4                      5                      6
                     A'                     A'                     A"
 Frequencies --    553.1720               655.2629               819.6159
 Red. masses --      4.9814                 3.6108                 3.8922
 Frc consts  --      0.8981                 0.9134                 1.5405
 IR Inten    --      5.3375                 8.8562                19.0030

                      7                      8                      9
                     A'                     A"                     A"
 Frequencies --    900.7730               977.1705              1004.2939
 Red. masses --      4.8233                 1.2183                 1.1687
 Frc consts  --      2.3058                 0.6854                 0.6945
 IR Inten    --     30.0833                 0.0354                50.9607

                     10                     11                     12
                     A'                     A'                     A'
 Frequencies --   1081.4443              1288.1766              1400.2525
 Red. masses --      1.7722                 1.2618                 2.1525
 Frc consts  --      1.2212                 1.2337                 2.4866
 IR Inten    --      7.2584                 5.8822                44.3877

                     13                     14                     15
                     A'                     A'                     A'
 Frequencies --   1416.3104              1638.6322              1718.6113
 Red. masses --      2.1831                10.9794                 4.8434
 Frc consts  --      2.5801                17.3697                 8.4286
 IR Inten    --    123.4382               198.5626                19.4530

                     16                     17                     18
                     A'                     A'                     A'
 Frequencies --   3187.2549              3264.4855              3289.0159
 Red. masses --      1.0589                 1.1002                 1.1169
 Frc consts  --      6.3380                 6.9083                 7.1186
 IR Inten    --      1.8221                 1.3107                 1.0522

 - Thermochemistry -
 -------------------
 Temperature   298.150 Kelvin.  Pressure   1.00000 Atm.
 Atom     1 has atomic number  6 and mass  12.00000

 Molecular mass:    73.01638 amu.
 Principal axes and moments of inertia in atomic units:
                           1         2         3
     Eigenvalues --   153.38238 386.26920 539.65158
           X           -0.06303   0.99801   0.00000
           Y            0.99801   0.06303   0.00000
           Z            0.00000   0.00000   1.00000
 This molecule is an asymmetric top.
 Rotational symmetry number  1.
 Rotational temperatures (Kelvin)      0.56469     0.22423     0.16050
 Rotational constants (GHZ):          11.76629     4.67224     3.34427
 Zero-point vibrational energy     144630.4 (Joules/Mol)
                                   34.56750 (Kcal/Mol)
 Warning -- explicit consideration of   4 degrees of freedom as
           vibrations may cause significant error
 Vibrational temperatures:    165.40   476.88   776.13   795.89   942.78
          (Kelvin)           1179.24  1296.01  1405.93  1444.95  1555.96
                             1853.40  2014.65  2037.75  2357.62  2472.70
                             4585.74  4696.86  4732.15

 Zero-point correction=                           0.055087 (Hartree/Particle)
 Thermal correction to Energy=                    0.059785
 Thermal correction to Enthalpy=                  0.060729
 Thermal correction to Gibbs Free Energy=         0.027316
 Sum of electronic and zero-point Energies=           -283.037573
 Sum of electronic and thermal Energies=              -283.032875
 Sum of electronic and thermal Enthalpies=            -283.031931
 Sum of electronic and thermal Free Energies=         -283.065344

                     E (Thermal)             CV                S
                      KCal/Mol        Cal/Mol-Kelvin    Cal/Mol-Kelvin
 Total                   37.516             15.354             70.325
 Electronic               0.000              0.000              0.000
 Translational            0.889              2.981             38.781
 Rotational               0.889              2.981             24.973
 Vibrational             35.738              9.392              6.572
 Vibration     1          0.608              1.937              3.183
 Vibration     2          0.714              1.613              1.253
 Vibration     3          0.894              1.163              0.567
 Vibration     4          0.909              1.133              0.538

 Optimization completed.
    -- Stationary point found.
 Normal termination of Gaussian 09 at Thu Jul 22 20:58:23 2021.
