 Gaussian 09, Revision E.01,
 Gaussian 09:  ES64L-G09RevE.01 30-Nov-2015

 --------------------------------
 #P OPT=calcfc Freq B3LYP/6-31G**
 --------------------------------

 --------
 Frag_342
 --------
 Symbolic Z-matrix:
 Charge =  0 Multiplicity = 1

 SCF Done:  E(RB3LYP) =  -172.034987892     A.U. after   13 cycles
 SCF Done:  E(RB3LYP) =  -172.039967089     A.U. after   13 cycles
 SCF Done:  E(RB3LYP) =  -172.040010294     A.U. after   10 cycles
 SCF Done:  E(RB3LYP) =  -172.040011351     A.U. after    8 cycles
 Optimization completed.
    -- Stationary point found.
 Normal termination of Gaussian 09 at Fri Sep 10 15:25:18 2021.

 ----------------------------------------------------------------------
 #P Geom=AllCheck Guess=TCheck SCRF=Check GenChk RB3LYP/6-31G(d,p) Freq
 ----------------------------------------------------------------------

 Structure from the checkpoint file:  "/public/home/users/caep010/.cache/gau_scr/Gau-167165.chk"
 --------
 Frag_342
 --------
 Charge =  0 Multiplicity = 1

                         Standard orientation:
 ---------------------------------------------------------------------
 Center     Atomic      Atomic             Coordinates (Angstroms)
 Number     Number       Type             X           Y           Z
 ---------------------------------------------------------------------
      1          6           0        1.506148   -0.491254   -0.000000
      2          6           0        0.705532    0.579876    0.000000
      3          6           0       -0.769380    0.503440   -0.000000
      4          7           0       -1.395965   -0.610784    0.000000
      5          1           0        1.086591   -1.492461   -0.000000
      6          1           0        2.586977   -0.393569    0.000000
      7          1           0        1.130490    1.581627    0.000000
      8          1           0       -1.279776    1.477662   -0.000001
      9          1           0       -2.406334   -0.450138   -0.000000
 ---------------------------------------------------------------------

 SCF Done:  E(RB3LYP) =  -172.040011351     A.U. after    1 cycles

 The electronic state is 1-A.
 Alpha  occ. eigenvalues --  -14.31985 -10.23463 -10.19457 -10.19231  -0.90000
 Alpha  occ. eigenvalues --   -0.77083  -0.64263  -0.53570  -0.50890  -0.44825
 Alpha  occ. eigenvalues --   -0.41304  -0.36170  -0.34961  -0.26346  -0.25602
 Alpha virt. eigenvalues --   -0.04617   0.08291   0.08767   0.13394   0.14541
 Alpha virt. eigenvalues --    0.18065   0.20437   0.30082   0.33219   0.36881
 Alpha virt. eigenvalues --    0.53018   0.53351   0.57201   0.58918   0.59867

 Mulliken charges:
               1
     1  C   -0.210877
     2  C   -0.053291
     3  C    0.112928
     4  N   -0.483606
     5  H    0.135379
     6  H    0.105339
     7  H    0.086150
     8  H    0.075403
     9  H    0.232577
 Sum of Mulliken charges =  -0.00000

 Dipole moment (field-independent basis, Debye):
    X=              0.0165    Y=              1.5958    Z=             -0.0000  Tot=              1.5959
 Quadrupole moment (field-independent basis, Debye-Ang):
   XX=            -19.3041   YY=            -24.0964   ZZ=            -26.0985
   XY=             -1.8833   XZ=              0.0000   YZ=              0.0000

  Exact polarizability:  55.136  -2.080  41.849   0.000   0.000  15.249
 Approx polarizability:  78.734  -2.513  67.472  -0.000   0.000  21.767

                      1                      2                      3
                      A                      A                      A
 Frequencies --    114.1029               291.6796               556.3087
 Red. masses --      1.7920                 3.0959                 1.1815
 Frc consts  --      0.0137                 0.1552                 0.2154
 IR Inten    --     20.4982                 5.2410                38.0408

                      4                      5                      6
                      A                      A                      A
 Frequencies --    653.8856               838.7022               920.3545
 Red. masses --      2.6604                 1.5395                 2.4130
 Frc consts  --      0.6702                 0.6380                 1.2042
 IR Inten    --     21.1616                17.9248                32.0492

                      7                      8                      9
                      A                      A                      A
 Frequencies --    982.9615              1034.1654              1081.8775
 Red. masses --      1.4121                 1.0812                 1.4811
 Frc consts  --      0.8039                 0.6813                 1.0214
 IR Inten    --     26.0095                18.1778                 7.3786

                     10                     11                     12
                      A                      A                      A
 Frequencies --   1115.3375              1243.2173              1329.7532
 Red. masses --      1.2643                 1.1366                 1.2968
 Frc consts  --      0.9266                 1.0350                 1.3510
 IR Inten    --      8.0922                41.9538                 3.7981

                     13                     14                     15
                      A                      A                      A
 Frequencies --   1429.8531              1464.3721              1680.5342
 Red. masses --      1.2472                 1.4053                 5.7095
 Frc consts  --      1.5024                 1.7755                 9.5005
 IR Inten    --     12.7319                29.7301                44.1575

                     16                     17                     18
                      A                      A                      A
 Frequencies --   1729.1223              3023.7793              3162.4044
 Red. masses --      4.5410                 1.0866                 1.0617
 Frc consts  --      7.9994                 5.8534                 6.2561
 IR Inten    --     13.3423                76.0464                 8.5377

                     19                     20                     21
                      A                      A                      A
 Frequencies --   3175.4204              3260.1511              3462.3090
 Red. masses --      1.0885                 1.1174                 1.0762
 Frc consts  --      6.4665                 6.9976                 7.6012
 IR Inten    --     15.2964                 5.1372                 0.7974

 - Thermochemistry -
 -------------------
 Temperature   298.150 Kelvin.  Pressure   1.00000 Atm.
 Atom     1 has atomic number  6 and mass  12.00000

 Molecular mass:    55.04220 amu.
 Principal axes and moments of inertia in atomic units:
                           1         2         3
     Eigenvalues --    80.24409 301.09907 381.34316
           X            0.99965  -0.02644   0.00000
           Y            0.02644   0.99965   0.00000
           Z           -0.00000  -0.00000   1.00000
 This molecule is an asymmetric top.
 Rotational symmetry number  1.
 Rotational temperatures (Kelvin)      1.07938     0.28766     0.22713
 Rotational constants (GHZ):          22.49064     5.99385     4.73259
 Zero-point vibrational energy     194694.0 (Joules/Mol)
                                   46.53298 (Kcal/Mol)
 Warning -- explicit consideration of   3 degrees of freedom as
           vibrations may cause significant error
 Vibrational temperatures:    164.17   419.66   800.40   940.79  1206.70
          (Kelvin)           1324.18  1414.26  1487.93  1556.58  1604.72
                             1788.71  1913.22  2057.24  2106.90  2417.91
                             2487.82  4350.54  4549.99  4568.72  4690.62
                             4981.48

 Zero-point correction=                           0.074155 (Hartree/Particle)
 Thermal correction to Energy=                    0.078725
 Thermal correction to Enthalpy=                  0.079669
 Thermal correction to Gibbs Free Energy=         0.047386
 Sum of electronic and zero-point Energies=           -171.965856
 Sum of electronic and thermal Energies=              -171.961287
 Sum of electronic and thermal Enthalpies=            -171.960342
 Sum of electronic and thermal Free Energies=         -171.992626

                     E (Thermal)             CV                S
                      KCal/Mol        Cal/Mol-Kelvin    Cal/Mol-Kelvin
 Total                   49.401             14.562             67.946
 Electronic               0.000              0.000              0.000
 Translational            0.889              2.981             37.938
 Rotational               0.889              2.981             23.737
 Vibrational             47.623              8.601              6.271
 Vibration     1          0.607              1.938              3.198
 Vibration     2          0.687              1.689              1.464
 Vibration     3          0.912              1.126              0.531

 Optimization completed.
    -- Stationary point found.
 Normal termination of Gaussian 09 at Fri Sep 10 15:25:24 2021.
