 Gaussian 09, Revision E.01,
 Gaussian 09:  ES64L-G09RevE.01 30-Nov-2015

 ----------------------------
 #P OPT Freq B3LYP/6-31G(d,p)
 ----------------------------

 --------
 Frag_693
 --------
 Symbolic Z-matrix:
 Charge =  0 Multiplicity = 1

 SCF Done:  E(RB3LYP) =  -207.944402474     A.U. after   14 cycles
 SCF Done:  E(RB3LYP) =  -207.944524904     A.U. after   11 cycles
 SCF Done:  E(RB3LYP) =  -207.944527355     A.U. after    8 cycles
 SCF Done:  E(RB3LYP) =  -207.944527740     A.U. after    7 cycles
 Optimization completed.
    -- Stationary point found.
 Normal termination of Gaussian 09 at Thu Sep  8 15:21:42 2022.

 ----------------------------------------------------------------------
 #P Geom=AllCheck Guess=TCheck SCRF=Check GenChk RB3LYP/6-31G(d,p) Freq
 ----------------------------------------------------------------------

 Structure from the checkpoint file:  "B3LYP6-31Gdp.Frag_693.chk"
 --------
 Frag_693
 --------
 Charge =  0 Multiplicity = 1

                         Standard orientation:
 ---------------------------------------------------------------------
 Center     Atomic      Atomic             Coordinates (Angstroms)
 Number     Number       Type             X           Y           Z
 ---------------------------------------------------------------------
      1          6           0       -1.504211    0.343529   -0.000005
      2          8           0       -0.419620   -0.626676   -0.000100
      3          6           0        0.773547   -0.123296    0.000280
      4          7           0        1.865138    0.287819   -0.000128
      5          1           0       -1.449329    0.963129    0.897815
      6          1           0       -2.416855   -0.249759   -0.000514
      7          1           0       -1.448832    0.963901   -0.897259
 ---------------------------------------------------------------------

 SCF Done:  E(RB3LYP) =  -207.944527740     A.U. after    1 cycles

 The electronic state is 1-A.
 Alpha  occ. eigenvalues --  -19.24771 -14.33061 -10.28175 -10.27935  -1.13055
 Alpha  occ. eigenvalues --   -0.89747  -0.76325  -0.59431  -0.51062  -0.50992
 Alpha  occ. eigenvalues --   -0.42061  -0.40542  -0.36187  -0.31924  -0.29228
 Alpha virt. eigenvalues --    0.03627   0.05072   0.06915   0.10967   0.13197
 Alpha virt. eigenvalues --    0.15251   0.18367   0.42132   0.48052   0.49515
 Alpha virt. eigenvalues --    0.51816   0.54630   0.56350   0.64642   0.69021

 Mulliken charges:
               1
     1  C   -0.096613
     2  O   -0.441202
     3  C    0.504679
     4  N   -0.414183
     5  H    0.148248
     6  H    0.150817
     7  H    0.148254
 Sum of Mulliken charges =  -0.00000

 Dipole moment (field-independent basis, Debye):
    X=             -4.4647    Y=              0.4496    Z=              0.0005  Tot=              4.4873
 Quadrupole moment (field-independent basis, Debye-Ang):
   XX=            -25.8793   YY=            -23.1251   ZZ=            -22.4014
   XY=             -2.6214   XZ=              0.0004   YZ=             -0.0002

  Exact polarizability:  41.126   3.216  21.078  -0.003  -0.001  19.519
 Approx polarizability:  64.172  11.141  31.509  -0.011  -0.004  25.664

                      1                      2                      3
                      A                      A                      A
 Frequencies --    138.4137               223.7110               497.8024
 Red. masses --      1.1704                 4.4285                11.7447
 Frc consts  --      0.0132                 0.1306                 1.7148
 IR Inten    --      0.0055                 7.4609                 9.4537

                      4                      5                      6
                      A                      A                      A
 Frequencies --    601.8134               895.5433              1146.3455
 Red. masses --      7.0001                 6.5120                 3.3888
 Frc consts  --      1.4937                 3.0771                 2.6238
 IR Inten    --      3.5655                33.5052                96.3273

                      7                      8                      9
                      A                      A                      A
 Frequencies --   1169.4209              1231.5063              1482.1954
 Red. masses --      1.2403                 1.9101                 1.1390
 Frc consts  --      0.9994                 1.7068                 1.4743
 IR Inten    --      0.4818                61.2076                 3.3021

                     10                     11                     12
                      A                      A                      A
 Frequencies --   1500.1282              1507.2248              2368.7766
 Red. masses --      1.0475                 1.0476                12.5059
 Frc consts  --      1.3889                 1.4021                41.3441
 IR Inten    --      8.5970                12.9881               161.3990

                     13                     14                     15
                      A                      A                      A
 Frequencies --   3067.7760              3155.1698              3193.1802
 Red. masses --      1.0296                 1.1097                 1.1068
 Frc consts  --      5.7092                 6.5087                 6.6493
 IR Inten    --     25.4001                15.9018                 7.3173

 - Thermochemistry -
 -------------------
 Temperature   298.150 Kelvin.  Pressure   1.00000 Atm.
 Atom     1 has atomic number  6 and mass  12.00000

 Molecular mass:    57.02146 amu.
 Principal axes and moments of inertia in atomic units:
                           1         2         3
     Eigenvalues --    44.58754 347.03497 380.02545
           X            0.99962  -0.02747  -0.00000
           Y            0.02747   0.99962  -0.00000
           Z            0.00000   0.00000   1.00000
 This molecule is an asymmetric top.
 Rotational symmetry number  1.
 Rotational temperatures (Kelvin)      1.94256     0.24958     0.22792
 Rotational constants (GHZ):          40.47636     5.20046     4.74900
 Zero-point vibrational energy     132659.9 (Joules/Mol)
                                   31.70648 (Kcal/Mol)
 Warning -- explicit consideration of   4 degrees of freedom as
           vibrations may cause significant error
 Vibrational temperatures:    199.15   321.87   716.23   865.87  1288.49
          (Kelvin)           1649.33  1682.53  1771.86  2132.55  2158.35
                             2168.56  3408.14  4413.84  4539.58  4594.27

 Zero-point correction=                           0.050527 (Hartree/Particle)
 Thermal correction to Energy=                    0.055057
 Thermal correction to Enthalpy=                  0.056002
 Thermal correction to Gibbs Free Energy=         0.023925
 Sum of electronic and zero-point Energies=           -207.894000
 Sum of electronic and thermal Energies=              -207.889470
 Sum of electronic and thermal Enthalpies=            -207.888526
 Sum of electronic and thermal Free Energies=         -207.920603

                     E (Thermal)             CV                S
                      KCal/Mol        Cal/Mol-Kelvin    Cal/Mol-Kelvin
 Total                   34.549             13.355             67.512
 Electronic               0.000              0.000              0.000
 Translational            0.889              2.981             38.044
 Rotational               0.889              2.981             23.290
 Vibrational             32.772              7.393              6.178
 Vibration     1          0.614              1.915              2.826
 Vibration     2          0.649              1.805              1.929
 Vibration     3          0.853              1.255              0.664
 Vibration     4          0.960              1.028              0.447

 Optimization completed.
    -- Stationary point found.
 Normal termination of Gaussian 09 at Thu Sep  8 15:21:48 2022.
