 Gaussian 09, Revision E.01,
 Gaussian 09:  ES64L-G09RevE.01 30-Nov-2015

 --------------------------------
 #P OPT=calcfc Freq B3LYP/6-31G**
 --------------------------------

 --------
 Frag_316
 --------
 Symbolic Z-matrix:
 Charge =  0 Multiplicity = 1

 SCF Done:  E(RB3LYP) =  -249.699571434     A.U. after   12 cycles
 SCF Done:  E(RB3LYP) =  -249.705880818     A.U. after   13 cycles
 SCF Done:  E(RB3LYP) =  -249.705266547     A.U. after   13 cycles
 SCF Done:  E(RB3LYP) =  -249.705881795     A.U. after    8 cycles
 SCF Done:  E(RB3LYP) =  -249.706283383     A.U. after   10 cycles
 SCF Done:  E(RB3LYP) =  -249.706300316     A.U. after   10 cycles
 SCF Done:  E(RB3LYP) =  -249.706303507     A.U. after    9 cycles
 SCF Done:  E(RB3LYP) =  -249.706303803     A.U. after    8 cycles
 Optimization completed.
    -- Stationary point found.
 Normal termination of Gaussian 09 at Fri Sep 10 20:39:10 2021.

 ----------------------------------------------------------------------
 #P Geom=AllCheck Guess=TCheck SCRF=Check GenChk RB3LYP/6-31G(d,p) Freq
 ----------------------------------------------------------------------

 Structure from the checkpoint file:  "/public/home/users/caep010/.cache/gau_scr/Gau-133541.chk"
 --------
 Frag_316
 --------
 Charge =  0 Multiplicity = 1

                         Standard orientation:
 ---------------------------------------------------------------------
 Center     Atomic      Atomic             Coordinates (Angstroms)
 Number     Number       Type             X           Y           Z
 ---------------------------------------------------------------------
      1          6           0        1.723785    0.104900   -0.468073
      2          7           0        0.873465   -0.117502    0.697131
      3          6           0       -0.558182   -0.097774    0.473748
      4          6           0       -1.118979    1.151371   -0.228414
      5          8           0       -0.854892   -1.268316   -0.282858
      6          1           0        1.659093    1.111013   -0.916436
      7          1           0        1.460546   -0.626914   -1.235027
      8          1           0        2.765864   -0.068563   -0.183505
      9          1           0        1.108678    0.516859    1.453230
     10          1           0       -1.016947   -0.165993    1.474700
     11          1           0       -0.870810    2.057587    0.334367
     12          1           0       -2.212489    1.101714   -0.301014
     13          1           0       -0.715128    1.248444   -1.240197
     14          1           0       -1.733672   -1.156082   -0.666743
 ---------------------------------------------------------------------

 SCF Done:  E(RB3LYP) =  -249.706303803     A.U. after    1 cycles

 The electronic state is 1-A.
 Alpha  occ. eigenvalues --  -19.13672 -14.31209 -10.25748 -10.19337 -10.17922
 Alpha  occ. eigenvalues --   -1.01752  -0.88571  -0.73323  -0.67191  -0.59298
 Alpha  occ. eigenvalues --   -0.51442  -0.46488  -0.44653  -0.43233  -0.40279
 Alpha  occ. eigenvalues --   -0.38843  -0.37049  -0.35882  -0.33240  -0.26541
 Alpha  occ. eigenvalues --   -0.21503
 Alpha virt. eigenvalues --    0.06803   0.11247   0.12108   0.14821   0.15562
 Alpha virt. eigenvalues --    0.15852   0.17870   0.18792   0.19232   0.21671
 Alpha virt. eigenvalues --    0.24321   0.25332   0.29657   0.51236   0.52190

 Mulliken charges:
               1
     1  C   -0.179124
     2  N   -0.476164
     3  C    0.295905
     4  C   -0.347223
     5  O   -0.529588
     6  H    0.077691
     7  H    0.135052
     8  H    0.105188
     9  H    0.233183
    10  H    0.072141
    11  H    0.100889
    12  H    0.093901
    13  H    0.118169
    14  H    0.299980
 Sum of Mulliken charges =   0.00000

 Dipole moment (field-independent basis, Debye):
    X=             -1.0327    Y=              2.1467    Z=             -0.1561  Tot=              2.3873
 Quadrupole moment (field-independent basis, Debye-Ang):
   XX=            -27.9065   YY=            -35.3627   ZZ=            -30.8450
   XY=              1.7564   XZ=              0.9037   YZ=              2.0821

  Exact polarizability:  50.566   0.453  40.539   0.261   1.615  41.588
 Approx polarizability:  62.909   1.323  55.234   1.482   3.277  58.036

                      1                      2                      3
                      A                      A                      A
 Frequencies --    116.7918               207.8086               240.5868
 Red. masses --      2.0726                 1.1257                 1.0571
 Frc consts  --      0.0167                 0.0286                 0.0361
 IR Inten    --      3.6087                 2.2595                94.9723

                      4                      5                      6
                      A                      A                      A
 Frequencies --    272.9842               281.8709               405.4960
 Red. masses --      1.1703                 2.5002                 2.4145
 Frc consts  --      0.0514                 0.1170                 0.2339
 IR Inten    --      8.0634                 4.6538                 3.5477

                      7                      8                      9
                      A                      A                      A
 Frequencies --    466.0443               584.8753               706.4592
 Red. masses --      2.8869                 2.0847                 1.6547
 Frc consts  --      0.3694                 0.4202                 0.4866
 IR Inten    --      1.1488                57.4774                90.8931

                     10                     11                     12
                      A                      A                      A
 Frequencies --    822.7533               945.6023              1001.7054
 Red. masses --      2.4902                 1.8690                 2.0629
 Frc consts  --      0.9932                 0.9846                 1.2196
 IR Inten    --      3.4429                19.4527                 9.7005

                     13                     14                     15
                      A                      A                      A
 Frequencies --   1072.7799              1087.7177              1164.5995
 Red. masses --      1.6861                 1.9718                 1.4889
 Frc consts  --      1.1433                 1.3745                 1.1898
 IR Inten    --     45.1833                31.0980                25.5030

                     16                     17                     18
                      A                      A                      A
 Frequencies --   1169.5541              1203.3688              1297.2883
 Red. masses --      2.3534                 1.7628                 1.2724
 Frc consts  --      1.8966                 1.5040                 1.2617
 IR Inten    --     96.0188                11.3170                71.4168

                     19                     20                     21
                      A                      A                      A
 Frequencies --   1370.9776              1411.0591              1439.5113
 Red. masses --      1.2352                 1.2472                 1.3098
 Frc consts  --      1.3679                 1.4631                 1.5991
 IR Inten    --     20.7986                 6.2750                33.2283

                     22                     23                     24
                      A                      A                      A
 Frequencies --   1464.5511              1485.3726              1503.8071
 Red. masses --      1.2425                 1.2006                 1.0618
 Frc consts  --      1.5702                 1.5607                 1.4148
 IR Inten    --     16.8840                12.4698                 3.6229

                     25                     26                     27
                      A                      A                      A
 Frequencies --   1514.6039              1523.1923              1537.2073
 Red. masses --      1.0919                 1.0971                 1.0659
 Frc consts  --      1.4758                 1.4996                 1.4841
 IR Inten    --      2.0529                 4.6120                 8.0672

                     28                     29                     30
                      A                      A                      A
 Frequencies --   2967.6692              2970.5852              3036.0212
 Red. masses --      1.0634                 1.0804                 1.0387
 Frc consts  --      5.5182                 5.6174                 5.6407
 IR Inten    --    127.8056                35.9531                18.8834

                     31                     32                     33
                      A                      A                      A
 Frequencies --   3086.7320              3101.3135              3132.2010
 Red. masses --      1.0765                 1.0993                 1.1017
 Frc consts  --      6.0434                 6.2295                 6.3682
 IR Inten    --     42.8049                31.4152                26.0608

                     34                     35                     36
                      A                      A                      A
 Frequencies --   3139.9369              3556.2776              3827.3007
 Red. masses --      1.1009                 1.0746                 1.0660
 Frc consts  --      6.3952                 8.0071                 9.1999
 IR Inten    --     16.2415                 0.4588                10.9649

 - Thermochemistry -
 -------------------
 Temperature   298.150 Kelvin.  Pressure   1.00000 Atm.
 Atom     1 has atomic number  6 and mass  12.00000

 Molecular mass:    75.06841 amu.
 Principal axes and moments of inertia in atomic units:
                           1         2         3
     Eigenvalues --   268.16598 442.64192 547.04615
           X            0.99932  -0.03286  -0.01654
           Y            0.03276   0.99944  -0.00629
           Z            0.01674   0.00574   0.99984
 This molecule is an asymmetric top.
 Rotational symmetry number  1.
 Rotational temperatures (Kelvin)      0.32299     0.19567     0.15833
 Rotational constants (GHZ):           6.72994     4.07720     3.29907
 Zero-point vibrational energy     329670.5 (Joules/Mol)
                                   78.79314 (Kcal/Mol)
 Warning -- explicit consideration of   8 degrees of freedom as
           vibrations may cause significant error
 Vibrational temperatures:    168.04   298.99   346.15   392.76   405.55
          (Kelvin)            583.42   670.53   841.50  1016.44  1183.76
                             1360.51  1441.23  1543.49  1564.98  1675.60
                             1682.73  1731.38  1866.51  1972.53  2030.20
                             2071.13  2107.16  2137.12  2163.64  2179.17
                             2191.53  2211.70  4269.81  4274.00  4368.15
                             4441.11  4462.09  4506.53  4517.66  5116.68
                             5506.63

 Zero-point correction=                           0.125565 (Hartree/Particle)
 Thermal correction to Energy=                    0.132205
 Thermal correction to Enthalpy=                  0.133149
 Thermal correction to Gibbs Free Energy=         0.096118
 Sum of electronic and zero-point Energies=           -249.580739
 Sum of electronic and thermal Energies=              -249.574099
 Sum of electronic and thermal Enthalpies=            -249.573154
 Sum of electronic and thermal Free Energies=         -249.610186

                     E (Thermal)             CV                S
                      KCal/Mol        Cal/Mol-Kelvin    Cal/Mol-Kelvin
 Total                   82.960             23.186             77.940
 Electronic               0.000              0.000              0.000
 Translational            0.889              2.981             38.863
 Rotational               0.889              2.981             25.677
 Vibrational             81.183             17.225             13.400
 Vibration     1          0.608              1.935              3.153
 Vibration     2          0.641              1.829              2.063
 Vibration     3          0.658              1.778              1.799
 Vibration     4          0.676              1.723              1.577
 Vibration     5          0.681              1.707              1.522
 Vibration     6          0.770              1.458              0.943
 Vibration     7          0.823              1.325              0.749
 Vibration     8          0.942              1.064              0.476

 Optimization completed.
    -- Stationary point found.
 Normal termination of Gaussian 09 at Fri Sep 10 20:39:21 2021.
