 Gaussian 09, Revision E.01,
 Gaussian 09:  ES64L-G09RevE.01 30-Nov-2015

 ----------------------------
 #P OPT Freq B3LYP/6-31G(d,p)
 ----------------------------

 ---------
 Frag_1024
 ---------
 Symbolic Z-matrix:
 Charge =  0 Multiplicity = 1

 SCF Done:  E(RB3LYP) =  -321.112371457     A.U. after   13 cycles
 SCF Done:  E(RB3LYP) =  -321.112367265     A.U. after   10 cycles
 SCF Done:  E(RB3LYP) =  -321.112408836     A.U. after   10 cycles
 SCF Done:  E(RB3LYP) =  -321.112421810     A.U. after    8 cycles
 SCF Done:  E(RB3LYP) =  -321.112422262     A.U. after    7 cycles
 SCF Done:  E(RB3LYP) =  -321.112422468     A.U. after    6 cycles
 Optimization completed.
    -- Stationary point found.
 Normal termination of Gaussian 09 at Thu Sep  8 14:54:34 2022.

 ----------------------------------------------------------------------
 #P Geom=AllCheck Guess=TCheck SCRF=Check GenChk RB3LYP/6-31G(d,p) Freq
 ----------------------------------------------------------------------

 Structure from the checkpoint file:  "B3LYP6-31Gdp.Frag_1024.chk"
 ---------
 Frag_1024
 ---------
 Charge =  0 Multiplicity = 1

                         Standard orientation:
 ---------------------------------------------------------------------
 Center     Atomic      Atomic             Coordinates (Angstroms)
 Number     Number       Type             X           Y           Z
 ---------------------------------------------------------------------
      1          7           0       -0.723549    1.294359    0.671643
      2          6           0       -0.693461    0.321592   -0.413087
      3          7           0       -1.830248   -0.607172   -0.367663
      4          6           0        0.687526   -0.371896   -0.374336
      5          7           0        1.823766    0.529503   -0.382956
      6          8           0        0.703351   -1.132928    0.833015
      7          1           0       -0.603092    0.787504    1.547328
      8          1           0       -1.646466    1.719978    0.701497
      9          1           0       -0.762197    0.869452   -1.362476
     10          1           0       -1.662141   -1.276134    0.383694
     11          1           0       -1.865820   -1.153851   -1.227614
     12          1           0        0.774611   -1.043029   -1.244611
     13          1           0        1.546921    1.392580    0.084856
     14          1           0        2.097305    0.760795   -1.333336
     15          1           0        1.639896   -1.208875    1.063920
 ---------------------------------------------------------------------

 SCF Done:  E(RB3LYP) =  -321.112422468     A.U. after    1 cycles

 The electronic state is 1-A.
 Alpha  occ. eigenvalues --  -19.14056 -14.31542 -14.30889 -14.30643 -10.25482
 Alpha  occ. eigenvalues --  -10.23176  -1.02389  -0.90965  -0.86830  -0.82965
 Alpha  occ. eigenvalues --   -0.67810  -0.58796  -0.53488  -0.49705  -0.47343
 Alpha  occ. eigenvalues --   -0.46853  -0.44198  -0.42732  -0.39210  -0.35904
 Alpha  occ. eigenvalues --   -0.34920  -0.27795  -0.27237  -0.24793  -0.22010
 Alpha virt. eigenvalues --    0.07257   0.10418   0.11022   0.12636   0.14636
 Alpha virt. eigenvalues --    0.15445   0.18075   0.18700   0.20351   0.21071
 Alpha virt. eigenvalues --    0.23615   0.26674   0.28590   0.31181   0.55009

 Mulliken charges:
               1
     1  N   -0.600568
     2  C    0.148025
     3  N   -0.591197
     4  C    0.272589
     5  N   -0.611240
     6  O   -0.552718
     7  H    0.247991
     8  H    0.246039
     9  H    0.087623
    10  H    0.246983
    11  H    0.228114
    12  H    0.065648
    13  H    0.262554
    14  H    0.239235
    15  H    0.310921
 Sum of Mulliken charges =  -0.00000

 Dipole moment (field-independent basis, Debye):
    X=              0.5454    Y=             -0.2020    Z=             -1.1276  Tot=              1.2687
 Quadrupole moment (field-independent basis, Debye-Ang):
   XX=            -39.7581   YY=            -36.7168   ZZ=            -32.6775
   XY=             -0.2771   XZ=             -1.2831   YZ=              0.2306

  Exact polarizability:  48.589   1.907  45.726  -0.328   0.585  46.944
 Approx polarizability:  62.083   3.252  62.332  -0.074  -0.454  67.451

                      1                      2                      3
                      A                      A                      A
 Frequencies --    125.1645               234.7467               264.4524
 Red. masses --      4.4495                 1.7582                 1.8464
 Frc consts  --      0.0411                 0.0571                 0.0761
 IR Inten    --      2.7838                 9.4150                27.7583

                      4                      5                      6
                      A                      A                      A
 Frequencies --    287.4732               302.9972               359.6280
 Red. masses --      1.2276                 1.9290                 1.3025
 Frc consts  --      0.0598                 0.1043                 0.0993
 IR Inten    --     42.6898                32.4635                53.3159

                      7                      8                      9
                      A                      A                      A
 Frequencies --    380.6077               432.3088               491.0210
 Red. masses --      1.5243                 1.6951                 2.3622
 Frc consts  --      0.1301                 0.1867                 0.3356
 IR Inten    --     59.8133                44.1654                12.9721

                     10                     11                     12
                      A                      A                      A
 Frequencies --    573.4518               696.1555               823.6459
 Red. masses --      2.8423                 2.9558                 2.7038
 Frc consts  --      0.5507                 0.8440                 1.0807
 IR Inten    --     42.9523                25.7243                12.4229

                     13                     14                     15
                      A                      A                      A
 Frequencies --    882.1403               918.4313               926.7127
 Red. masses --      1.5587                 1.8894                 1.5924
 Frc consts  --      0.7146                 0.9390                 0.8057
 IR Inten    --    156.0557                78.2990               253.5606

                     16                     17                     18
                      A                      A                      A
 Frequencies --   1001.8716              1048.9286              1105.8615
 Red. masses --      2.0746                 1.7450                 2.2061
 Frc consts  --      1.2269                 1.1312                 1.5896
 IR Inten    --    116.5362                47.5011                30.4077

                     19                     20                     21
                      A                      A                      A
 Frequencies --   1122.3387              1178.1511              1204.8128
 Red. masses --      1.3303                 2.0780                 1.3428
 Frc consts  --      0.9873                 1.6994                 1.1484
 IR Inten    --     24.2081                29.6330                65.9477

                     22                     23                     24
                      A                      A                      A
 Frequencies --   1285.8616              1326.1290              1392.9150
 Red. masses --      1.5299                 1.4050                 1.3198
 Frc consts  --      1.4904                 1.4558                 1.5087
 IR Inten    --      7.7365                27.0025                19.2870

                     25                     26                     27
                      A                      A                      A
 Frequencies --   1401.5769              1427.0795              1453.8907
 Red. masses --      1.3370                 1.3015                 1.4292
 Frc consts  --      1.5475                 1.5616                 1.7800
 IR Inten    --     14.0352                16.7468                15.0190

                     28                     29                     30
                      A                      A                      A
 Frequencies --   1657.7452              1664.1708              1664.5085
 Red. masses --      1.0892                 1.1082                 1.1052
 Frc consts  --      1.7635                 1.8083                 1.8041
 IR Inten    --     29.6988                57.3940                21.0882

                     31                     32                     33
                      A                      A                      A
 Frequencies --   2983.8721              3041.2528              3462.5904
 Red. masses --      1.0854                 1.0863                 1.0492
 Frc consts  --      5.6939                 5.9196                 7.4118
 IR Inten    --     72.7480                51.3779                 2.9721

                     34                     35                     36
                      A                      A                      A
 Frequencies --   3478.8838              3490.5635              3550.0047
 Red. masses --      1.0517                 1.0498                 1.0917
 Frc consts  --      7.4995                 7.5359                 8.1063
 IR Inten    --     11.6551                 0.5872                 2.0863

                     37                     38                     39
                      A                      A                      A
 Frequencies --   3578.6099              3587.1683              3803.3300
 Red. masses --      1.0914                 1.0905                 1.0654
 Frc consts  --      8.2348                 8.2678                 9.0798
 IR Inten    --      2.6305                 7.0381                37.4660

 - Thermochemistry -
 -------------------
 Temperature   298.150 Kelvin.  Pressure   1.00000 Atm.
 Atom     1 has atomic number  7 and mass  14.00307

 Molecular mass:    91.07456 amu.
 Principal axes and moments of inertia in atomic units:
                           1         2         3
     Eigenvalues --   372.86157 629.57242 745.62814
           X            0.99977   0.01794  -0.01161
           Y           -0.01748   0.99912   0.03811
           Z            0.01228  -0.03790   0.99921
 This molecule is an asymmetric top.
 Rotational symmetry number  1.
 Rotational temperatures (Kelvin)      0.23229     0.13758     0.11616
 Rotational constants (GHZ):           4.84024     2.86661     2.42043
 Zero-point vibrational energy     350572.0 (Joules/Mol)
                                   83.78871 (Kcal/Mol)
 Warning -- explicit consideration of  10 degrees of freedom as
           vibrations may cause significant error
 Vibrational temperatures:    180.08   337.75   380.49   413.61   435.94
          (Kelvin)            517.42   547.61   622.00   706.47   825.07
                             1001.61  1185.04  1269.20  1321.42  1333.33
                             1441.47  1509.17  1591.09  1614.79  1695.09
                             1733.45  1850.07  1908.00  2004.09  2016.55
                             2053.25  2091.82  2385.12  2394.37  2394.85
                             4293.12  4375.68  4981.89  5005.33  5022.14
                             5107.66  5148.82  5161.13  5472.14

 Zero-point correction=                           0.133526 (Hartree/Particle)
 Thermal correction to Energy=                    0.140787
 Thermal correction to Enthalpy=                  0.141731
 Thermal correction to Gibbs Free Energy=         0.103203
 Sum of electronic and zero-point Energies=           -320.978897
 Sum of electronic and thermal Energies=              -320.971636
 Sum of electronic and thermal Enthalpies=            -320.970691
 Sum of electronic and thermal Free Energies=         -321.009220

                     E (Thermal)             CV                S
                      KCal/Mol        Cal/Mol-Kelvin    Cal/Mol-Kelvin
 Total                   88.345             26.995             81.090
 Electronic               0.000              0.000              0.000
 Translational            0.889              2.981             39.439
 Rotational               0.889              2.981             26.662
 Vibrational             86.568             21.033             14.989
 Vibration     1          0.610              1.928              3.019
 Vibration     2          0.655              1.788              1.842
 Vibration     3          0.671              1.738              1.632
 Vibration     4          0.685              1.697              1.489
 Vibration     5          0.694              1.668              1.400
 Vibration     6          0.734              1.555              1.124
 Vibration     7          0.750              1.512              1.037
 Vibration     8          0.793              1.400              0.851
 Vibration     9          0.847              1.270              0.681
 Vibration    10          0.930              1.089              0.498

 Normal termination of Gaussian 09 at Thu Sep  8 14:54:46 2022.
