 Gaussian 09, Revision E.01,
 Gaussian 09:  ES64L-G09RevE.01 30-Nov-2015

 ----------------------------
 #P OPT Freq B3LYP/6-31G(d,p)
 ----------------------------

 --------
 Frag_873
 --------
 Symbolic Z-matrix:
 Charge =  0 Multiplicity = 1

 SCF Done:  E(RB3LYP) =  -262.128436260     A.U. after   14 cycles
 SCF Done:  E(RB3LYP) =  -262.128475753     A.U. after   12 cycles
 SCF Done:  E(RB3LYP) =  -262.128200484     A.U. after   13 cycles
 SCF Done:  E(RB3LYP) =  -262.128576652     A.U. after   10 cycles
 SCF Done:  E(RB3LYP) =  -262.128611813     A.U. after   10 cycles
 SCF Done:  E(RB3LYP) =  -262.128611674     A.U. after    8 cycles
 SCF Done:  E(RB3LYP) =  -262.128612296     A.U. after    8 cycles
 Optimization completed.
    -- Stationary point found.
 Normal termination of Gaussian 09 at Thu Sep  8 15:12:48 2022.

 ----------------------------------------------------------------------
 #P Geom=AllCheck Guess=TCheck SCRF=Check GenChk RB3LYP/6-31G(d,p) Freq
 ----------------------------------------------------------------------

 Structure from the checkpoint file:  "B3LYP6-31Gdp.Frag_873.chk"
 --------
 Frag_873
 --------
 Charge =  0 Multiplicity = 1

                         Standard orientation:
 ---------------------------------------------------------------------
 Center     Atomic      Atomic             Coordinates (Angstroms)
 Number     Number       Type             X           Y           Z
 ---------------------------------------------------------------------
      1          7           0       -2.168871    0.088885   -0.000354
      2          6           0       -1.010564    0.015022    0.000619
      3          6           0        0.463199   -0.147473   -0.000015
      4          7           0        1.128396    1.035201   -0.000065
      5          8           0        0.972825   -1.251043   -0.000066
      6          1           0        2.137496    1.013460   -0.000304
      7          1           0        0.647415    1.920990    0.000143
 ---------------------------------------------------------------------

 SCF Done:  E(RB3LYP) =  -262.128612296     A.U. after    1 cycles

 The electronic state is 1-A.
 Alpha  occ. eigenvalues --  -19.15853 -14.40096 -14.36702 -10.35248 -10.25116
 Alpha  occ. eigenvalues --   -1.07870  -0.95159  -0.92525  -0.70796  -0.60232
 Alpha  occ. eigenvalues --   -0.54717  -0.45890  -0.45781  -0.38956  -0.36452
 Alpha  occ. eigenvalues --   -0.35632  -0.30865  -0.29899
 Alpha virt. eigenvalues --   -0.05845   0.00735   0.06003   0.09299   0.10555
 Alpha virt. eigenvalues --    0.16549   0.27589   0.33490   0.38092   0.50136
 Alpha virt. eigenvalues --    0.53737   0.60321   0.61101   0.61181   0.61651

 Mulliken charges:
               1
     1  N   -0.437857
     2  C    0.295283
     3  C    0.579563
     4  N   -0.589401
     5  O   -0.443068
     6  H    0.299133
     7  H    0.296347
 Sum of Mulliken charges =  -0.00000

 Dipole moment (field-independent basis, Debye):
    X=              2.8360    Y=              3.6176    Z=              0.0009  Tot=              4.5967
 Quadrupole moment (field-independent basis, Debye-Ang):
   XX=            -31.3523   YY=            -26.1908   ZZ=            -27.6321
   XY=              4.7353   XZ=             -0.0021   YZ=              0.0000

  Exact polarizability:  45.123  -0.386  33.565   0.006   0.000  15.592
 Approx polarizability:  74.935  -6.286  58.385   0.024  -0.001  21.858

                      1                      2                      3
                      A                      A                      A
 Frequencies --    189.5167               251.0593               278.1234
 Red. masses --      7.2361                 1.3631                 4.1060
 Frc consts  --      0.1531                 0.0506                 0.1871
 IR Inten    --     11.9525               166.1541                84.5363

                      4                      5                      6
                      A                      A                      A
 Frequencies --    481.5443               570.8976               607.0558
 Red. masses --      3.8464                 1.1608                 8.5389
 Frc consts  --      0.5255                 0.2229                 1.8540
 IR Inten    --      5.6495                15.8746                 0.4395

                      7                      8                      9
                      A                      A                      A
 Frequencies --    756.4959               776.1998              1102.4712
 Red. masses --      7.6137                 4.1495                 1.8812
 Frc consts  --      2.5672                 1.4730                 1.3472
 IR Inten    --      9.9929                24.4748                 0.3523

                     10                     11                     12
                      A                      A                      A
 Frequencies --   1346.7460              1623.5377              1817.4093
 Red. masses --      3.7623                 1.2561                10.3923
 Frc consts  --      4.0204                 1.9507                20.2240
 IR Inten    --    170.4358               105.8201               347.6171

                     13                     14                     15
                      A                      A                      A
 Frequencies --   2358.0735              3599.6011              3741.1314
 Red. masses --     12.7189                 1.0453                 1.1066
 Frc consts  --     41.6691                 7.9800                 9.1249
 IR Inten    --     13.0869                76.3864                64.2594

 - Thermochemistry -
 -------------------
 Temperature   298.150 Kelvin.  Pressure   1.00000 Atm.
 Atom     1 has atomic number  7 and mass  14.00307

 Molecular mass:    70.01671 amu.
 Principal axes and moments of inertia in atomic units:
                           1         2         3
     Eigenvalues --   160.28083 424.06299 584.34377
           X            0.99888   0.04729  -0.00000
           Y           -0.04729   0.99888  -0.00000
           Z            0.00000   0.00000   1.00000
 This molecule is an asymmetric top.
 Rotational symmetry number  1.
 Rotational temperatures (Kelvin)      0.54039     0.20425     0.14822
 Rotational constants (GHZ):          11.25987     4.25583     3.08849
 Zero-point vibrational energy     116635.1 (Joules/Mol)
                                   27.87645 (Kcal/Mol)
 Warning -- explicit consideration of   6 degrees of freedom as
           vibrations may cause significant error
 Vibrational temperatures:    272.67   361.22   400.16   692.83   821.39
          (Kelvin)            873.42  1088.43  1116.78  1586.21  1937.66
                             2335.91  2614.84  3392.74  5179.02  5382.65

 Zero-point correction=                           0.044424 (Hartree/Particle)
 Thermal correction to Energy=                    0.049554
 Thermal correction to Enthalpy=                  0.050498
 Thermal correction to Gibbs Free Energy=         0.016498
 Sum of electronic and zero-point Energies=           -262.084188
 Sum of electronic and thermal Energies=              -262.079059
 Sum of electronic and thermal Enthalpies=            -262.078114
 Sum of electronic and thermal Free Energies=         -262.112114

                     E (Thermal)             CV                S
                      KCal/Mol        Cal/Mol-Kelvin    Cal/Mol-Kelvin
 Total                   31.095             16.588             71.559
 Electronic               0.000              0.000              0.000
 Translational            0.889              2.981             38.656
 Rotational               0.889              2.981             25.188
 Vibrational             29.318             10.627              7.715
 Vibration     1          0.633              1.854              2.233
 Vibration     2          0.663              1.761              1.723
 Vibration     3          0.679              1.714              1.545
 Vibration     4          0.838              1.291              0.706
 Vibration     5          0.927              1.094              0.503
 Vibration     6          0.966              1.017              0.438

 Optimization completed.
    -- Stationary point found.
 Normal termination of Gaussian 09 at Thu Sep  8 15:12:54 2022.
