 Gaussian 09, Revision E.01,
 Gaussian 09:  ES64L-G09RevE.01 30-Nov-2015

 --------------------------------
 #P OPT=calcfc Freq B3LYP/6-31G**
 --------------------------------

 --------
 Frag_374
 --------
 Symbolic Z-matrix:
 Charge =  0 Multiplicity = 1

 SCF Done:  E(RB3LYP) =  -187.002786085     A.U. after   11 cycles
 SCF Done:  E(RB3LYP) =  -187.014047426     A.U. after   13 cycles
 SCF Done:  E(RB3LYP) =  -187.013379698     A.U. after   12 cycles
 SCF Done:  E(RB3LYP) =  -187.014100752     A.U. after   10 cycles
 SCF Done:  E(RB3LYP) =  -187.014836648     A.U. after   11 cycles
 SCF Done:  E(RB3LYP) =  -187.014889541     A.U. after   10 cycles
 SCF Done:  E(RB3LYP) =  -187.014890949     A.U. after    8 cycles
 Optimization completed.
    -- Stationary point found.
 Normal termination of Gaussian 09 at Fri Sep 10 15:29:19 2021.

 ----------------------------------------------------------------------
 #P Geom=AllCheck Guess=TCheck SCRF=Check GenChk RB3LYP/6-31G(d,p) Freq
 ----------------------------------------------------------------------

 Structure from the checkpoint file:  "/public/home/users/caep010/.cache/gau_scr/Gau-189940.chk"
 --------
 Frag_374
 --------
 Charge =  0 Multiplicity = 1

                         Standard orientation:
 ---------------------------------------------------------------------
 Center     Atomic      Atomic             Coordinates (Angstroms)
 Number     Number       Type             X           Y           Z
 ---------------------------------------------------------------------
      1          7           0       -1.149920   -0.306450    0.054367
      2          8           0       -0.000001    0.561207   -0.000001
      3          7           0        1.149922   -0.306451   -0.054368
      4          1           0       -1.840590    0.311161    0.484236
      5          1           0       -1.439692   -0.410839   -0.923044
      6          1           0        1.840592    0.311168   -0.484225
      7          1           0        1.439687   -0.410838    0.923046
 ---------------------------------------------------------------------

 SCF Done:  E(RB3LYP) =  -187.014890949     A.U. after    1 cycles

 The electronic state is 1-A.
 Alpha  occ. eigenvalues --  -19.19230 -14.36418 -14.36417  -1.07473  -0.86823
 Alpha  occ. eigenvalues --   -0.73191  -0.51614  -0.49538  -0.45984  -0.42306
 Alpha  occ. eigenvalues --   -0.32467  -0.25495  -0.22741
 Alpha virt. eigenvalues --    0.07679   0.09757   0.10150   0.15175   0.15384
 Alpha virt. eigenvalues --    0.16594   0.61331   0.65165   0.66289   0.67232
 Alpha virt. eigenvalues --    0.75354   0.80900   0.83887   0.84645   0.85390

 Mulliken charges:
               1
     1  N   -0.325239
     2  O   -0.365598
     3  N   -0.325239
     4  H    0.255153
     5  H    0.252886
     6  H    0.255152
     7  H    0.252886
 Sum of Mulliken charges =  -0.00000

 Dipole moment (field-independent basis, Debye):
    X=             -0.0000    Y=              1.1225    Z=              0.0000  Tot=              1.1225
 Quadrupole moment (field-independent basis, Debye-Ang):
   XX=            -11.2407   YY=            -21.1969   ZZ=            -16.7776
   XY=              0.0000   XZ=              1.6747   YZ=              0.0000

  Exact polarizability:  30.920   0.000  15.225   0.669   0.000  17.989
 Approx polarizability:  37.884   0.000  22.086   0.120   0.000  23.401

                      1                      2                      3
                      A                      A                      A
 Frequencies --    138.0570               176.2376               515.8430
 Red. masses --      1.1501                 1.1695                 3.9638
 Frc consts  --      0.0129                 0.0214                 0.6214
 IR Inten    --     21.0493               117.2278                 9.1101

                      4                      5                      6
                      A                      A                      A
 Frequencies --    886.2740               892.7327              1164.2639
 Red. masses --      4.6953                 7.0364                 1.1856
 Frc consts  --      2.1729                 3.3040                 0.9469
 IR Inten    --      7.6636                 2.3097               115.4630

                      7                      8                      9
                      A                      A                      A
 Frequencies --   1234.5903              1320.6712              1363.7166
 Red. masses --      1.4678                 1.1338                 1.1685
 Frc consts  --      1.3181                 1.1652                 1.2804
 IR Inten    --     34.4606                 0.9995                 0.0001

                     10                     11                     12
                      A                      A                      A
 Frequencies --   1630.3487              1651.2971              3393.4768
 Red. masses --      1.0716                 1.0634                 1.0516
 Frc consts  --      1.6782                 1.7085                 7.1352
 IR Inten    --     16.6921                 4.7283                15.3056

                     13                     14                     15
                      A                      A                      A
 Frequencies --   3397.2347              3517.5244              3518.3095
 Red. masses --      1.0509                 1.0913                 1.0912
 Frc consts  --      7.1459                 7.9556                 7.9580
 IR Inten    --      0.7831                 1.6865                 0.0838

 - Thermochemistry -
 -------------------
 Temperature   298.150 Kelvin.  Pressure   1.00000 Atm.
 Atom     1 has atomic number  7 and mass  14.00307

 Molecular mass:    48.03236 amu.
 Principal axes and moments of inertia in atomic units:
                           1         2         3
     Eigenvalues --    37.34850 179.66821 200.90206
           X            0.99982   0.00000   0.01897
           Y           -0.00000   1.00000   0.00000
           Z           -0.01897  -0.00000   0.99982
 This molecule is an asymmetric top.
 Rotational symmetry number  1.
 Rotational temperatures (Kelvin)      2.31907     0.48208     0.43112
 Rotational constants (GHZ):          48.32165    10.04486     8.98319
 Zero-point vibrational energy     148340.4 (Joules/Mol)
                                   35.45420 (Kcal/Mol)
 Warning -- explicit consideration of   3 degrees of freedom as
           vibrations may cause significant error
 Vibrational temperatures:    198.63   253.57   742.18  1275.15  1284.44
          (Kelvin)           1675.11  1776.30  1900.15  1962.08  2345.71
                             2375.85  4882.45  4887.86  5060.93  5062.06

 Zero-point correction=                           0.056500 (Hartree/Particle)
 Thermal correction to Energy=                    0.060979
 Thermal correction to Enthalpy=                  0.061923
 Thermal correction to Gibbs Free Energy=         0.030749
 Sum of electronic and zero-point Energies=           -186.958391
 Sum of electronic and thermal Energies=              -186.953912
 Sum of electronic and thermal Enthalpies=            -186.952968
 Sum of electronic and thermal Free Energies=         -186.984142

                     E (Thermal)             CV                S
                      KCal/Mol        Cal/Mol-Kelvin    Cal/Mol-Kelvin
 Total                   38.265             12.754             65.611
 Electronic               0.000              0.000              0.000
 Translational            0.889              2.981             37.532
 Rotational               0.889              2.981             21.827
 Vibrational             36.487              6.793              6.252
 Vibration     1          0.614              1.915              2.831
 Vibration     2          0.628              1.872              2.368
 Vibration     3          0.871              1.215              0.620

 Normal termination of Gaussian 09 at Fri Sep 10 15:29:24 2021.
