 Gaussian 09, Revision E.01,
 Gaussian 09:  ES64L-G09RevE.01 30-Nov-2015

 ----------------------------
 #P OPT Freq B3LYP/6-31G(d,p)
 ----------------------------

 --------
 Frag_851
 --------
 Symbolic Z-matrix:
 Charge =  0 Multiplicity = 1

 SCF Done:  E(RB3LYP) =  -189.208524194     A.U. after   16 cycles
 SCF Done:  E(RB3LYP) =  -189.208611421     A.U. after   11 cycles
 SCF Done:  E(RB3LYP) =  -189.208626044     A.U. after   10 cycles
 SCF Done:  E(RB3LYP) =  -189.208630998     A.U. after    9 cycles
 SCF Done:  E(RB3LYP) =  -189.208632197     A.U. after    8 cycles
 Optimization completed.
    -- Stationary point found.
 Normal termination of Gaussian 09 at Thu Sep  8 15:18:16 2022.

 ----------------------------------------------------------------------
 #P Geom=AllCheck Guess=TCheck SCRF=Check GenChk RB3LYP/6-31G(d,p) Freq
 ----------------------------------------------------------------------

 Structure from the checkpoint file:  "B3LYP6-31Gdp.Frag_851.chk"
 --------
 Frag_851
 --------
 Charge =  0 Multiplicity = 1

                         Standard orientation:
 ---------------------------------------------------------------------
 Center     Atomic      Atomic             Coordinates (Angstroms)
 Number     Number       Type             X           Y           Z
 ---------------------------------------------------------------------
      1          6           0       -1.918875   -0.026317    0.091789
      2          6           0       -0.615400    0.279686   -0.084102
      3          7           0        0.423511   -0.617991   -0.153923
      4          7           0        1.650497    0.122221    0.085411
      5          1           0       -2.681538    0.735628   -0.015228
      6          1           0       -2.236297   -1.047086    0.275758
      7          1           0       -0.370470    1.347857   -0.250467
      8          1           0        1.840951    0.353522    1.080002
      9          1           0        2.421583   -0.466904   -0.232156
     10          1           0        1.713365    1.027162   -0.424440
 ---------------------------------------------------------------------

 SCF Done:  E(RB3LYP) =  -189.208632197     A.U. after    1 cycles

 The electronic state is 1-A.
 Alpha  occ. eigenvalues --  -14.47579 -14.28639 -10.17426 -10.11479  -1.01805
 Alpha  occ. eigenvalues --   -0.80625  -0.67304  -0.59367  -0.57390  -0.51135
 Alpha  occ. eigenvalues --   -0.47319  -0.37270  -0.34091  -0.27845  -0.24489
 Alpha  occ. eigenvalues --   -0.14109
 Alpha virt. eigenvalues --    0.01501   0.05976   0.08452   0.11391   0.12190
 Alpha virt. eigenvalues --    0.19124   0.20307   0.23295   0.35705   0.38004
 Alpha virt. eigenvalues --    0.54465   0.57999   0.59547   0.62600   0.66140

 Mulliken charges:
               1
     1  C   -0.310510
     2  C    0.139904
     3  N   -0.476219
     4  N   -0.382712
     5  H    0.059352
     6  H    0.069617
     7  H    0.004185
     8  H    0.292500
     9  H    0.326632
    10  H    0.277251
 Sum of Mulliken charges =   0.00000

 Dipole moment (field-independent basis, Debye):
    X=              5.8805    Y=              2.4954    Z=              0.6348  Tot=              6.4196
 Quadrupole moment (field-independent basis, Debye-Ang):
   XX=            -16.0007   YY=            -25.8778   ZZ=            -26.3424
   XY=              1.7235   XZ=              0.8786   YZ=             -0.6022

  Exact polarizability:  69.756   4.187  35.827  -0.121  -1.549  21.701
 Approx polarizability: 103.275   5.723  53.068  -2.165  -1.196  30.042

                      1                      2                      3
                      A                      A                      A
 Frequencies --    149.3563               203.2038               331.7463
 Red. masses --      2.2602                 1.1257                 2.2894
 Frc consts  --      0.0297                 0.0274                 0.1484
 IR Inten    --     21.6262                 6.7593                17.8936

                      4                      5                      6
                      A                      A                      A
 Frequencies --    544.6002               668.3455               746.6896
 Red. masses --      2.9023                 1.3490                 1.6813
 Frc consts  --      0.5072                 0.3550                 0.5523
 IR Inten    --     13.7305                10.1413                56.8982

                      7                      8                      9
                      A                      A                      A
 Frequencies --    774.2998               965.8853               994.5840
 Red. masses --      3.9969                 1.2530                 1.7596
 Frc consts  --      1.4118                 0.6887                 1.0255
 IR Inten    --     32.1021                 3.7622                35.9062

                     10                     11                     12
                      A                      A                      A
 Frequencies --   1064.3646              1091.3023              1275.8360
 Red. masses --      1.2251                 1.3402                 2.9005
 Frc consts  --      0.8177                 0.9404                 2.7817
 IR Inten    --     61.7241                21.9725                79.0808

                     13                     14                     15
                      A                      A                      A
 Frequencies --   1342.7199              1449.6680              1493.2054
 Red. masses --      1.2270                 1.2048                 1.1791
 Frc consts  --      1.3034                 1.4918                 1.5489
 IR Inten    --      7.2883                15.8971                 8.7866

                     16                     17                     18
                      A                      A                      A
 Frequencies --   1623.5327              1670.2270              1689.4304
 Red. masses --      1.0659                 1.1156                 3.3368
 Frc consts  --      1.6553                 1.8336                 5.6113
 IR Inten    --     60.1168               102.2011               116.7165

                     19                     20                     21
                      A                      A                      A
 Frequencies --   2915.9264              3144.7240              3155.3728
 Red. masses --      1.0836                 1.0924                 1.0376
 Frc consts  --      5.4284                 6.3651                 6.0867
 IR Inten    --    108.3903                61.8238               207.8226

                     22                     23                     24
                      A                      A                      A
 Frequencies --   3169.6843              3259.0141              3503.7868
 Red. masses --      1.0580                 1.1169                 1.0791
 Frc consts  --      6.2628                 6.9892                 7.8051
 IR Inten    --      4.5350                21.3480                48.0527

 - Thermochemistry -
 -------------------
 Temperature   298.150 Kelvin.  Pressure   1.00000 Atm.
 Atom     1 has atomic number  6 and mass  12.00000

 Molecular mass:    58.05310 amu.
 Principal axes and moments of inertia in atomic units:
                           1         2         3
     Eigenvalues --    48.15362 415.08684 448.00386
           X            0.99993   0.01143   0.00132
           Y           -0.01133   0.99807  -0.06112
           Z           -0.00201   0.06111   0.99813
 This molecule is an asymmetric top.
 Rotational symmetry number  1.
 Rotational temperatures (Kelvin)      1.79870     0.20866     0.19333
 Rotational constants (GHZ):          37.47883     4.34786     4.02841
 Zero-point vibrational energy     222669.9 (Joules/Mol)
                                   53.21939 (Kcal/Mol)
 Warning -- explicit consideration of   4 degrees of freedom as
           vibrations may cause significant error
 Vibrational temperatures:    214.89   292.36   477.31   783.56   961.60
          (Kelvin)           1074.32  1114.04  1389.69  1430.98  1531.38
                             1570.14  1835.64  1931.87  2085.75  2148.39
                             2335.90  2403.08  2430.71  4195.36  4524.55
                             4539.87  4560.46  4688.99  5041.16

 Zero-point correction=                           0.084810 (Hartree/Particle)
 Thermal correction to Energy=                    0.089900
 Thermal correction to Enthalpy=                  0.090845
 Thermal correction to Gibbs Free Energy=         0.057745
 Sum of electronic and zero-point Energies=           -189.123822
 Sum of electronic and thermal Energies=              -189.118732
 Sum of electronic and thermal Enthalpies=            -189.117788
 Sum of electronic and thermal Free Energies=         -189.150887

                     E (Thermal)             CV                S
                      KCal/Mol        Cal/Mol-Kelvin    Cal/Mol-Kelvin
 Total                   56.413             16.773             69.664
 Electronic               0.000              0.000              0.000
 Translational            0.889              2.981             38.097
 Rotational               0.889              2.981             23.708
 Vibrational             54.636             10.811              7.859
 Vibration     1          0.618              1.903              2.680
 Vibration     2          0.639              1.835              2.104
 Vibration     3          0.714              1.612              1.252
 Vibration     4          0.900              1.152              0.555

 Normal termination of Gaussian 09 at Thu Sep  8 15:18:23 2022.
