 Gaussian 09, Revision E.01,
 Gaussian 09:  ES64L-G09RevE.01 30-Nov-2015

 ----------------------------
 #P OPT Freq B3LYP/6-31G(d,p)
 ----------------------------

 ---------
 Frag_1071
 ---------
 Symbolic Z-matrix:
 Charge =  0 Multiplicity = 1

 SCF Done:  E(RB3LYP) =  -157.238504078     A.U. after   11 cycles
 SCF Done:  E(RB3LYP) =  -157.238526696     A.U. after    7 cycles
 SCF Done:  E(RB3LYP) =  -157.238527386     A.U. after    6 cycles
 Optimization completed.
    -- Stationary point found.
 Normal termination of Gaussian 09 at Thu Sep  8 14:48:51 2022.

 ----------------------------------------------------------------------
 #P Geom=AllCheck Guess=TCheck SCRF=Check GenChk RB3LYP/6-31G(d,p) Freq
 ----------------------------------------------------------------------

 Structure from the checkpoint file:  "B3LYP6-31Gdp.Frag_1071.chk"
 ---------
 Frag_1071
 ---------
 Charge =  0 Multiplicity = 1

                         Standard orientation:
 ---------------------------------------------------------------------
 Center     Atomic      Atomic             Coordinates (Angstroms)
 Number     Number       Type             X           Y           Z
 ---------------------------------------------------------------------
      1          6           0       -1.962647    0.079265   -0.000001
      2          6           0       -0.538000   -0.395168   -0.000002
      3          6           0        0.538000    0.395168    0.000002
      4          6           0        1.962647   -0.079265    0.000001
      5          1           0       -2.022448    1.172016   -0.000104
      6          1           0       -2.506462   -0.289286   -0.879304
      7          1           0       -2.506398   -0.289109    0.879417
      8          1           0       -0.391668   -1.476897    0.000003
      9          1           0        0.391668    1.476897   -0.000004
     10          1           0        2.506401    0.289115   -0.879413
     11          1           0        2.506459    0.289281    0.879309
     12          1           0        2.022448   -1.172016    0.000098
 ---------------------------------------------------------------------

 SCF Done:  E(RB3LYP) =  -157.238527386     A.U. after    1 cycles

 The electronic state is 1-A.
 Alpha  occ. eigenvalues --  -10.17814 -10.17735 -10.17713 -10.17706  -0.78939
 Alpha  occ. eigenvalues --   -0.72191  -0.63722  -0.53988  -0.43716  -0.43431
 Alpha  occ. eigenvalues --   -0.40991  -0.39673  -0.36837  -0.35549  -0.33438
 Alpha  occ. eigenvalues --   -0.23513
 Alpha virt. eigenvalues --    0.03554   0.12135   0.12217   0.12697   0.17277
 Alpha virt. eigenvalues --    0.17652   0.18412   0.18617   0.18699   0.24661
 Alpha virt. eigenvalues --    0.30747   0.43093   0.49688   0.51335   0.53753

 Mulliken charges:
               1
     1  C   -0.350362
     2  C   -0.053982
     3  C   -0.053984
     4  C   -0.350363
     5  H    0.107037
     6  H    0.112733
     7  H    0.112736
     8  H    0.071840
     9  H    0.071840
    10  H    0.112736
    11  H    0.112733
    12  H    0.107037
 Sum of Mulliken charges =  -0.00000

 Dipole moment (field-independent basis, Debye):
    X=             -0.0000    Y=             -0.0000    Z=              0.0000  Tot=              0.0000
 Quadrupole moment (field-independent basis, Debye-Ang):
   XX=            -25.0642   YY=            -25.3827   ZZ=            -27.5654
   XY=              0.3140   XZ=             -0.0000   YZ=              0.0000

  Exact polarizability:  60.646   5.208  42.008  -0.000   0.000  29.737
 Approx polarizability:  77.353  12.959  61.637  -0.000  -0.000  40.567

                      1                      2                      3
                      A                      A                      A
 Frequencies --    181.8298               234.4587               247.2081
 Red. masses --      1.0804                 1.2626                 2.0845
 Frc consts  --      0.0210                 0.0409                 0.0751
 IR Inten    --      1.2869                 0.0000                 2.7345

                      4                      5                      6
                      A                      A                      A
 Frequencies --    283.5701               501.2204               756.1968
 Red. masses --      2.3432                 2.7574                 1.2991
 Frc consts  --      0.1110                 0.4081                 0.4377
 IR Inten    --      1.0836                 0.0000                 0.0000

                      7                      8                      9
                      A                      A                      A
 Frequencies --    880.2149               992.2019              1010.1615
 Red. masses --      1.7382                 1.2327                 1.0543
 Frc consts  --      0.7934                 0.7150                 0.6338
 IR Inten    --      0.0000                14.4673                24.6676

                     10                     11                     12
                      A                      A                      A
 Frequencies --   1068.9565              1073.9162              1082.3880
 Red. masses --      1.6086                 1.4427                 3.3336
 Frc consts  --      1.0830                 0.9803                 2.3011
 IR Inten    --      0.0000                 0.3010                 1.7744

                     13                     14                     15
                      A                      A                      A
 Frequencies --   1172.2094              1336.1041              1338.7826
 Red. masses --      2.0153                 1.2812                 1.2568
 Frc consts  --      1.6316                 1.3476                 1.3272
 IR Inten    --      0.0000                 5.9520                 0.0000

                     16                     17                     18
                      A                      A                      A
 Frequencies --   1426.6256              1428.3150              1494.2895
 Red. masses --      1.2794                 1.2535                 1.0442
 Frc consts  --      1.5342                 1.5067                 1.3737
 IR Inten    --      2.2157                 0.0000                10.6607

                     19                     20                     21
                      A                      A                      A
 Frequencies --   1494.5354              1503.3152              1511.2722
 Red. masses --      1.0453                 1.0592                 1.0447
 Frc consts  --      1.3756                 1.4104                 1.4059
 IR Inten    --      0.0000                 0.0000                13.2320

                     22                     23                     24
                      A                      A                      A
 Frequencies --   1760.9462              3024.7598              3025.4353
 Red. masses --      5.7147                 1.0375                 1.0373
 Frc consts  --     10.4409                 5.5929                 5.5940
 IR Inten    --      0.0000                72.4722                 0.0000

                     25                     26                     27
                      A                      A                      A
 Frequencies --   3073.4717              3073.7177              3110.3086
 Red. masses --      1.1000                 1.1001                 1.0978
 Frc consts  --      6.1219                 6.1235                 6.2571
 IR Inten    --     57.1632                 0.0000                16.9922

                     28                     29                     30
                      A                      A                      A
 Frequencies --   3112.1692              3129.6011              3137.0523
 Red. masses --      1.0978                 1.0941                 1.0882
 Frc consts  --      6.2646                 6.3137                 6.3098
 IR Inten    --      0.0000                 0.0000                82.4221

 - Thermochemistry -
 -------------------
 Temperature   298.150 Kelvin.  Pressure   1.00000 Atm.
 Atom     1 has atomic number  6 and mass  12.00000

 Molecular mass:    56.06260 amu.
 Principal axes and moments of inertia in atomic units:
                           1         2         3
     Eigenvalues --    51.83250 487.07386 516.64217
           X            0.99998  -0.00557  -0.00000
           Y            0.00557   0.99998  -0.00000
           Z            0.00000   0.00000   1.00000
 This molecule is an asymmetric top.
 Rotational symmetry number  1.
 Rotational temperatures (Kelvin)      1.67103     0.17782     0.16765
 Rotational constants (GHZ):          34.81872     3.70527     3.49321
 Zero-point vibrational energy     283905.1 (Joules/Mol)
                                   67.85496 (Kcal/Mol)
 Warning -- explicit consideration of   5 degrees of freedom as
           vibrations may cause significant error
 Vibrational temperatures:    261.61   337.33   355.68   407.99   721.14
          (Kelvin)           1088.00  1266.43  1427.56  1453.40  1537.99
                             1545.12  1557.31  1686.55  1922.35  1926.21
                             2052.59  2055.02  2149.95  2150.30  2162.93
                             2174.38  2533.61  4351.95  4352.92  4422.03
                             4422.39  4475.03  4477.71  4502.79  4513.51

 Zero-point correction=                           0.108134 (Hartree/Particle)
 Thermal correction to Energy=                    0.113598
 Thermal correction to Enthalpy=                  0.114542
 Thermal correction to Gibbs Free Energy=         0.080754
 Sum of electronic and zero-point Energies=           -157.130394
 Sum of electronic and thermal Energies=              -157.124929
 Sum of electronic and thermal Enthalpies=            -157.123985
 Sum of electronic and thermal Free Energies=         -157.157773

                     E (Thermal)             CV                S
                      KCal/Mol        Cal/Mol-Kelvin    Cal/Mol-Kelvin
 Total                   71.284             18.252             71.113
 Electronic               0.000              0.000              0.000
 Translational            0.889              2.981             37.993
 Rotational               0.889              2.981             24.082
 Vibrational             69.506             12.290              9.038
 Vibration     1          0.630              1.864              2.310
 Vibration     2          0.654              1.788              1.845
 Vibration     3          0.661              1.767              1.750
 Vibration     4          0.682              1.704              1.512
 Vibration     5          0.857              1.247              0.655

 Optimization completed.
    -- Stationary point found.
 Normal termination of Gaussian 09 at Thu Sep  8 14:48:58 2022.
