 Gaussian 09, Revision E.01,
 Gaussian 09:  ES64L-G09RevE.01 30-Nov-2015

 ----------------------------
 #P OPT Freq B3LYP/6-31G(d,p)
 ----------------------------

 --------
 Frag_962
 --------
 Symbolic Z-matrix:
 Charge =  0 Multiplicity = 1

 SCF Done:  E(RB3LYP) =  -228.615734158     A.U. after   13 cycles
 SCF Done:  E(RB3LYP) =  -228.615768693     A.U. after    8 cycles
 SCF Done:  E(RB3LYP) =  -228.615770036     A.U. after    7 cycles
 SCF Done:  E(RB3LYP) =  -228.615770329     A.U. after    7 cycles
 Optimization completed.
    -- Stationary point found.
 Normal termination of Gaussian 09 at Thu Sep  8 15:22:30 2022.

 ----------------------------------------------------------------------
 #P Geom=AllCheck Guess=TCheck SCRF=Check GenChk RB3LYP/6-31G(d,p) Freq
 ----------------------------------------------------------------------

 Structure from the checkpoint file:  "B3LYP6-31Gdp.Frag_962.chk"
 --------
 Frag_962
 --------
 Charge =  0 Multiplicity = 1

                         Standard orientation:
 ---------------------------------------------------------------------
 Center     Atomic      Atomic             Coordinates (Angstroms)
 Number     Number       Type             X           Y           Z
 ---------------------------------------------------------------------
      1          6           0        2.118323   -0.017323   -0.158131
      2          6           0        0.922448   -0.069370    0.428254
      3          6           0       -0.397509   -0.004338   -0.305661
      4          7           0       -1.230717   -1.131077    0.109476
      5          7           0       -1.180296    1.201640   -0.011424
      6          1           0        2.217755    0.046733   -1.239706
      7          1           0        3.041501   -0.035304    0.413417
      8          1           0        0.838621   -0.143478    1.513083
      9          1           0       -0.185562    0.022492   -1.389859
     10          1           0       -0.781338   -2.009127   -0.136890
     11          1           0       -2.115697   -1.080999   -0.390637
     12          1           0       -0.628980    2.027703   -0.232717
     13          1           0       -1.368786    1.224224    0.990174
 ---------------------------------------------------------------------

 SCF Done:  E(RB3LYP) =  -228.615770329     A.U. after    1 cycles

 The electronic state is 1-A.
 Alpha  occ. eigenvalues --  -14.31168 -14.30953 -10.23790 -10.18391 -10.18125
 Alpha  occ. eigenvalues --   -0.91465  -0.83092  -0.76276  -0.63375  -0.55947
 Alpha  occ. eigenvalues --   -0.50939  -0.48097  -0.44897  -0.41668  -0.40146
 Alpha  occ. eigenvalues --   -0.38462  -0.35435  -0.27289  -0.24029  -0.23169
 Alpha virt. eigenvalues --    0.01546   0.09045   0.11501   0.12807   0.13736
 Alpha virt. eigenvalues --    0.15917   0.17764   0.18472   0.20046   0.24253
 Alpha virt. eigenvalues --    0.26691   0.30685   0.36919   0.51883   0.54487

 Mulliken charges:
               1
     1  C   -0.252973
     2  C   -0.014255
     3  C    0.125395
     4  N   -0.595127
     5  N   -0.579937
     6  H    0.093495
     7  H    0.099525
     8  H    0.086808
     9  H    0.074503
    10  H    0.238814
    11  H    0.246037
    12  H    0.236350
    13  H    0.241367
 Sum of Mulliken charges =  -0.00000

 Dipole moment (field-independent basis, Debye):
    X=              0.9189    Y=             -0.0454    Z=             -0.4480  Tot=              1.0233
 Quadrupole moment (field-independent basis, Debye-Ang):
   XX=            -32.9145   YY=            -29.3707   ZZ=            -30.6428
   XY=              1.5704   XZ=              0.4212   YZ=              2.6762

  Exact polarizability:  60.969  -0.468  38.320  -4.260  -0.427  41.269
 Approx polarizability:  84.527  -1.542  51.063 -10.666  -1.721  59.849

                      1                      2                      3
                      A                      A                      A
 Frequencies --    111.2709               287.1288               308.9758
 Red. masses --      2.6165                 1.1293                 1.2194
 Frc consts  --      0.0191                 0.0549                 0.0686
 IR Inten    --      0.4723                48.0764                16.2702

                      4                      5                      6
                      A                      A                      A
 Frequencies --    329.1076               346.8711               424.8762
 Red. masses --      1.9528                 1.6837                 2.5680
 Frc consts  --      0.1246                 0.1194                 0.2731
 IR Inten    --     12.1940                15.9939                 9.1784

                      7                      8                      9
                      A                      A                      A
 Frequencies --    567.4323               704.2916               841.5392
 Red. masses --      3.0793                 1.7431                 1.6325
 Frc consts  --      0.5842                 0.5094                 0.6811
 IR Inten    --      4.3652                16.7660                97.4681

                     10                     11                     12
                      A                      A                      A
 Frequencies --    901.2790               923.6950               946.5192
 Red. masses --      1.5014                 1.4532                 1.3586
 Frc consts  --      0.7186                 0.7305                 0.7171
 IR Inten    --    111.4521               184.9819                31.5869

                     13                     14                     15
                      A                      A                      A
 Frequencies --    997.7386              1034.4857              1060.4108
 Red. masses --      2.3261                 1.1231                 1.3959
 Frc consts  --      1.3643                 0.7082                 0.9248
 IR Inten    --      3.4598                15.1619                 5.5420

                     16                     17                     18
                      A                      A                      A
 Frequencies --   1152.4812              1231.9721              1290.6095
 Red. masses --      1.9640                 1.6714                 1.2932
 Frc consts  --      1.5370                 1.4947                 1.2691
 IR Inten    --     30.8409                 9.1200                 4.9973

                     19                     20                     21
                      A                      A                      A
 Frequencies --   1313.5984              1378.5637              1413.4143
 Red. masses --      1.3581                 1.3980                 1.2982
 Frc consts  --      1.3808                 1.5653                 1.5281
 IR Inten    --      4.1234                28.1976                15.3763

                     22                     23                     24
                      A                      A                      A
 Frequencies --   1469.7985              1643.1696              1647.6017
 Red. masses --      1.2355                 1.1037                 1.1044
 Frc consts  --      1.5725                 1.7557                 1.7664
 IR Inten    --     16.3417                45.8407                26.1455

                     25                     26                     27
                      A                      A                      A
 Frequencies --   1722.4040              2946.9052              3141.3927
 Red. masses --      4.5539                 1.0834                 1.0643
 Frc consts  --      7.9599                 5.5432                 6.1881
 IR Inten    --      1.9149                72.9055                19.0325

                     28                     29                     30
                      A                      A                      A
 Frequencies --   3152.0725              3231.5025              3477.4018
 Red. masses --      1.0868                 1.1151                 1.0497
 Frc consts  --      6.3618                 6.8609                 7.4787
 IR Inten    --      3.3319                18.1836                 0.5460

                     31                     32                     33
                      A                      A                      A
 Frequencies --   3492.4415              3574.8539              3588.6240
 Red. masses --      1.0492                 1.0920                 1.0932
 Frc consts  --      7.5399                 8.2221                 8.2951
 IR Inten    --      0.4386                 0.1257                 0.4123

 - Thermochemistry -
 -------------------
 Temperature   298.150 Kelvin.  Pressure   1.00000 Atm.
 Atom     1 has atomic number  6 and mass  12.00000

 Molecular mass:    72.06875 amu.
 Principal axes and moments of inertia in atomic units:
                           1         2         3
     Eigenvalues --   214.59184 500.12600 636.53491
           X            0.99995   0.00974  -0.00188
           Y           -0.00969   0.99953   0.02898
           Z            0.00217  -0.02896   0.99958
 This molecule is an asymmetric top.
 Rotational symmetry number  1.
 Rotational temperatures (Kelvin)      0.40362     0.17318     0.13607
 Rotational constants (GHZ):           8.41011     3.60857     2.83526
 Zero-point vibrational energy     302980.8 (Joules/Mol)
                                   72.41414 (Kcal/Mol)
 Warning -- explicit consideration of   7 degrees of freedom as
           vibrations may cause significant error
 Vibrational temperatures:    160.09   413.11   444.55   473.51   499.07
          (Kelvin)            611.30   816.41  1013.32  1210.79  1296.74
                             1328.99  1361.83  1435.52  1488.39  1525.69
                             1658.16  1772.53  1856.90  1889.97  1983.44
                             2033.59  2114.71  2364.15  2370.53  2478.15
                             4239.93  4519.76  4535.12  4649.41  5003.20
                             5024.84  5143.41  5163.22

 Zero-point correction=                           0.115399 (Hartree/Particle)
 Thermal correction to Energy=                    0.121515
 Thermal correction to Enthalpy=                  0.122460
 Thermal correction to Gibbs Free Energy=         0.086483
 Sum of electronic and zero-point Energies=           -228.500371
 Sum of electronic and thermal Energies=              -228.494255
 Sum of electronic and thermal Enthalpies=            -228.493311
 Sum of electronic and thermal Free Energies=         -228.529288

                     E (Thermal)             CV                S
                      KCal/Mol        Cal/Mol-Kelvin    Cal/Mol-Kelvin
 Total                   76.252             21.960             75.720
 Electronic               0.000              0.000              0.000
 Translational            0.889              2.981             38.742
 Rotational               0.889              2.981             25.727
 Vibrational             74.475             15.999             11.251
 Vibration     1          0.607              1.940              3.247
 Vibration     2          0.684              1.698              1.491
 Vibration     3          0.698              1.657              1.368
 Vibration     4          0.712              1.617              1.264
 Vibration     5          0.725              1.582              1.180
 Vibration     6          0.787              1.416              0.876
 Vibration     7          0.923              1.102              0.509

 Optimization completed.
    -- Stationary point found.
 Normal termination of Gaussian 09 at Thu Sep  8 15:22:40 2022.
