 Gaussian 09, Revision E.01,
 Gaussian 09:  ES64L-G09RevE.01 30-Nov-2015

 ----------------------------
 #P OPT Freq B3LYP/6-31G(d,p)
 ----------------------------

 --------
 Frag_596
 --------
 Symbolic Z-matrix:
 Charge =  0 Multiplicity = 1

 SCF Done:  E(RB3LYP) =  -307.669998047     A.U. after   14 cycles
 SCF Done:  E(RB3LYP) =  -307.670068281     A.U. after    9 cycles
 SCF Done:  E(RB3LYP) =  -307.670070950     A.U. after    8 cycles
 SCF Done:  E(RB3LYP) =  -307.670071371     A.U. after    7 cycles
 SCF Done:  E(RB3LYP) =  -307.670071501     A.U. after    7 cycles
 Optimization completed.
    -- Stationary point found.
 Normal termination of Gaussian 09 at Thu Sep  8 14:57:11 2022.

 ----------------------------------------------------------------------
 #P Geom=AllCheck Guess=TCheck SCRF=Check GenChk RB3LYP/6-31G(d,p) Freq
 ----------------------------------------------------------------------

 Structure from the checkpoint file:  "B3LYP6-31Gdp.Frag_596.chk"
 --------
 Frag_596
 --------
 Charge =  0 Multiplicity = 1

                         Standard orientation:
 ---------------------------------------------------------------------
 Center     Atomic      Atomic             Coordinates (Angstroms)
 Number     Number       Type             X           Y           Z
 ---------------------------------------------------------------------
      1          6           0        1.845601   -0.766373   -0.451526
      2          6           0        0.797366   -0.053474   -0.033738
      3          8           0        0.876206    1.038340    0.796887
      4          6           0       -0.649393   -0.321586   -0.388889
      5          6           0       -1.448342   -0.828289    0.818953
      6          8           0       -1.247939    0.846146   -0.948203
      7          1           0        1.706142   -1.605111   -1.121607
      8          1           0        2.862082   -0.538905   -0.141493
      9          1           0        1.804931    1.242459    0.970679
     10          1           0       -0.670649   -1.074736   -1.182185
     11          1           0       -1.405943   -0.103174    1.637656
     12          1           0       -1.049539   -1.780005    1.184754
     13          1           0       -2.493581   -0.968753    0.530936
     14          1           0       -1.050975    1.570671   -0.337018
 ---------------------------------------------------------------------

 SCF Done:  E(RB3LYP) =  -307.670071501     A.U. after    1 cycles

 The electronic state is 1-A.
 Alpha  occ. eigenvalues --  -19.18625 -19.13566 -10.24701 -10.23869 -10.17367
 Alpha  occ. eigenvalues --  -10.17264  -1.06589  -1.00847  -0.77860  -0.72423
 Alpha  occ. eigenvalues --   -0.63894  -0.59788  -0.50324  -0.49156  -0.44110
 Alpha  occ. eigenvalues --   -0.43862  -0.40986  -0.40765  -0.37682  -0.36392
 Alpha  occ. eigenvalues --   -0.35812  -0.32381  -0.26314  -0.23317
 Alpha virt. eigenvalues --    0.03176   0.05742   0.11347   0.12353   0.13964
 Alpha virt. eigenvalues --    0.15110   0.16932   0.17867   0.19273   0.23038
 Alpha virt. eigenvalues --    0.23744   0.27350   0.32682   0.37355   0.51892

 Mulliken charges:
               1
     1  C   -0.332378
     2  C    0.370415
     3  O   -0.556620
     4  C    0.126061
     5  C   -0.318490
     6  O   -0.541532
     7  H    0.102656
     8  H    0.080830
     9  H    0.320842
    10  H    0.103999
    11  H    0.111896
    12  H    0.103864
    13  H    0.116389
    14  H    0.312069
 Sum of Mulliken charges =   0.00000

 Dipole moment (field-independent basis, Debye):
    X=              1.7214    Y=             -0.0424    Z=              1.4198  Tot=              2.2318
 Quadrupole moment (field-independent basis, Debye-Ang):
   XX=            -33.8894   YY=            -34.1573   ZZ=            -39.0845
   XY=              2.7286   XZ=             -0.1866   YZ=              3.0189

  Exact polarizability:  59.428  -4.671  47.879  -2.254   7.200  40.104
 Approx polarizability:  79.081 -12.447  70.871  -3.294  13.485  57.289

                      1                      2                      3
                      A                      A                      A
 Frequencies --     80.7101               228.4894               243.0547
 Red. masses --      4.0746                 1.9804                 1.5068
 Frc consts  --      0.0156                 0.0609                 0.0524
 IR Inten    --      1.5474                 6.0442                 1.3755

                      4                      5                      6
                      A                      A                      A
 Frequencies --    275.8659               350.5272               380.0949
 Red. masses --      2.0799                 1.9080                 1.5769
 Frc consts  --      0.0933                 0.1381                 0.1342
 IR Inten    --      8.7898                28.8113               104.0072

                      7                      8                      9
                      A                      A                      A
 Frequencies --    412.5054               467.6463               609.6170
 Red. masses --      1.1151                 2.4442                 2.8310
 Frc consts  --      0.1118                 0.3149                 0.6199
 IR Inten    --     95.3312                27.3365                14.1950

                     10                     11                     12
                      A                      A                      A
 Frequencies --    664.5329               728.4859               784.7635
 Red. masses --      2.6461                 1.3202                 2.5339
 Frc consts  --      0.6885                 0.4128                 0.9194
 IR Inten    --      7.2236                 0.5717                 9.1858

                     13                     14                     15
                      A                      A                      A
 Frequencies --    822.3990               926.1935               979.9735
 Red. masses --      1.4154                 2.1760                 1.7933
 Frc consts  --      0.5640                 1.0998                 1.0147
 IR Inten    --     56.7607                 5.7808                22.1384

                     16                     17                     18
                      A                      A                      A
 Frequencies --   1029.9315              1097.9151              1109.8926
 Red. masses --      1.6772                 2.6837                 1.8137
 Frc consts  --      1.0482                 1.9060                 1.3164
 IR Inten    --     77.7632                14.5305                94.5265

                     19                     20                     21
                      A                      A                      A
 Frequencies --   1193.6602              1295.0230              1346.0813
 Red. masses --      1.5168                 1.3647                 1.3214
 Frc consts  --      1.2733                 1.3485                 1.4107
 IR Inten    --    128.2571                10.1424                12.6713

                     22                     23                     24
                      A                      A                      A
 Frequencies --   1378.0736              1412.9087              1424.6730
 Red. masses --      2.5345                 1.2758                 1.1944
 Frc consts  --      2.8359                 1.5005                 1.4283
 IR Inten    --     12.0045                 6.1452                78.4676

                     25                     26                     27
                      A                      A                      A
 Frequencies --   1468.5669              1503.6630              1513.1584
 Red. masses --      1.1879                 1.0503                 1.0726
 Frc consts  --      1.5095                 1.3991                 1.4470
 IR Inten    --     15.5086                10.1377                 2.4300

                     28                     29                     30
                      A                      A                      A
 Frequencies --   1741.4987              3049.4337              3088.3915
 Red. masses --      5.8666                 1.0346                 1.0876
 Frc consts  --     10.4830                 5.6683                 6.1117
 IR Inten    --     99.1995                15.3031                13.0238

                     31                     32                     33
                      A                      A                      A
 Frequencies --   3125.8470              3136.7841              3162.0783
 Red. masses --      1.1019                 1.1035                 1.0646
 Frc consts  --      6.3435                 6.3973                 6.2718
 IR Inten    --     29.4803                23.3244                 6.2925

                     34                     35                     36
                      A                      A                      A
 Frequencies --   3260.8271              3794.5109              3816.4330
 Red. masses --      1.1125                 1.0656                 1.0659
 Frc consts  --      6.9697                 9.0394                 9.1468
 IR Inten    --      8.2419                23.4571                31.0206

 - Thermochemistry -
 -------------------
 Temperature   298.150 Kelvin.  Pressure   1.00000 Atm.
 Atom     1 has atomic number  6 and mass  12.00000

 Molecular mass:    88.05243 amu.
 Principal axes and moments of inertia in atomic units:
                           1         2         3
     Eigenvalues --   364.83034 665.26413 710.51916
           X            0.99887   0.02092  -0.04278
           Y           -0.01783   0.99729   0.07138
           Z            0.04416  -0.07054   0.99653
 This molecule is an asymmetric top.
 Rotational symmetry number  1.
 Rotational temperatures (Kelvin)      0.23741     0.13019     0.12190
 Rotational constants (GHZ):           4.94680     2.71282     2.54003
 Zero-point vibrational energy     310456.1 (Joules/Mol)
                                   74.20079 (Kcal/Mol)
 Warning -- explicit consideration of   9 degrees of freedom as
           vibrations may cause significant error
 Vibrational temperatures:    116.12   328.74   349.70   396.91   504.33
          (Kelvin)            546.87   593.50   672.84   877.10   956.11
                             1048.13  1129.10  1183.25  1332.58  1409.96
                             1481.84  1579.65  1596.89  1717.41  1863.25
                             1936.71  1982.74  2032.86  2049.78  2112.94
                             2163.43  2177.09  2505.63  4387.45  4443.50
                             4497.39  4513.13  4549.52  4691.60  5459.45
                             5490.99

 Zero-point correction=                           0.118246 (Hartree/Particle)
 Thermal correction to Energy=                    0.125339
 Thermal correction to Enthalpy=                  0.126283
 Thermal correction to Gibbs Free Energy=         0.087778
 Sum of electronic and zero-point Energies=           -307.551825
 Sum of electronic and thermal Energies=              -307.544732
 Sum of electronic and thermal Enthalpies=            -307.543788
 Sum of electronic and thermal Free Energies=         -307.582294

                     E (Thermal)             CV                S
                      KCal/Mol        Cal/Mol-Kelvin    Cal/Mol-Kelvin
 Total                   78.652             25.866             81.042
 Electronic               0.000              0.000              0.000
 Translational            0.889              2.981             39.339
 Rotational               0.889              2.981             26.647
 Vibrational             76.874             19.904             15.056
 Vibration     1          0.600              1.962              3.874
 Vibration     2          0.651              1.798              1.891
 Vibration     3          0.659              1.774              1.780
 Vibration     4          0.678              1.718              1.559
 Vibration     5          0.727              1.574              1.164
 Vibration     6          0.750              1.513              1.039
 Vibration     7          0.776              1.443              0.918
 Vibration     8          0.825              1.322              0.744
 Vibration     9          0.969              1.011              0.433

 Normal termination of Gaussian 09 at Thu Sep  8 14:57:22 2022.
