 Gaussian 09, Revision E.01,
 Gaussian 09:  ES64L-G09RevE.01 30-Nov-2015

 ----------------------------
 #P OPT Freq B3LYP/6-31G(d,p)
 ----------------------------

 --------
 Frag_865
 --------
 Symbolic Z-matrix:
 Charge =  0 Multiplicity = 1

 SCF Done:  E(RB3LYP) =  -324.943316092     A.U. after   13 cycles
 SCF Done:  E(RB3LYP) =  -324.943372032     A.U. after   10 cycles
 SCF Done:  E(RB3LYP) =  -324.943370639     A.U. after    9 cycles
 SCF Done:  E(RB3LYP) =  -324.943379169     A.U. after    9 cycles
 SCF Done:  E(RB3LYP) =  -324.943380352     A.U. after    7 cycles
 SCF Done:  E(RB3LYP) =  -324.943380769     A.U. after    7 cycles
 Optimization completed.
    -- Stationary point found.
 Normal termination of Gaussian 09 at Thu Sep  8 15:20:26 2022.

 ----------------------------------------------------------------------
 #P Geom=AllCheck Guess=TCheck SCRF=Check GenChk RB3LYP/6-31G(d,p) Freq
 ----------------------------------------------------------------------

 Structure from the checkpoint file:  "B3LYP6-31Gdp.Frag_865.chk"
 --------
 Frag_865
 --------
 Charge =  0 Multiplicity = 1

                         Standard orientation:
 ---------------------------------------------------------------------
 Center     Atomic      Atomic             Coordinates (Angstroms)
 Number     Number       Type             X           Y           Z
 ---------------------------------------------------------------------
      1          6           0       -1.706656   -0.775742   -0.112574
      2          6           0       -0.405204    0.014875    0.006607
      3          7           0       -0.451541    1.198164   -0.845463
      4          8           0       -0.215896    0.474611    1.354365
      5          6           0        0.834586   -0.860873   -0.252613
      6          8           0        2.015252   -0.088010   -0.112306
      7          1           0       -2.561148   -0.117314    0.070195
      8          1           0       -1.817926   -1.217592   -1.109379
      9          1           0       -1.724883   -1.579670    0.627051
     10          1           0       -0.871727    0.980843   -1.745259
     11          1           0        0.506918    1.498940   -1.020699
     12          1           0       -0.677211    1.325288    1.390554
     13          1           0        0.817332   -1.244519   -1.277759
     14          1           0        0.828644   -1.719542    0.436227
     15          1           0        1.929581    0.324051    0.762321
 ---------------------------------------------------------------------

 SCF Done:  E(RB3LYP) =  -324.943380769     A.U. after    1 cycles

 The electronic state is 1-A.
 Alpha  occ. eigenvalues --  -19.14461 -19.14130 -14.31973 -10.26580 -10.22562
 Alpha  occ. eigenvalues --  -10.18134  -1.03677  -1.00472  -0.87745  -0.74659
 Alpha  occ. eigenvalues --   -0.68004  -0.58786  -0.52147  -0.49632  -0.48138
 Alpha  occ. eigenvalues --   -0.45103  -0.43324  -0.40323  -0.39234  -0.37926
 Alpha  occ. eigenvalues --   -0.35440  -0.32654  -0.28294  -0.27710  -0.24582
 Alpha virt. eigenvalues --    0.06773   0.10412   0.11595   0.12980   0.14602
 Alpha virt. eigenvalues --    0.16078   0.16633   0.17260   0.20044   0.21931
 Alpha virt. eigenvalues --    0.23162   0.24183   0.26826   0.28290   0.51699

 Mulliken charges:
               1
     1  C   -0.319579
     2  C    0.324451
     3  N   -0.607191
     4  O   -0.558865
     5  C    0.083791
     6  O   -0.550044
     7  H    0.113151
     8  H    0.096101
     9  H    0.120551
    10  H    0.238836
    11  H    0.250812
    12  H    0.310712
    13  H    0.093674
    14  H    0.089351
    15  H    0.314249
 Sum of Mulliken charges =  -0.00000

 Dipole moment (field-independent basis, Debye):
    X=             -1.4535    Y=             -0.0137    Z=             -0.7708  Tot=              1.6453
 Quadrupole moment (field-independent basis, Debye-Ang):
   XX=            -40.2391   YY=            -36.0502   ZZ=            -35.3365
   XY=              1.4776   XZ=              1.9491   YZ=              1.3348

  Exact polarizability:  48.153   1.159  46.514   1.247   0.444  46.404
 Approx polarizability:  62.378   1.345  63.122   2.100   0.817  67.014

                      1                      2                      3
                      A                      A                      A
 Frequencies --    160.9482               229.9612               241.3223
 Red. masses --      3.2606                 1.0431                 3.1025
 Frc consts  --      0.0498                 0.0325                 0.1065
 IR Inten    --      9.5220                 0.6850                 5.4129

                      4                      5                      6
                      A                      A                      A
 Frequencies --    299.4287               344.9014               365.6735
 Red. masses --      1.1254                 2.2583                 2.9031
 Frc consts  --      0.0594                 0.1583                 0.2287
 IR Inten    --     38.0223                21.9015                 0.4881

                      7                      8                      9
                      A                      A                      A
 Frequencies --    419.6070               443.0154               517.6004
 Red. masses --      1.7103                 1.9358                 1.4960
 Frc consts  --      0.1774                 0.2238                 0.2361
 IR Inten    --     34.4526                24.6565               100.2620

                     10                     11                     12
                      A                      A                      A
 Frequencies --    558.8168               604.5872               795.9629
 Red. masses --      1.6452                 2.5556                 4.1708
 Frc consts  --      0.3027                 0.5504                 1.5569
 IR Inten    --     57.4591                25.2439                19.5293

                     13                     14                     15
                      A                      A                      A
 Frequencies --    883.1447               920.3993               950.8480
 Red. masses --      2.0729                 1.9870                 1.4239
 Frc consts  --      0.9525                 0.9918                 0.7585
 IR Inten    --    125.9648                14.7691                84.7461

                     16                     17                     18
                      A                      A                      A
 Frequencies --    995.2585              1049.9595              1087.5319
 Red. masses --      1.3622                 1.7400                 3.8715
 Frc consts  --      0.7950                 1.1301                 2.6978
 IR Inten    --     22.2935                13.7527                90.4758

                     19                     20                     21
                      A                      A                      A
 Frequencies --   1126.0958              1185.6953              1267.6880
 Red. masses --      1.6019                 1.4782                 1.8643
 Frc consts  --      1.1968                 1.2244                 1.7652
 IR Inten    --     95.3783                20.5868                23.7603

                     22                     23                     24
                      A                      A                      A
 Frequencies --   1334.1994              1374.5005              1389.8321
 Red. masses --      1.5558                 1.6156                 1.3885
 Frc consts  --      1.6317                 1.7984                 1.5803
 IR Inten    --     22.4344                64.6342                34.2019

                     25                     26                     27
                      A                      A                      A
 Frequencies --   1422.4872              1444.1534              1503.5580
 Red. masses --      1.3969                 1.3258                 1.0736
 Frc consts  --      1.6654                 1.6292                 1.4299
 IR Inten    --     18.3024                41.8300                 2.3389

                     28                     29                     30
                      A                      A                      A
 Frequencies --   1507.7973              1514.9871              1663.5598
 Red. masses --      1.0516                 1.0851                 1.1113
 Frc consts  --      1.4086                 1.4674                 1.8120
 IR Inten    --      1.9251                 1.5625                44.7776

                     31                     32                     33
                      A                      A                      A
 Frequencies --   3003.8028              3046.6248              3096.1419
 Red. masses --      1.0684                 1.0380                 1.0961
 Frc consts  --      5.6799                 5.6764                 6.1907
 IR Inten    --     57.8280                15.0353                27.3152

                     34                     35                     36
                      A                      A                      A
 Frequencies --   3118.4846              3142.6000              3480.2210
 Red. masses --      1.1006                 1.1025                 1.0506
 Frc consts  --      6.3062                 6.4151                 7.4973
 IR Inten    --     28.4253                17.6593                 4.1095

                     37                     38                     39
                      A                      A                      A
 Frequencies --   3579.1352              3756.6451              3792.5273
 Red. masses --      1.0913                 1.0648                 1.0652
 Frc consts  --      8.2368                 8.8537                 9.0272
 IR Inten    --      3.6730                34.9049                31.3154

 - Thermochemistry -
 -------------------
 Temperature   298.150 Kelvin.  Pressure   1.00000 Atm.
 Atom     1 has atomic number  6 and mass  12.00000

 Molecular mass:    91.06333 amu.
 Principal axes and moments of inertia in atomic units:
                           1         2         3
     Eigenvalues --   371.54108 656.66281 667.34240
           X            0.99932   0.03010   0.02137
           Y           -0.03102   0.99856   0.04388
           Z           -0.02002  -0.04451   0.99881
 This molecule is an asymmetric top.
 Rotational symmetry number  1.
 Rotational temperatures (Kelvin)      0.23312     0.13190     0.12979
 Rotational constants (GHZ):           4.85745     2.74835     2.70437
 Zero-point vibrational energy     344642.4 (Joules/Mol)
                                   82.37150 (Kcal/Mol)
 Warning -- explicit consideration of  11 degrees of freedom as
           vibrations may cause significant error
 Vibrational temperatures:    231.57   330.86   347.21   430.81   496.24
          (Kelvin)            526.12   603.72   637.40   744.71   804.01
                              869.87  1145.21  1270.65  1324.25  1368.06
                             1431.95  1510.66  1564.71  1620.20  1705.95
                             1823.92  1919.61  1977.60  1999.66  2046.64
                             2077.81  2163.28  2169.38  2179.73  2393.49
                             4321.80  4383.41  4454.65  4486.80  4521.49
                             5007.26  5149.57  5404.97  5456.59

 Zero-point correction=                           0.131267 (Hartree/Particle)
 Thermal correction to Energy=                    0.138418
 Thermal correction to Enthalpy=                  0.139362
 Thermal correction to Gibbs Free Energy=         0.101187
 Sum of electronic and zero-point Energies=           -324.812113
 Sum of electronic and thermal Energies=              -324.804963
 Sum of electronic and thermal Enthalpies=            -324.804018
 Sum of electronic and thermal Free Energies=         -324.842193

                     E (Thermal)             CV                S
                      KCal/Mol        Cal/Mol-Kelvin    Cal/Mol-Kelvin
 Total                   86.859             26.916             80.346
 Electronic               0.000              0.000              0.000
 Translational            0.889              2.981             39.439
 Rotational               0.889              2.981             26.590
 Vibrational             85.081             20.954             14.317
 Vibration     1          0.622              1.890              2.539
 Vibration     2          0.652              1.795              1.879
 Vibration     3          0.658              1.777              1.793
 Vibration     4          0.692              1.675              1.420
 Vibration     5          0.723              1.586              1.189
 Vibration     6          0.739              1.543              1.098
 Vibration     7          0.782              1.428              0.893
 Vibration     8          0.803              1.376              0.817
 Vibration     9          0.873              1.211              0.616
 Vibration    10          0.914              1.120              0.526
 Vibration    11          0.963              1.022              0.442

 Normal termination of Gaussian 09 at Thu Sep  8 15:20:38 2022.
