 Gaussian 09, Revision E.01,
 Gaussian 09:  ES64L-G09RevE.01 30-Nov-2015

 ----------------------------
 #P OPT Freq B3LYP/6-31G(d,p)
 ----------------------------

 --------
 Frag_773
 --------
 Symbolic Z-matrix:
 Charge =  0 Multiplicity = 1

 SCF Done:  E(RB3LYP) =  -155.975639548     A.U. after   13 cycles
 SCF Done:  E(RB3LYP) =  -155.975715031     A.U. after   11 cycles
 SCF Done:  E(RB3LYP) =  -155.975507407     A.U. after   11 cycles
 SCF Done:  E(RB3LYP) =  -155.975730278     A.U. after    8 cycles
 SCF Done:  E(RB3LYP) =  -155.975695422     A.U. after   10 cycles
 SCF Done:  E(RB3LYP) =  -155.975736271     A.U. after   10 cycles
 SCF Done:  E(RB3LYP) =  -155.975736096     A.U. after    8 cycles
 SCF Done:  E(RB3LYP) =  -155.975738529     A.U. after    8 cycles
 Optimization completed.
    -- Stationary point found.
 Normal termination of Gaussian 09 at Thu Sep  8 15:10:34 2022.

 ----------------------------------------------------------------------
 #P Geom=AllCheck Guess=TCheck SCRF=Check GenChk RB3LYP/6-31G(d,p) Freq
 ----------------------------------------------------------------------

 Structure from the checkpoint file:  "B3LYP6-31Gdp.Frag_773.chk"
 --------
 Frag_773
 --------
 Charge =  0 Multiplicity = 1

                         Standard orientation:
 ---------------------------------------------------------------------
 Center     Atomic      Atomic             Coordinates (Angstroms)
 Number     Number       Type             X           Y           Z
 ---------------------------------------------------------------------
      1          6           0       -1.965883   -0.262558    0.000029
      2          6           0       -0.833506    0.158177   -0.000036
      3          6           0        0.545687    0.647833    0.000006
      4          6           0        1.589145   -0.484599    0.000000
      5          1           0       -2.965715   -0.629896   -0.000046
      6          1           0        0.699332    1.290345    0.876689
      7          1           0        0.699370    1.290394   -0.876634
      8          1           0        2.601278   -0.068858    0.000049
      9          1           0        1.476565   -1.117519   -0.884454
     10          1           0        1.476506   -1.117585    0.884401
 ---------------------------------------------------------------------

 SCF Done:  E(RB3LYP) =  -155.975738529     A.U. after    1 cycles

 The electronic state is 1-A.
 Alpha  occ. eigenvalues --  -10.21015 -10.18462 -10.18101 -10.17114  -0.79477
 Alpha  occ. eigenvalues --   -0.71752  -0.63915  -0.52127  -0.46377  -0.45636
 Alpha  occ. eigenvalues --   -0.39696  -0.37147  -0.36332  -0.25894  -0.25781
 Alpha virt. eigenvalues --    0.05640   0.06254   0.11091   0.13329   0.14998
 Alpha virt. eigenvalues --    0.15443   0.17212   0.20372   0.23101   0.26182
 Alpha virt. eigenvalues --    0.42559   0.46398   0.52270   0.52593   0.54244

 Mulliken charges:
               1
     1  C   -0.423559
     2  C    0.278170
     3  C   -0.299461
     4  C   -0.312253
     5  H    0.148333
     6  H    0.131370
     7  H    0.131367
     8  H    0.105848
     9  H    0.120092
    10  H    0.120093
 Sum of Mulliken charges =   0.00000

 Dipole moment (field-independent basis, Debye):
    X=              0.6867    Y=              0.1475    Z=             -0.0001  Tot=              0.7024
 Quadrupole moment (field-independent basis, Debye-Ang):
   XX=            -21.7865   YY=            -24.8802   ZZ=            -25.4415
   XY=              1.7440   XZ=              0.0002   YZ=              0.0000

  Exact polarizability:  56.033   6.856  31.464  -0.001  -0.000  27.704
 Approx polarizability:  82.458  16.107  43.476  -0.003  -0.001  37.654

                      1                      2                      3
                      A                      A                      A
 Frequencies --    202.6081               225.4478               366.5887
 Red. masses --      3.1360                 1.1777                 2.4968
 Frc consts  --      0.0758                 0.0353                 0.1977
 IR Inten    --      0.5553                 0.2179                 2.8663

                      4                      5                      6
                      A                      A                      A
 Frequencies --    520.8869               611.9708               624.4537
 Red. masses --      4.3631                 1.2068                 1.2077
 Frc consts  --      0.6975                 0.2663                 0.2775
 IR Inten    --      2.8346                48.4716                46.7991

                      7                      8                      9
                      A                      A                      A
 Frequencies --    789.4124               851.2103              1024.9193
 Red. masses --      1.1730                 2.7071                 2.7485
 Frc consts  --      0.4307                 1.1557                 1.7011
 IR Inten    --      1.4150                 0.0089                 0.1626

                     10                     11                     12
                      A                      A                      A
 Frequencies --   1093.3135              1111.4304              1290.2784
 Red. masses --      1.6968                 1.4794                 1.1457
 Frc consts  --      1.1950                 1.0767                 1.1238
 IR Inten    --      3.1992                 0.3469                 0.0934

                     13                     14                     15
                      A                      A                      A
 Frequencies --   1355.0983              1421.5277              1488.7968
 Red. masses --      1.4579                 1.2169                 1.0747
 Frc consts  --      1.5773                 1.4488                 1.4035
 IR Inten    --     12.6976                 0.5086                 2.1918

                     16                     17                     18
                      A                      A                      A
 Frequencies --   1509.3890              1519.9998              2239.3477
 Red. masses --      1.0399                 1.0544                 5.9727
 Frc consts  --      1.3959                 1.4353                17.6466
 IR Inten    --      4.8131                 2.5031                 2.3990

                     19                     20                     21
                      A                      A                      A
 Frequencies --   3031.8151              3054.8213              3062.2739
 Red. masses --      1.0594                 1.0346                 1.1027
 Frc consts  --      5.7375                 5.6884                 6.0925
 IR Inten    --     21.0124                27.4213                10.8701

                     22                     23                     24
                      A                      A                      A
 Frequencies --   3130.1511              3136.5425              3491.0542
 Red. masses --      1.1031                 1.1039                 1.1601
 Frc consts  --      6.3678                 6.3986                 8.3303
 IR Inten    --     29.8973                27.5836                57.8848

 - Thermochemistry -
 -------------------
 Temperature   298.150 Kelvin.  Pressure   1.00000 Atm.
 Atom     1 has atomic number  6 and mass  12.00000

 Molecular mass:    54.04695 amu.
 Principal axes and moments of inertia in atomic units:
                           1         2         3
     Eigenvalues --    65.64748 401.71504 445.03790
           X            1.00000   0.00177   0.00000
           Y           -0.00177   1.00000   0.00000
           Z           -0.00000  -0.00000   1.00000
 This molecule is an asymmetric top.
 Rotational symmetry number  1.
 Rotational temperatures (Kelvin)      1.31938     0.21561     0.19462
 Rotational constants (GHZ):          27.49140     4.49259     4.05525
 Zero-point vibrational energy     222226.3 (Joules/Mol)
                                   53.11336 (Kcal/Mol)
 Warning -- explicit consideration of   5 degrees of freedom as
           vibrations may cause significant error
 Vibrational temperatures:    291.51   324.37   527.44   749.44   880.49
          (Kelvin)            898.45  1135.79  1224.70  1474.63  1573.03
                             1599.10  1856.42  1949.68  2045.26  2142.04
                             2171.67  2186.94  3221.92  4362.10  4395.20
                             4405.92  4503.58  4512.78  5022.84

 Zero-point correction=                           0.084642 (Hartree/Particle)
 Thermal correction to Energy=                    0.089677
 Thermal correction to Enthalpy=                  0.090621
 Thermal correction to Gibbs Free Energy=         0.057779
 Sum of electronic and zero-point Energies=           -155.891097
 Sum of electronic and thermal Energies=              -155.886062
 Sum of electronic and thermal Enthalpies=            -155.885118
 Sum of electronic and thermal Free Energies=         -155.917959

                     E (Thermal)             CV                S
                      KCal/Mol        Cal/Mol-Kelvin    Cal/Mol-Kelvin
 Total                   56.273             17.077             69.121
 Electronic               0.000              0.000              0.000
 Translational            0.889              2.981             37.884
 Rotational               0.889              2.981             23.977
 Vibrational             54.496             11.115              7.260
 Vibration     1          0.639              1.836              2.109
 Vibration     2          0.650              1.802              1.915
 Vibration     3          0.739              1.541              1.094
 Vibration     4          0.876              1.204              0.608
 Vibration     5          0.971              1.007              0.430

 Optimization completed.
    -- Stationary point found.
 Normal termination of Gaussian 09 at Thu Sep  8 15:10:41 2022.
