 Gaussian 09, Revision E.01,
 Gaussian 09:  ES64L-G09RevE.01 30-Nov-2015

 ----------------------------
 #P OPT Freq B3LYP/6-31G(d,p)
 ----------------------------

 --------
 Frag_514
 --------
 Symbolic Z-matrix:
 Charge =  0 Multiplicity = 1

 SCF Done:  E(RB3LYP) =  -232.454036440     A.U. after   13 cycles
 SCF Done:  E(RB3LYP) =  -232.454089226     A.U. after    9 cycles
 SCF Done:  E(RB3LYP) =  -232.454094079     A.U. after    8 cycles
 SCF Done:  E(RB3LYP) =  -232.454097108     A.U. after    8 cycles
 SCF Done:  E(RB3LYP) =  -232.454099592     A.U. after    8 cycles
 SCF Done:  E(RB3LYP) =  -232.454101794     A.U. after    9 cycles
 SCF Done:  E(RB3LYP) =  -232.454102914     A.U. after    8 cycles
 SCF Done:  E(RB3LYP) =  -232.454102970     A.U. after    7 cycles
 Optimization completed.
    -- Stationary point found.
 Normal termination of Gaussian 09 at Thu Sep  8 15:11:45 2022.

 ----------------------------------------------------------------------
 #P Geom=AllCheck Guess=TCheck SCRF=Check GenChk RB3LYP/6-31G(d,p) Freq
 ----------------------------------------------------------------------

 Structure from the checkpoint file:  "B3LYP6-31Gdp.Frag_514.chk"
 --------
 Frag_514
 --------
 Charge =  0 Multiplicity = 1

                         Standard orientation:
 ---------------------------------------------------------------------
 Center     Atomic      Atomic             Coordinates (Angstroms)
 Number     Number       Type             X           Y           Z
 ---------------------------------------------------------------------
      1          6           0        1.605295   -0.871619   -0.229022
      2          6           0        0.617818   -0.034126    0.099075
      3          8           0        0.819077    1.322937   -0.011069
      4          6           0       -0.752702   -0.460126    0.560905
      5          6           0       -1.878573   -0.053244   -0.406359
      6          1           0        2.567762   -0.498510   -0.558995
      7          1           0        1.456551   -1.942494   -0.177696
      8          1           0        0.075418    1.788020    0.391742
      9          1           0       -0.756173   -1.544643    0.700436
     10          1           0       -0.948004   -0.020495    1.551538
     11          1           0       -1.911078    1.030439   -0.562975
     12          1           0       -1.733623   -0.520966   -1.384465
     13          1           0       -2.854503   -0.360158   -0.018636
 ---------------------------------------------------------------------

 SCF Done:  E(RB3LYP) =  -232.454102970     A.U. after    1 cycles

 The electronic state is 1-A.
 Alpha  occ. eigenvalues --  -19.16741 -10.23714 -10.19823 -10.18751 -10.15538
 Alpha  occ. eigenvalues --   -1.04614  -0.79025  -0.72796  -0.63579  -0.57031
 Alpha  occ. eigenvalues --   -0.49615  -0.46582  -0.43448  -0.40596  -0.39209
 Alpha  occ. eigenvalues --   -0.38474  -0.35626  -0.34585  -0.32992  -0.21607
 Alpha virt. eigenvalues --    0.04171   0.06129   0.12538   0.13373   0.14127
 Alpha virt. eigenvalues --    0.15734   0.18047   0.19071   0.19865   0.22547
 Alpha virt. eigenvalues --    0.24218   0.32622   0.37241   0.50880   0.51862

 Mulliken charges:
               1
     1  C   -0.313454
     2  C    0.381446
     3  O   -0.538286
     4  C   -0.260741
     5  C   -0.312900
     6  H    0.097109
     7  H    0.087852
     8  H    0.312953
     9  H    0.114111
    10  H    0.102410
    11  H    0.096686
    12  H    0.123449
    13  H    0.109365
 Sum of Mulliken charges =   0.00000

 Dipole moment (field-independent basis, Debye):
    X=             -2.0422    Y=              0.0565    Z=              0.8261  Tot=              2.2037
 Quadrupole moment (field-independent basis, Debye-Ang):
   XX=            -32.5918   YY=            -29.5664   ZZ=            -32.3429
   XY=             -1.8629   XZ=             -0.6986   YZ=              1.3570

  Exact polarizability:  56.129  -7.394  48.921  -5.499   2.064  33.685
 Approx polarizability:  72.650 -13.778  73.692  -9.784   4.767  46.805

                      1                      2                      3
                      A                      A                      A
 Frequencies --     91.9846               198.7440               221.6026
 Red. masses --      2.0434                 1.3376                 1.3678
 Frc consts  --      0.0102                 0.0311                 0.0396
 IR Inten    --      1.8362                46.9846                25.6114

                      4                      5                      6
                      A                      A                      A
 Frequencies --    270.6590               417.3921               470.1936
 Red. masses --      1.6488                 2.0456                 2.5418
 Frc consts  --      0.0712                 0.2100                 0.3311
 IR Inten    --     35.2958                 1.2808                 3.7464

                      7                      8                      9
                      A                      A                      A
 Frequencies --    625.2080               741.5385               797.5274
 Red. masses --      2.9206                 1.1155                 1.3068
 Frc consts  --      0.6726                 0.3614                 0.4897
 IR Inten    --      2.0785                 8.9429                 0.5272

                     10                     11                     12
                      A                      A                      A
 Frequencies --    809.2714               839.1743               973.7213
 Red. masses --      2.1063                 1.4123                 2.2438
 Frc consts  --      0.8127                 0.5860                 1.2534
 IR Inten    --      9.0503                54.9712                43.9730

                     13                     14                     15
                      A                      A                      A
 Frequencies --   1002.1872              1079.8789              1102.0505
 Red. masses --      1.8248                 1.8215                 1.5296
 Frc consts  --      1.0798                 1.2515                 1.0945
 IR Inten    --      2.6620                 5.8089                 2.1640

                     16                     17                     18
                      A                      A                      A
 Frequencies --   1234.4634              1284.2325              1334.9020
 Red. masses --      1.3305                 1.2407                 1.6991
 Frc consts  --      1.1946                 1.2056                 1.7839
 IR Inten    --     38.7044                30.9305               107.6658

                     19                     20                     21
                      A                      A                      A
 Frequencies --   1370.9860              1426.9329              1449.2349
 Red. masses --      2.0390                 1.2312                 1.1660
 Frc consts  --      2.2581                 1.4770                 1.4428
 IR Inten    --     57.1177                 1.8342                 6.0603

                     22                     23                     24
                      A                      A                      A
 Frequencies --   1495.1282              1509.9860              1521.5217
 Red. masses --      1.0706                 1.0446                 1.0704
 Frc consts  --      1.4101                 1.4032                 1.4599
 IR Inten    --      1.4540                 5.2649                10.2044

                     25                     26                     27
                      A                      A                      A
 Frequencies --   1759.4157              3005.0660              3047.3351
 Red. masses --      5.2782                 1.0718                 1.0362
 Frc consts  --      9.6267                 5.7024                 5.6692
 IR Inten    --     74.7582                35.4323                25.2347

                     28                     29                     30
                      A                      A                      A
 Frequencies --   3099.1709              3119.0894              3130.5012
 Red. masses --      1.0930                 1.0990                 1.1037
 Frc consts  --      6.1854                 6.2993                 6.3726
 IR Inten    --      2.8359                43.4254                27.3212

                     31                     32                     33
                      A                      A                      A
 Frequencies --   3185.4468              3277.8685              3831.8181
 Red. masses --      1.0603                 1.1176                 1.0664
 Frc consts  --      6.3390                 7.0751                 9.2252
 IR Inten    --      0.4164                 7.9741                33.9503

 - Thermochemistry -
 -------------------
 Temperature   298.150 Kelvin.  Pressure   1.00000 Atm.
 Atom     1 has atomic number  6 and mass  12.00000

 Molecular mass:    72.05751 amu.
 Principal axes and moments of inertia in atomic units:
                           1         2         3
     Eigenvalues --   224.51860 473.61024 611.16655
           X            0.99926  -0.03846  -0.00145
           Y            0.03847   0.99922   0.00935
           Z            0.00109  -0.00940   0.99996
 This molecule is an asymmetric top.
 Rotational symmetry number  1.
 Rotational temperatures (Kelvin)      0.38578     0.18288     0.14172
 Rotational constants (GHZ):           8.03827     3.81060     2.95294
 Zero-point vibrational energy     297417.0 (Joules/Mol)
                                   71.08436 (Kcal/Mol)
 Warning -- explicit consideration of   6 degrees of freedom as
           vibrations may cause significant error
 Vibrational temperatures:    132.35   285.95   318.84   389.42   600.53
          (Kelvin)            676.50   899.53  1066.91  1147.46  1164.36
                             1207.38  1400.97  1441.92  1553.70  1585.60
                             1776.12  1847.72  1920.62  1972.54  2053.04
                             2085.12  2151.15  2172.53  2189.13  2531.40
                             4323.61  4384.43  4459.01  4487.67  4504.09
                             4583.14  4716.12  5513.12

 Zero-point correction=                           0.113280 (Hartree/Particle)
 Thermal correction to Energy=                    0.119620
 Thermal correction to Enthalpy=                  0.120564
 Thermal correction to Gibbs Free Energy=         0.083924
 Sum of electronic and zero-point Energies=           -232.340823
 Sum of electronic and thermal Energies=              -232.334483
 Sum of electronic and thermal Enthalpies=            -232.333539
 Sum of electronic and thermal Free Energies=         -232.370179

                     E (Thermal)             CV                S
                      KCal/Mol        Cal/Mol-Kelvin    Cal/Mol-Kelvin
 Total                   75.063             22.031             77.116
 Electronic               0.000              0.000              0.000
 Translational            0.889              2.981             38.741
 Rotational               0.889              2.981             25.678
 Vibrational             73.285             16.070             12.697
 Vibration     1          0.602              1.955              3.617
 Vibration     2          0.637              1.842              2.145
 Vibration     3          0.648              1.808              1.946
 Vibration     4          0.674              1.727              1.592
 Vibration     5          0.780              1.432              0.901
 Vibration     6          0.827              1.316              0.737

 Optimization completed.
    -- Stationary point found.
 Normal termination of Gaussian 09 at Thu Sep  8 15:11:55 2022.
