 Gaussian 09, Revision E.01,
 Gaussian 09:  ES64L-G09RevE.01 30-Nov-2015

 -------------------------
 #P OPT Freq B3LYP/6-31G**
 -------------------------

 --------
 Frag_281
 --------
 Symbolic Z-matrix:
 Charge =  0 Multiplicity = 1

 SCF Done:  E(RB3LYP) =  -250.655656620     A.U. after   12 cycles
 SCF Done:  E(RB3LYP) =  -250.664920283     A.U. after   11 cycles
 SCF Done:  E(RB3LYP) =  -250.667012282     A.U. after   10 cycles
 SCF Done:  E(RB3LYP) =  -250.668848781     A.U. after   11 cycles
 SCF Done:  E(RB3LYP) =  -250.669406923     A.U. after   10 cycles
 SCF Done:  E(RB3LYP) =  -250.669467199     A.U. after   10 cycles
 SCF Done:  E(RB3LYP) =  -250.669661003     A.U. after    9 cycles
 SCF Done:  E(RB3LYP) =  -250.669710823     A.U. after    9 cycles
 SCF Done:  E(RB3LYP) =  -250.669711837     A.U. after    7 cycles
 SCF Done:  E(RB3LYP) =  -250.669712070     A.U. after    7 cycles
 Optimization completed.
    -- Stationary point found.
 Normal termination of Gaussian 09 at Sat Aug 21 01:36:13 2021.

 ----------------------------------------------------------------------
 #P Geom=AllCheck Guess=TCheck SCRF=Check GenChk RB3LYP/6-31G(d,p) Freq
 ----------------------------------------------------------------------

 Structure from the checkpoint file:  "/public/home/users/caep010/.cache/gau_scr/Gau-84230.chk"
 --------
 Frag_281
 --------
 Charge =  0 Multiplicity = 1

                         Standard orientation:
 ---------------------------------------------------------------------
 Center     Atomic      Atomic             Coordinates (Angstroms)
 Number     Number       Type             X           Y           Z
 ---------------------------------------------------------------------
      1          6           0        0.699326    1.187052   -0.147151
      2          7           0        1.287552    0.000000    0.490072
      3          6           0        0.699326   -1.187052   -0.147151
      4          6           0       -0.733482   -0.757441   -0.421472
      5          6           0       -1.441619    0.000000    0.675564
      6          6           0       -0.733482    0.757441   -0.421472
      7          1           0        0.778989    2.050996    0.525171
      8          1           0        1.175300    1.464435   -1.105963
      9          1           0        2.301454   -0.000000    0.460005
     10          1           0        1.175300   -1.464435   -1.105963
     11          1           0        0.778989   -2.050996    0.525171
     12          1           0       -1.315057   -1.327087   -1.139371
     13          1           0       -1.005818    0.000000    1.670044
     14          1           0       -2.527377    0.000000    0.649868
     15          1           0       -1.315057    1.327086   -1.139372
 ---------------------------------------------------------------------

 SCF Done:  E(RB3LYP) =  -250.669712070     A.U. after    1 cycles

 The electronic state is 1-A.
 Alpha  occ. eigenvalues --  -14.31059 -10.20323 -10.20322 -10.18440 -10.18415
 Alpha  occ. eigenvalues --  -10.17503  -0.91894  -0.82296  -0.71319  -0.64026
 Alpha  occ. eigenvalues --   -0.55830  -0.54972  -0.52255  -0.44990  -0.43134
 Alpha  occ. eigenvalues --   -0.41734  -0.40971  -0.36765  -0.35248  -0.33843
 Alpha  occ. eigenvalues --   -0.27629  -0.26884  -0.21288
 Alpha virt. eigenvalues --    0.08525   0.12855   0.14105   0.14200   0.14674
 Alpha virt. eigenvalues --    0.15514   0.17669   0.18014   0.18130   0.20216
 Alpha virt. eigenvalues --    0.21563   0.22251   0.25040   0.29231   0.29408

 Mulliken charges:
               1
     1  C   -0.008405
     2  N   -0.537143
     3  C   -0.008405
     4  C   -0.107484
     5  C   -0.211285
     6  C   -0.107484
     7  H    0.097116
     8  H    0.073408
     9  H    0.235687
    10  H    0.073408
    11  H    0.097116
    12  H    0.090392
    13  H    0.123465
    14  H    0.099222
    15  H    0.090392
 Sum of Mulliken charges =  -0.00000

 Dipole moment (field-independent basis, Debye):
    X=              0.4200    Y=             -0.0000    Z=             -0.9991  Tot=              1.0838
 Quadrupole moment (field-independent basis, Debye-Ang):
   XX=            -33.8698   YY=            -36.7518   ZZ=            -38.6037
   XY=             -0.0000   XZ=              0.0066   YZ=              0.0000

  Exact polarizability:  57.806   0.000  57.430  -1.166  -0.000  49.615
 Approx polarizability:  76.163   0.000  80.551  -1.123  -0.000  73.206

                      1                      2                      3
                      A                      A                      A
 Frequencies --    273.0169               320.5986               397.7815
 Red. masses --      2.1470                 2.0353                 2.0297
 Frc consts  --      0.0943                 0.1233                 0.1892
 IR Inten    --      5.1848                 0.7839                 1.0731

                      4                      5                      6
                      A                      A                      A
 Frequencies --    586.8375               634.3449               773.9361
 Red. masses --      1.8318                 3.4266                 2.0962
 Frc consts  --      0.3717                 0.8124                 0.7398
 IR Inten    --     81.0437                 0.3031                 7.5975

                      7                      8                      9
                      A                      A                      A
 Frequencies --    803.6796               839.5341               878.7124
 Red. masses --      1.7389                 1.4832                 2.3295
 Frc consts  --      0.6617                 0.6159                 1.0597
 IR Inten    --     15.2686                27.6724                 1.4870

                     10                     11                     12
                      A                      A                      A
 Frequencies --    918.4021               969.8886               995.5410
 Red. masses --      3.3021                 1.6331                 1.9118
 Frc consts  --      1.6410                 0.9051                 1.1164
 IR Inten    --      3.0061                 3.1042                 4.7189

                     13                     14                     15
                      A                      A                      A
 Frequencies --   1003.1350              1076.5936              1078.3582
 Red. masses --      1.9176                 1.4635                 1.5731
 Frc consts  --      1.1369                 0.9994                 1.0778
 IR Inten    --      7.8577                 3.9508                 1.6627

                     16                     17                     18
                      A                      A                      A
 Frequencies --   1089.9758              1109.6740              1122.6119
 Red. masses --      1.1690                 1.4177                 1.6428
 Frc consts  --      0.8183                 1.0286                 1.2198
 IR Inten    --      0.2912                 0.2426                 2.6755

                     19                     20                     21
                      A                      A                      A
 Frequencies --   1137.8769              1204.3868              1206.2517
 Red. masses --      2.1784                 1.6628                 1.1035
 Frc consts  --      1.6618                 1.4211                 0.9460
 IR Inten    --      9.3819                 0.6543                 3.5145

                     22                     23                     24
                      A                      A                      A
 Frequencies --   1243.4650              1294.5033              1338.7186
 Red. masses --      1.1817                 1.5307                 1.4057
 Frc consts  --      1.0765                 1.5113                 1.4843
 IR Inten    --      2.1908                19.6922                 0.6086

                     25                     26                     27
                      A                      A                      A
 Frequencies --   1379.3685              1413.3433              1448.6652
 Red. masses --      2.3659                 1.4015                 1.4595
 Frc consts  --      2.6522                 1.6494                 1.8046
 IR Inten    --      2.2788                 2.9783                10.6737

                     28                     29                     30
                      A                      A                      A
 Frequencies --   1496.5448              1528.0572              1542.4338
 Red. masses --      1.3584                 1.0930                 1.0971
 Frc consts  --      1.7925                 1.5037                 1.5379
 IR Inten    --      4.0036                 4.8810                 0.7722

                     31                     32                     33
                      A                      A                      A
 Frequencies --   2937.9392              2942.8127              3046.6017
 Red. masses --      1.0729                 1.0735                 1.0880
 Frc consts  --      5.4560                 5.4774                 5.9499
 IR Inten    --     73.1892               137.3744                73.3129

                     34                     35                     36
                      A                      A                      A
 Frequencies --   3048.9903              3140.2373              3182.1020
 Red. masses --      1.0901                 1.0538                 1.0893
 Frc consts  --      5.9710                 6.1227                 6.4988
 IR Inten    --     32.3964                16.5477                15.1129

                     37                     38                     39
                      A                      A                      A
 Frequencies --   3190.3316              3228.5831              3559.6176
 Red. masses --      1.0950                 1.1168                 1.0759
 Frc consts  --      6.5667                 6.8587                 8.0323
 IR Inten    --     15.8531                11.5910                 0.6041

 - Thermochemistry -
 -------------------
 Temperature   298.150 Kelvin.  Pressure   1.00000 Atm.
 Atom     1 has atomic number  6 and mass  12.00000

 Molecular mass:    83.07350 amu.
 Principal axes and moments of inertia in atomic units:
                           1         2         3
     Eigenvalues --   309.35756 413.51697 560.81996
           X            0.99989  -0.00000  -0.01481
           Y            0.00000   1.00000   0.00000
           Z            0.01481  -0.00000   0.99989
 This molecule is an asymmetric top.
 Rotational symmetry number  1.
 Rotational temperatures (Kelvin)      0.27998     0.20946     0.15444
 Rotational constants (GHZ):           5.83384     4.36437     3.21804
 Zero-point vibrational energy     355191.9 (Joules/Mol)
                                   84.89291 (Kcal/Mol)
 Warning -- explicit consideration of   4 degrees of freedom as
           vibrations may cause significant error
 Vibrational temperatures:    392.81   461.27   572.32   844.33   912.68
          (Kelvin)           1113.52  1156.31  1207.90  1264.27  1321.37
                             1395.45  1432.36  1443.29  1548.98  1551.52
                             1568.23  1596.57  1615.19  1637.15  1732.84
                             1735.52  1789.07  1862.50  1926.12  1984.60
                             2033.48  2084.30  2153.19  2198.53  2219.22
                             4227.03  4234.05  4383.37  4386.81  4518.10
                             4578.33  4590.17  4645.21  5121.49

 Zero-point correction=                           0.135285 (Hartree/Particle)
 Thermal correction to Energy=                    0.140296
 Thermal correction to Enthalpy=                  0.141240
 Thermal correction to Gibbs Free Energy=         0.107282
 Sum of electronic and zero-point Energies=           -250.534427
 Sum of electronic and thermal Energies=              -250.529416
 Sum of electronic and thermal Enthalpies=            -250.528472
 Sum of electronic and thermal Free Energies=         -250.562431

                     E (Thermal)             CV                S
                      KCal/Mol        Cal/Mol-Kelvin    Cal/Mol-Kelvin
 Total                   88.037             19.959             71.471
 Electronic               0.000              0.000              0.000
 Translational            0.889              2.981             39.165
 Rotational               0.889              2.981             25.776
 Vibrational             86.259             13.997              6.530
 Vibration     1          0.676              1.723              1.577
 Vibration     2          0.706              1.634              1.307
 Vibration     3          0.764              1.475              0.971
 Vibration     4          0.944              1.060              0.473

 Optimization completed.
    -- Stationary point found.
 Normal termination of Gaussian 09 at Sat Aug 21 01:36:26 2021.
