 Gaussian 09, Revision E.01,
 Gaussian 09:  ES64L-G09RevE.01 30-Nov-2015

 ----------------------------
 #P OPT Freq B3LYP/6-31G(d,p)
 ----------------------------

 --------
 Frag_854
 --------
 Symbolic Z-matrix:
 Charge =  0 Multiplicity = 1

 SCF Done:  E(RB3LYP) =  -324.938808370     A.U. after   13 cycles
 SCF Done:  E(RB3LYP) =  -324.938857586     A.U. after    9 cycles
 SCF Done:  E(RB3LYP) =  -324.938862389     A.U. after    8 cycles
 SCF Done:  E(RB3LYP) =  -324.938864112     A.U. after    7 cycles
 SCF Done:  E(RB3LYP) =  -324.938865343     A.U. after    8 cycles
 SCF Done:  E(RB3LYP) =  -324.938865713     A.U. after    7 cycles
 SCF Done:  E(RB3LYP) =  -324.938865948     A.U. after    7 cycles
 Optimization completed.
    -- Stationary point found.
 Normal termination of Gaussian 09 at Thu Sep  8 15:10:56 2022.

 ----------------------------------------------------------------------
 #P Geom=AllCheck Guess=TCheck SCRF=Check GenChk RB3LYP/6-31G(d,p) Freq
 ----------------------------------------------------------------------

 Structure from the checkpoint file:  "B3LYP6-31Gdp.Frag_854.chk"
 --------
 Frag_854
 --------
 Charge =  0 Multiplicity = 1

                         Standard orientation:
 ---------------------------------------------------------------------
 Center     Atomic      Atomic             Coordinates (Angstroms)
 Number     Number       Type             X           Y           Z
 ---------------------------------------------------------------------
      1          6           0       -2.053582    0.137042    0.010103
      2          7           0       -0.768701    0.725707   -0.377508
      3          6           0        0.405254   -0.047398   -0.004648
      4          6           0        1.664069    0.808634   -0.191475
      5          8           0        0.454776   -1.202001   -0.809293
      6          8           0        0.360394   -0.589740    1.307523
      7          1           0       -2.862259    0.735761   -0.418336
      8          1           0       -2.116757   -0.871983   -0.403075
      9          1           0       -2.200651    0.058818    1.095837
     10          1           0       -0.689838    1.676289   -0.027936
     11          1           0        1.675730    1.669233    0.489283
     12          1           0        1.721029    1.188495   -1.214976
     13          1           0        2.540571    0.190328    0.009431
     14          1           0        0.155955   -0.913268   -1.682315
     15          1           0        0.541317    0.130642    1.924921
 ---------------------------------------------------------------------

 SCF Done:  E(RB3LYP) =  -324.938865948     A.U. after    1 cycles

 The electronic state is 1-A.
 Alpha  occ. eigenvalues --  -19.14349 -19.14012 -14.32353 -10.30955 -10.19887
 Alpha  occ. eigenvalues --  -10.18160  -1.06220  -0.98915  -0.88819  -0.73980
 Alpha  occ. eigenvalues --   -0.66312  -0.61582  -0.52581  -0.48526  -0.47881
 Alpha  occ. eigenvalues --   -0.43748  -0.42104  -0.41231  -0.38572  -0.37718
 Alpha  occ. eigenvalues --   -0.36099  -0.33826  -0.29538  -0.27091  -0.23388
 Alpha virt. eigenvalues --    0.05549   0.11294   0.11698   0.13056   0.14758
 Alpha virt. eigenvalues --    0.16067   0.16602   0.17723   0.18682   0.21356
 Alpha virt. eigenvalues --    0.24122   0.25586   0.29333   0.29623   0.51151

 Mulliken charges:
               1
     1  C   -0.169659
     2  N   -0.520535
     3  C    0.593418
     4  C   -0.345406
     5  O   -0.528731
     6  O   -0.524498
     7  H    0.100092
     8  H    0.126535
     9  H    0.099272
    10  H    0.230019
    11  H    0.083280
    12  H    0.113106
    13  H    0.135253
    14  H    0.310696
    15  H    0.297158
 Sum of Mulliken charges =   0.00000

 Dipole moment (field-independent basis, Debye):
    X=             -0.2384    Y=              3.0102    Z=              0.1207  Tot=              3.0220
 Quadrupole moment (field-independent basis, Debye-Ang):
   XX=            -35.7116   YY=            -39.1980   ZZ=            -33.7850
   XY=              1.6797   XZ=              0.4177   YZ=              3.7673

  Exact polarizability:  51.182   0.749  44.514   0.545   1.683  45.517
 Approx polarizability:  60.091  -0.700  64.794   1.568   2.205  64.377

                      1                      2                      3
                      A                      A                      A
 Frequencies --    125.0235               193.0774               235.7218
 Red. masses --      1.9379                 1.2596                 1.4538
 Frc consts  --      0.0178                 0.0277                 0.0476
 IR Inten    --      3.7573                 0.4360                56.6740

                      4                      5                      6
                      A                      A                      A
 Frequencies --    251.7969               260.4509               361.8124
 Red. masses --      1.1512                 1.4756                 1.4486
 Frc consts  --      0.0430                 0.0590                 0.1117
 IR Inten    --      4.3697                 3.6694               127.5060

                      7                      8                      9
                      A                      A                      A
 Frequencies --    375.9313               402.8478               514.0012
 Red. masses --      3.5380                 1.7959                 2.6501
 Frc consts  --      0.2946                 0.1717                 0.4125
 IR Inten    --      6.6602                32.1428                 8.4289

                     10                     11                     12
                      A                      A                      A
 Frequencies --    531.1450               600.7882               716.0284
 Red. masses --      3.4189                 4.0068                 1.7719
 Frc consts  --      0.5683                 0.8521                 0.5352
 IR Inten    --     15.4819                17.7496                76.7015

                     13                     14                     15
                      A                      A                      A
 Frequencies --    815.4987               909.2268               971.9436
 Red. masses --      2.6105                 2.0386                 1.9623
 Frc consts  --      1.0229                 0.9930                 1.0922
 IR Inten    --     32.8054                40.3481                61.7499

                     16                     17                     18
                      A                      A                      A
 Frequencies --   1071.4951              1084.5288              1096.8145
 Red. masses --      1.9411                 1.5547                 2.7684
 Frc consts  --      1.3130                 1.0774                 1.9622
 IR Inten    --     76.7328                79.1844                76.5868

                     19                     20                     21
                      A                      A                      A
 Frequencies --   1156.8204              1197.5002              1223.6561
 Red. masses --      1.3719                 1.5102                 3.7842
 Frc consts  --      1.0817                 1.2760                 3.3385
 IR Inten    --     16.9733                 6.9077               159.2253

                     22                     23                     24
                      A                      A                      A
 Frequencies --   1352.4282              1360.9108              1417.4102
 Red. masses --      1.6092                 1.6251                 1.3142
 Frc consts  --      1.7342                 1.7733                 1.5556
 IR Inten    --      3.2366               173.4248                19.3462

                     25                     26                     27
                      A                      A                      A
 Frequencies --   1461.8503              1483.7957              1501.2339
 Red. masses --      1.1768                 1.2171                 1.0626
 Frc consts  --      1.4817                 1.5788                 1.4110
 IR Inten    --      9.3926                27.3410                 6.3872

                     28                     29                     30
                      A                      A                      A
 Frequencies --   1509.7635              1517.2613              1538.5818
 Red. masses --      1.0741                 1.1172                 1.0958
 Frc consts  --      1.4425                 1.5153                 1.5283
 IR Inten    --      2.8976                 4.0434                23.8905

                     31                     32                     33
                      A                      A                      A
 Frequencies --   3021.4574              3039.1355              3098.9114
 Red. masses --      1.0460                 1.0440                 1.0906
 Frc consts  --      5.6263                 5.6815                 6.1709
 IR Inten    --     62.4530                18.2875                34.8561

                     34                     35                     36
                      A                      A                      A
 Frequencies --   3117.0527              3141.5923              3159.2753
 Red. masses --      1.0936                 1.1022                 1.1029
 Frc consts  --      6.2603                 6.4091                 6.4860
 IR Inten    --     23.8952                16.5559                12.8223

                     37                     38                     39
                      A                      A                      A
 Frequencies --   3536.1044              3822.7443              3829.2196
 Red. masses --      1.0745                 1.0651                 1.0659
 Frc consts  --      7.9162                 9.1708                 9.2084
 IR Inten    --      0.3428                25.9768                18.3494

 - Thermochemistry -
 -------------------
 Temperature   298.150 Kelvin.  Pressure   1.00000 Atm.
 Atom     1 has atomic number  6 and mass  12.00000

 Molecular mass:    91.06333 amu.
 Principal axes and moments of inertia in atomic units:
                           1         2         3
     Eigenvalues --   368.54804 643.19969 656.70113
           X            0.99883   0.04801   0.00533
           Y           -0.04712   0.94388   0.32691
           Z            0.01067  -0.32678   0.94504
 This molecule is an asymmetric top.
 Rotational symmetry number  1.
 Rotational temperatures (Kelvin)      0.23501     0.13466     0.13189
 Rotational constants (GHZ):           4.89690     2.80588     2.74819
 Zero-point vibrational energy     340964.6 (Joules/Mol)
                                   81.49251 (Kcal/Mol)
 Warning -- explicit consideration of  11 degrees of freedom as
           vibrations may cause significant error
 Vibrational temperatures:    179.88   277.80   339.15   362.28   374.73
          (Kelvin)            520.57   540.88   579.61   739.53   764.20
                              864.40  1030.20  1173.32  1308.17  1398.41
                             1541.64  1560.39  1578.07  1664.40  1722.93
                             1760.57  1945.84  1958.04  2039.33  2103.27
                             2134.85  2159.94  2172.21  2183.00  2213.67
                             4347.20  4372.63  4458.64  4484.74  4520.05
                             4545.49  5087.66  5500.07  5509.39

 Zero-point correction=                           0.129867 (Hartree/Particle)
 Thermal correction to Energy=                    0.137445
 Thermal correction to Enthalpy=                  0.138389
 Thermal correction to Gibbs Free Energy=         0.099250
 Sum of electronic and zero-point Energies=           -324.808999
 Sum of electronic and thermal Energies=              -324.801421
 Sum of electronic and thermal Enthalpies=            -324.800477
 Sum of electronic and thermal Free Energies=         -324.839616

                     E (Thermal)             CV                S
                      KCal/Mol        Cal/Mol-Kelvin    Cal/Mol-Kelvin
 Total                   86.248             27.624             82.375
 Electronic               0.000              0.000              0.000
 Translational            0.889              2.981             39.439
 Rotational               0.889              2.981             26.546
 Vibrational             84.471             21.662             16.391
 Vibration     1          0.610              1.928              3.021
 Vibration     2          0.635              1.849              2.198
 Vibration     3          0.655              1.786              1.835
 Vibration     4          0.664              1.760              1.718
 Vibration     5          0.669              1.745              1.659
 Vibration     6          0.736              1.551              1.114
 Vibration     7          0.747              1.521              1.055
 Vibration     8          0.768              1.464              0.952
 Vibration     9          0.869              1.219              0.624
 Vibration    10          0.886              1.181              0.585
 Vibration    11          0.959              1.030              0.448

 Normal termination of Gaussian 09 at Thu Sep  8 15:11:08 2022.
