 Gaussian 09, Revision E.01,
 Gaussian 09:  ES64L-G09RevE.01 30-Nov-2015

 ----------------------------
 #P OPT Freq B3LYP/6-31G(d,p)
 ----------------------------

 --------
 Frag_585
 --------
 Symbolic Z-matrix:
 Charge =  0 Multiplicity = 1

 SCF Done:  E(RB3LYP) =  -343.602571516     A.U. after   14 cycles
 SCF Done:  E(RB3LYP) =  -343.602617551     A.U. after   10 cycles
 SCF Done:  E(RB3LYP) =  -343.602427335     A.U. after   12 cycles
 SCF Done:  E(RB3LYP) =  -343.602669805     A.U. after    8 cycles
 SCF Done:  E(RB3LYP) =  -343.602689411     A.U. after    9 cycles
 SCF Done:  E(RB3LYP) =  -343.602691854     A.U. after    8 cycles
 SCF Done:  E(RB3LYP) =  -343.602695598     A.U. after   10 cycles
 SCF Done:  E(RB3LYP) =  -343.602696614     A.U. after    8 cycles
 SCF Done:  E(RB3LYP) =  -343.602697486     A.U. after    9 cycles
 SCF Done:  E(RB3LYP) =  -343.602698015     A.U. after    9 cycles
 SCF Done:  E(RB3LYP) =  -343.602698093     A.U. after    8 cycles
 Optimization completed.
    -- Stationary point found.
 Normal termination of Gaussian 09 at Thu Sep  8 15:14:14 2022.

 ----------------------------------------------------------------------
 #P Geom=AllCheck Guess=TCheck SCRF=Check GenChk RB3LYP/6-31G(d,p) Freq
 ----------------------------------------------------------------------

 Structure from the checkpoint file:  "B3LYP6-31Gdp.Frag_585.chk"
 --------
 Frag_585
 --------
 Charge =  0 Multiplicity = 1

                         Standard orientation:
 ---------------------------------------------------------------------
 Center     Atomic      Atomic             Coordinates (Angstroms)
 Number     Number       Type             X           Y           Z
 ---------------------------------------------------------------------
      1          6           0       -1.235574    1.150824    0.577566
      2          6           0       -0.641799    0.118523   -0.393843
      3          8           0       -1.343142   -1.103085   -0.369551
      4          6           0        0.810235   -0.186029    0.005860
      5          8           0        1.160922   -1.141828    0.640170
      6          8           0        1.707266    0.771051   -0.366227
      7          1           0       -2.265576    1.392348    0.293023
      8          1           0       -0.663236    2.083904    0.580814
      9          1           0       -1.238443    0.739408    1.590329
     10          1           0       -0.630793    0.545785   -1.414145
     11          1           0       -2.280512   -0.907267   -0.497335
     12          1           0        1.281013    1.436802   -0.925325
 ---------------------------------------------------------------------

 SCF Done:  E(RB3LYP) =  -343.602698093     A.U. after    1 cycles

 The electronic state is 1-A.
 Alpha  occ. eigenvalues --  -19.19887 -19.16206 -19.13555 -10.31825 -10.26917
 Alpha  occ. eigenvalues --  -10.20624  -1.10183  -1.04170  -1.01794  -0.78187
 Alpha  occ. eigenvalues --   -0.67536  -0.61457  -0.53301  -0.52258  -0.47510
 Alpha  occ. eigenvalues --   -0.44432  -0.43426  -0.41160  -0.39789  -0.38567
 Alpha  occ. eigenvalues --   -0.35282  -0.31712  -0.28857  -0.27002
 Alpha virt. eigenvalues --    0.00639   0.04225   0.06385   0.12268   0.13981
 Alpha virt. eigenvalues --    0.14590   0.15841   0.18936   0.21609   0.24001
 Alpha virt. eigenvalues --    0.33717   0.37888   0.50216   0.51028   0.54554

 Mulliken charges:
               1
     1  C   -0.337635
     2  C    0.081138
     3  O   -0.510731
     4  C    0.595830
     5  O   -0.417357
     6  O   -0.484032
     7  H    0.110713
     8  H    0.107464
     9  H    0.148021
    10  H    0.079982
    11  H    0.309114
    12  H    0.317494
 Sum of Mulliken charges =  -0.00000

 Dipole moment (field-independent basis, Debye):
    X=             -3.3379    Y=              3.9233    Z=             -1.9756  Tot=              5.5169
 Quadrupole moment (field-independent basis, Debye-Ang):
   XX=            -34.4221   YY=            -36.7372   ZZ=            -33.7928
   XY=              1.7874   XZ=             -1.3349   YZ=             -0.3724

  Exact polarizability:  43.600  -0.095  43.801   0.652  -4.756  34.484
 Approx polarizability:  56.760   0.061  68.103   2.279 -12.668  50.322

                      1                      2                      3
                      A                      A                      A
 Frequencies --     43.5418               224.9737               240.8155
 Red. masses --      5.1495                 1.8850                 1.1589
 Frc consts  --      0.0058                 0.0562                 0.0396
 IR Inten    --      0.7667                30.9793                 1.4892

                      4                      5                      6
                      A                      A                      A
 Frequencies --    248.3870               306.8141               391.1214
 Red. masses --      1.4523                 3.7385                 3.8304
 Frc consts  --      0.0528                 0.2073                 0.3452
 IR Inten    --     90.5917                 5.4960                16.2883

                      7                      8                      9
                      A                      A                      A
 Frequencies --    465.9235               503.9904               642.6562
 Red. masses --      1.1390                 3.6860                 5.7304
 Frc consts  --      0.1457                 0.5516                 1.3944
 IR Inten    --    102.2313                 4.9085                14.6372

                     10                     11                     12
                      A                      A                      A
 Frequencies --    731.8323               805.0180               918.5281
 Red. masses --      4.6090                 3.0963                 2.2288
 Frc consts  --      1.4544                 1.1822                 1.1079
 IR Inten    --      1.2029                15.5683                28.5183

                     13                     14                     15
                      A                      A                      A
 Frequencies --   1046.6707              1098.1349              1131.1504
 Red. masses --      1.5380                 2.2642                 2.4942
 Frc consts  --      0.9927                 1.6087                 1.8803
 IR Inten    --     10.0294                 5.0146                98.7141

                     16                     17                     18
                      A                      A                      A
 Frequencies --   1182.7942              1253.9921              1295.0892
 Red. masses --      2.4518                 1.1345                 1.9230
 Frc consts  --      2.0209                 1.0511                 1.9003
 IR Inten    --     83.6439                59.8835               247.4654

                     19                     20                     21
                      A                      A                      A
 Frequencies --   1359.6701              1416.0985              1438.6951
 Red. masses --      1.3337                 1.2521                 1.4727
 Frc consts  --      1.4527                 1.4794                 1.7960
 IR Inten    --     71.2326                 5.1510                11.4899

                     22                     23                     24
                      A                      A                      A
 Frequencies --   1503.1277              1516.4940              1902.8713
 Red. masses --      1.0501                 1.1005                10.7084
 Frc consts  --      1.3979                 1.4911                22.8452
 IR Inten    --      6.2103                14.7823               215.9528

                     25                     26                     27
                      A                      A                      A
 Frequencies --   2936.3301              3045.7825              3115.5906
 Red. masses --      1.0823                 1.0361                 1.1017
 Frc consts  --      5.4979                 5.6629                 6.3009
 IR Inten    --     69.3582                14.2866                24.6596

                     28                     29                     30
                      A                      A                      A
 Frequencies --   3141.7823              3792.0621              3818.9132
 Red. masses --      1.1031                 1.0657                 1.0664
 Frc consts  --      6.4155                 9.0293                 9.1632
 IR Inten    --     12.6588                23.8774                18.1948

 - Thermochemistry -
 -------------------
 Temperature   298.150 Kelvin.  Pressure   1.00000 Atm.
 Atom     1 has atomic number  6 and mass  12.00000

 Molecular mass:    90.03169 amu.
 Principal axes and moments of inertia in atomic units:
                           1         2         3
     Eigenvalues --   352.92831 589.80992 779.98289
           X            0.99931  -0.03247  -0.01825
           Y            0.03286   0.99923   0.02158
           Z            0.01754  -0.02217   0.99960
 This molecule is an asymmetric top.
 Rotational symmetry number  1.
 Rotational temperatures (Kelvin)      0.24541     0.14685     0.11105
 Rotational constants (GHZ):           5.11362     3.05987     2.31382
 Zero-point vibrational energy     248337.9 (Joules/Mol)
                                   59.35418 (Kcal/Mol)
 Warning -- explicit consideration of   8 degrees of freedom as
           vibrations may cause significant error
 Vibrational temperatures:     62.65   323.69   346.48   357.37   441.44
          (Kelvin)            562.74   670.36   725.13   924.64  1052.94
                             1158.24  1321.56  1505.92  1579.97  1627.47
                             1701.77  1804.21  1863.34  1956.26  2037.45
                             2069.96  2162.66  2181.89  2737.80  4224.72
                             4382.20  4482.63  4520.32  5455.92  5494.56

 Zero-point correction=                           0.094587 (Hartree/Particle)
 Thermal correction to Energy=                    0.101499
 Thermal correction to Enthalpy=                  0.102443
 Thermal correction to Gibbs Free Energy=         0.063636
 Sum of electronic and zero-point Energies=           -343.508111
 Sum of electronic and thermal Energies=              -343.501199
 Sum of electronic and thermal Enthalpies=            -343.500255
 Sum of electronic and thermal Free Energies=         -343.539062

                     E (Thermal)             CV                S
                      KCal/Mol        Cal/Mol-Kelvin    Cal/Mol-Kelvin
 Total                   63.692             23.715             81.677
 Electronic               0.000              0.000              0.000
 Translational            0.889              2.981             39.405
 Rotational               0.889              2.981             26.587
 Vibrational             61.914             17.754             15.685
 Vibration     1          0.595              1.980              5.091
 Vibration     2          0.650              1.803              1.919
 Vibration     3          0.658              1.778              1.797
 Vibration     4          0.662              1.765              1.742
 Vibration     5          0.697              1.661              1.379
 Vibration     6          0.759              1.489              0.996
 Vibration     7          0.823              1.326              0.749
 Vibration     8          0.859              1.241              0.648

 Optimization completed.
    -- Stationary point found.
 Normal termination of Gaussian 09 at Thu Sep  8 15:14:23 2022.
