 Gaussian 09, Revision E.01,
 Gaussian 09:  ES64L-G09RevE.01 30-Nov-2015

 ----------------------------
 #P OPT Freq B3LYP/6-31G(d,p)
 ----------------------------

 --------
 Frag_968
 --------
 Symbolic Z-matrix:
 Charge =  0 Multiplicity = 1

 SCF Done:  E(RB3LYP) =  -380.260875629     A.U. after   12 cycles
 SCF Done:  E(RB3LYP) =  -380.260948296     A.U. after   10 cycles
 SCF Done:  E(RB3LYP) =  -380.260964238     A.U. after    8 cycles
 SCF Done:  E(RB3LYP) =  -380.260974432     A.U. after    9 cycles
 SCF Done:  E(RB3LYP) =  -380.260989659     A.U. after   10 cycles
 SCF Done:  E(RB3LYP) =  -380.261010418     A.U. after   10 cycles
 SCF Done:  E(RB3LYP) =  -380.261050791     A.U. after   10 cycles
 SCF Done:  E(RB3LYP) =  -380.262142487     A.U. after   13 cycles
 SCF Done:  E(RB3LYP) =  -380.265667349     A.U. after   12 cycles
 SCF Done:  E(RB3LYP) =  -380.244796975     A.U. after   13 cycles
 SCF Done:  E(RB3LYP) =  -380.265856176     A.U. after    8 cycles
 SCF Done:  E(RB3LYP) =  -380.267752866     A.U. after   12 cycles
 SCF Done:  E(RB3LYP) =  -380.268148318     A.U. after   10 cycles
 SCF Done:  E(RB3LYP) =  -380.268223401     A.U. after   10 cycles
 SCF Done:  E(RB3LYP) =  -380.268238985     A.U. after    9 cycles
 SCF Done:  E(RB3LYP) =  -380.268242671     A.U. after    8 cycles
 SCF Done:  E(RB3LYP) =  -380.268243313     A.U. after    7 cycles
 SCF Done:  E(RB3LYP) =  -380.268243518     A.U. after    6 cycles
 Optimization completed.
    -- Stationary point found.
 Normal termination of Gaussian 09 at Thu Sep  8 15:14:27 2022.

 ----------------------------------------------------------------------
 #P Geom=AllCheck Guess=TCheck SCRF=Check GenChk RB3LYP/6-31G(d,p) Freq
 ----------------------------------------------------------------------

 Structure from the checkpoint file:  "B3LYP6-31Gdp.Frag_968.chk"
 --------
 Frag_968
 --------
 Charge =  0 Multiplicity = 1

                         Standard orientation:
 ---------------------------------------------------------------------
 Center     Atomic      Atomic             Coordinates (Angstroms)
 Number     Number       Type             X           Y           Z
 ---------------------------------------------------------------------
      1          6           0        1.530284   -1.194768   -0.031091
      2          7           0        0.801552    0.013432   -0.395893
      3          7           0        1.410483    1.212625    0.081258
      4          6           0       -0.650450    0.009130   -0.047703
      5          6           0       -0.958444   -0.274822    1.424978
      6          8           0       -1.165634    1.252722   -0.433250
      7          8           0       -1.263345   -0.997869   -0.796085
      8          1           0        0.946698   -2.063787   -0.339405
      9          1           0        2.488620   -1.213462   -0.560861
     10          1           0        1.736669   -1.272281    1.051804
     11          1           0        2.164952    1.458981   -0.554253
     12          1           0        1.821289    1.078075    1.011173
     13          1           0       -2.036918   -0.199359    1.575210
     14          1           0       -0.469802    0.469083    2.061361
     15          1           0       -0.632368   -1.274191    1.724261
     16          1           0       -0.424906    1.872399   -0.290347
     17          1           0       -1.174988   -0.713917   -1.718912
 ---------------------------------------------------------------------

 SCF Done:  E(RB3LYP) =  -380.268243518     A.U. after    1 cycles

 The electronic state is 1-A.
 Alpha  occ. eigenvalues --  -19.14252 -19.12753 -14.36358 -14.35512 -10.30356
 Alpha  occ. eigenvalues --  -10.20874 -10.16930  -1.06532  -0.98778  -0.96419
 Alpha  occ. eigenvalues --   -0.79890  -0.72755  -0.67295  -0.58576  -0.52694
 Alpha  occ. eigenvalues --   -0.51779  -0.50145  -0.48202  -0.43583  -0.42315
 Alpha  occ. eigenvalues --   -0.40616  -0.38282  -0.38048  -0.35244  -0.33844
 Alpha  occ. eigenvalues --   -0.30261  -0.27889  -0.25851  -0.23308
 Alpha virt. eigenvalues --    0.06058   0.10428   0.12223   0.13166   0.14581
 Alpha virt. eigenvalues --    0.15858   0.16263   0.16587   0.17174   0.18654
 Alpha virt. eigenvalues --    0.19113   0.23616   0.24358   0.26992   0.28874

 Mulliken charges:
               1
     1  C   -0.170238
     2  N   -0.355516
     3  N   -0.483093
     4  C    0.639475
     5  C   -0.318765
     6  O   -0.568823
     7  O   -0.532260
     8  H    0.139227
     9  H    0.103985
    10  H    0.082034
    11  H    0.268360
    12  H    0.237536
    13  H    0.132045
    14  H    0.094139
    15  H    0.104515
    16  H    0.320994
    17  H    0.306384
 Sum of Mulliken charges =   0.00000

 Dipole moment (field-independent basis, Debye):
    X=              3.4534    Y=              0.0941    Z=              0.6260  Tot=              3.5109
 Quadrupole moment (field-independent basis, Debye-Ang):
   XX=            -41.8307   YY=            -43.8730   ZZ=            -40.1438
   XY=              2.0768   XZ=              0.0611   YZ=              0.6421

  Exact polarizability:  58.144   1.686  54.741   0.743   0.427  50.951
 Approx polarizability:  76.329   3.891  77.337   3.750   0.679  70.770

                      1                      2                      3
                      A                      A                      A
 Frequencies --    107.9718               222.3771               262.8910
 Red. masses --      3.3596                 1.2511                 1.7779
 Frc consts  --      0.0231                 0.0365                 0.0724
 IR Inten    --      2.7231                 3.8535                 3.9670

                      4                      5                      6
                      A                      A                      A
 Frequencies --    282.7760               297.2799               354.9973
 Red. masses --      1.2445                 2.1277                 1.2057
 Frc consts  --      0.0586                 0.1108                 0.0895
 IR Inten    --      0.4519                 1.0689                 7.1234

                      7                      8                      9
                      A                      A                      A
 Frequencies --    371.0045               393.9068               406.6636
 Red. masses --      1.5814                 2.1110                 2.8847
 Frc consts  --      0.1282                 0.1930                 0.2811
 IR Inten    --     65.5455                22.2753                 6.9615

                     10                     11                     12
                      A                      A                      A
 Frequencies --    434.2423               533.0908               552.7284
 Red. masses --      2.2737                 2.9418                 2.9517
 Frc consts  --      0.2526                 0.4926                 0.5313
 IR Inten    --     14.7518                 5.3756                47.8544

                     13                     14                     15
                      A                      A                      A
 Frequencies --    567.0973               621.8956               726.9253
 Red. masses --      4.1575                 1.2345                 4.2002
 Frc consts  --      0.7878                 0.2813                 1.3077
 IR Inten    --      8.6073                69.9126                21.9528

                     16                     17                     18
                      A                      A                      A
 Frequencies --    892.5601               912.8408               980.2655
 Red. masses --      2.9697                 2.1934                 1.7663
 Frc consts  --      1.3939                 1.0768                 1.0000
 IR Inten    --     41.7651                54.1782                46.8262

                     19                     20                     21
                      A                      A                      A
 Frequencies --   1039.2198              1066.9257              1136.5895
 Red. masses --      1.3900                 1.9978                 1.6706
 Frc consts  --      0.8845                 1.3399                 1.2715
 IR Inten    --     34.9064                68.4995                47.6110

                     22                     23                     24
                      A                      A                      A
 Frequencies --   1157.7319              1168.8680              1250.5052
 Red. masses --      1.5843                 4.1380                 3.4655
 Frc consts  --      1.2511                 3.3310                 3.1929
 IR Inten    --     45.0580                26.8399               185.5547

                     25                     26                     27
                      A                      A                      A
 Frequencies --   1270.2473              1311.4829              1381.0375
 Red. masses --      2.1513                 1.3006                 1.3575
 Frc consts  --      2.0451                 1.3180                 1.5255
 IR Inten    --      0.4596                 9.3002                63.2639

                     28                     29                     30
                      A                      A                      A
 Frequencies --   1413.3010              1434.6787              1455.4027
 Red. masses --      1.3984                 1.6382                 1.2127
 Frc consts  --      1.6457                 1.9867                 1.5134
 IR Inten    --    194.9902                70.2724                28.8892

                     31                     32                     33
                      A                      A                      A
 Frequencies --   1495.0241              1505.4268              1510.1973
 Red. masses --      1.0559                 1.0648                 1.0496
 Frc consts  --      1.3904                 1.4218                 1.4104
 IR Inten    --      5.0013                10.0302                12.9261

                     34                     35                     36
                      A                      A                      A
 Frequencies --   1524.1289              1678.3668              2956.3003
 Red. masses --      1.0688                 1.0826                 1.0580
 Frc consts  --      1.4628                 1.7968                 5.4479
 IR Inten    --      7.0457                26.1536                66.2823

                     37                     38                     39
                      A                      A                      A
 Frequencies --   3061.1444              3075.9973              3135.3112
 Red. masses --      1.0360                 1.0802                 1.1027
 Frc consts  --      5.7197                 6.0220                 6.3866
 IR Inten    --     10.2888                44.9056                21.6035

                     40                     41                     42
                      A                      A                      A
 Frequencies --   3151.4993              3154.5828              3381.7662
 Red. masses --      1.0979                 1.1023                 1.0567
 Frc consts  --      6.4247                 6.4631                 7.1203
 IR Inten    --     11.0245                12.9226                14.0471

                     43                     44                     45
                      A                      A                      A
 Frequencies --   3543.0786              3646.9728              3781.3777
 Red. masses --      1.0849                 1.0639                 1.0645
 Frc consts  --      8.0239                 8.3368                 8.9678
 IR Inten    --      1.0540               124.3074                23.7951

 - Thermochemistry -
 -------------------
 Temperature   298.150 Kelvin.  Pressure   1.00000 Atm.
 Atom     1 has atomic number  6 and mass  12.00000

 Molecular mass:   106.07423 amu.
 Principal axes and moments of inertia in atomic units:
                           1         2         3
     Eigenvalues --   541.52355 743.49888 889.63320
           X            0.99955  -0.02000  -0.02226
           Y            0.01969   0.99971  -0.01404
           Z            0.02254   0.01359   0.99965
 This molecule is an asymmetric top.
 Rotational symmetry number  1.
 Warning -- assumption of classical behavior for rotation
           may cause significant error
 Rotational temperatures (Kelvin)      0.15994     0.11649     0.09736
 Rotational constants (GHZ):           3.33271     2.42736     2.02864
 Zero-point vibrational energy     386445.7 (Joules/Mol)
                                   92.36274 (Kcal/Mol)
 Warning -- explicit consideration of  13 degrees of freedom as
           vibrations may cause significant error
 Vibrational temperatures:    155.35   319.95   378.24   406.85   427.72
          (Kelvin)            510.76   533.79   566.74   585.10   624.78
                              767.00   795.25   815.93   894.77  1045.88
                             1284.19  1313.37  1410.38  1495.20  1535.07
                             1635.30  1665.72  1681.74  1799.20  1827.60
                             1886.93  1987.00  2033.42  2064.18  2094.00
                             2151.00  2165.97  2172.83  2192.88  2414.79
                             4253.45  4404.30  4425.67  4511.01  4534.30
                             4538.74  4865.60  5097.69  5247.17  5440.55

 Zero-point correction=                           0.147189 (Hartree/Particle)
 Thermal correction to Energy=                    0.155364
 Thermal correction to Enthalpy=                  0.156308
 Thermal correction to Gibbs Free Energy=         0.115781
 Sum of electronic and zero-point Energies=           -380.121054
 Sum of electronic and thermal Energies=              -380.112880
 Sum of electronic and thermal Enthalpies=            -380.111936
 Sum of electronic and thermal Free Energies=         -380.152463

                     E (Thermal)             CV                S
                      KCal/Mol        Cal/Mol-Kelvin    Cal/Mol-Kelvin
 Total                   97.492             31.400             85.296
 Electronic               0.000              0.000              0.000
 Translational            0.889              2.981             39.894
 Rotational               0.889              2.981             27.373
 Vibrational             95.715             25.439             18.029
 Vibration     1          0.606              1.943              3.305
 Vibration     2          0.648              1.807              1.940
 Vibration     3          0.670              1.741              1.642
 Vibration     4          0.682              1.706              1.517
 Vibration     5          0.691              1.679              1.432
 Vibration     6          0.731              1.565              1.144
 Vibration     7          0.743              1.532              1.076
 Vibration     8          0.761              1.483              0.985
 Vibration     9          0.771              1.456              0.938
 Vibration    10          0.795              1.396              0.845
 Vibration    11          0.888              1.177              0.580
 Vibration    12          0.908              1.134              0.539
 Vibration    13          0.923              1.102              0.510

 Normal termination of Gaussian 09 at Thu Sep  8 15:14:43 2022.
