 Gaussian 09, Revision E.01,
 Gaussian 09:  ES64L-G09RevE.01 30-Nov-2015

 -------------------------
 #P OPT Freq B3LYP/6-31G**
 -------------------------

 --------
 Frag_222
 --------
 Symbolic Z-matrix:
 Charge =  0 Multiplicity = 1

 SCF Done:  E(RB3LYP) =  -289.027326999     A.U. after   13 cycles
 SCF Done:  E(RB3LYP) =  -289.032432903     A.U. after   11 cycles
 SCF Done:  E(RB3LYP) =  -289.032668610     A.U. after   11 cycles
 SCF Done:  E(RB3LYP) =  -289.032794368     A.U. after   10 cycles
 SCF Done:  E(RB3LYP) =  -289.032858747     A.U. after   10 cycles
 SCF Done:  E(RB3LYP) =  -289.032908485     A.U. after   10 cycles
 SCF Done:  E(RB3LYP) =  -289.032927921     A.U. after    9 cycles
 SCF Done:  E(RB3LYP) =  -289.032934951     A.U. after    8 cycles
 SCF Done:  E(RB3LYP) =  -289.032935384     A.U. after    7 cycles
 SCF Done:  E(RB3LYP) =  -289.032935505     A.U. after    6 cycles
 Optimization completed.
    -- Stationary point found.
 Normal termination of Gaussian 09 at Sat Aug 21 01:36:46 2021.

 ----------------------------------------------------------------------
 #P Geom=AllCheck Guess=TCheck SCRF=Check GenChk RB3LYP/6-31G(d,p) Freq
 ----------------------------------------------------------------------

 Structure from the checkpoint file:  "/public/home/users/caep010/.cache/gau_scr/Gau-200875.chk"
 --------
 Frag_222
 --------
 Charge =  0 Multiplicity = 1

                         Standard orientation:
 ---------------------------------------------------------------------
 Center     Atomic      Atomic             Coordinates (Angstroms)
 Number     Number       Type             X           Y           Z
 ---------------------------------------------------------------------
      1          6           0       -0.981166    1.310766    0.643309
      2          6           0       -0.705354    0.269892   -0.447207
      3          7           0       -1.786540   -0.725377   -0.431070
      4          6           0        0.695244   -0.374192   -0.326940
      5          6           0        1.861549    0.608876   -0.432033
      6          8           0        0.713227   -1.069968    0.924243
      7          1           0       -0.887437    0.859494    1.635645
      8          1           0       -1.998667    1.692176    0.530989
      9          1           0       -0.286484    2.153990    0.588157
     10          1           0       -0.740285    0.769220   -1.425418
     11          1           0       -1.659212   -1.376124   -1.205084
     12          1           0       -1.677878   -1.284776    0.414304
     13          1           0        0.779223   -1.102695   -1.153392
     14          1           0        1.858391    1.310470    0.406354
     15          1           0        2.820354    0.076695   -0.422766
     16          1           0        1.813261    1.179993   -1.365738
     17          1           0        1.557065   -1.533106    0.997727
 ---------------------------------------------------------------------

 SCF Done:  E(RB3LYP) =  -289.032935505     A.U. after    1 cycles

 The electronic state is 1-A.
 Alpha  occ. eigenvalues --  -19.14446 -14.29883 -10.23214 -10.20555 -10.17916
 Alpha  occ. eigenvalues --  -10.16153  -1.01726  -0.87191  -0.75827  -0.70755
 Alpha  occ. eigenvalues --   -0.63749  -0.56323  -0.51308  -0.46762  -0.45356
 Alpha  occ. eigenvalues --   -0.43662  -0.40406  -0.39137  -0.38475  -0.35962
 Alpha  occ. eigenvalues --   -0.34742  -0.33203  -0.32233  -0.26867  -0.22598
 Alpha virt. eigenvalues --    0.06324   0.10792   0.11578   0.13348   0.14102
 Alpha virt. eigenvalues --    0.16179   0.17076   0.17616   0.19138   0.20124
 Alpha virt. eigenvalues --    0.21252   0.22527   0.24058   0.26075   0.27390

 Mulliken charges:
               1
     1  C   -0.310085
     2  C    0.049576
     3  N   -0.591897
     4  C    0.169232
     5  C   -0.332099
     6  O   -0.547348
     7  H    0.118082
     8  H    0.115007
     9  H    0.092776
    10  H    0.086001
    11  H    0.225598
    12  H    0.245849
    13  H    0.059749
    14  H    0.120841
    15  H    0.090383
    16  H    0.104060
    17  H    0.304275
 Sum of Mulliken charges =  -0.00000

 Dipole moment (field-independent basis, Debye):
    X=              2.4291    Y=             -0.7630    Z=             -0.7521  Tot=              2.6549
 Quadrupole moment (field-independent basis, Debye-Ang):
   XX=            -40.6877   YY=            -35.8507   ZZ=            -38.3761
   XY=             -1.3855   XZ=              0.0046   YZ=              0.3269

  Exact polarizability:  58.037   0.437  54.134  -0.481   0.253  51.447
 Approx polarizability:  73.263   0.675  72.310  -0.282  -1.593  74.644

                      1                      2                      3
                      A                      A                      A
 Frequencies --     97.8789               214.0747               237.4812
 Red. masses --      2.9233                 1.1050                 1.5592
 Frc consts  --      0.0165                 0.0298                 0.0518
 IR Inten    --      2.2255                 1.2285                12.5712

                      4                      5                      6
                      A                      A                      A
 Frequencies --    258.3187               271.7952               282.2915
 Red. masses --      1.1915                 1.6131                 1.6163
 Frc consts  --      0.0468                 0.0702                 0.0759
 IR Inten    --     53.3572                50.5510                12.8383

                      7                      8                      9
                      A                      A                      A
 Frequencies --    307.4182               366.6631               432.0253
 Red. masses --      1.2975                 2.9207                 2.2941
 Frc consts  --      0.0722                 0.2314                 0.2523
 IR Inten    --     26.7983                13.9689                 5.4501

                     10                     11                     12
                      A                      A                      A
 Frequencies --    509.4056               626.0504               766.1002
 Red. masses --      2.8592                 2.5011                 2.5713
 Frc consts  --      0.4371                 0.5776                 0.8891
 IR Inten    --      0.7897                15.5762                 7.1253

                     13                     14                     15
                      A                      A                      A
 Frequencies --    898.1482               918.3517               944.4004
 Red. masses --      2.2189                 1.6408                 1.6830
 Frc consts  --      1.0546                 0.8153                 0.8844
 IR Inten    --     16.7713               151.5509                21.3109

                     16                     17                     18
                      A                      A                      A
 Frequencies --    993.8158              1039.0708              1057.6399
 Red. masses --      1.3701                 1.3696                 1.6619
 Frc consts  --      0.7973                 0.8713                 1.0953
 IR Inten    --     10.7364                54.6949                10.9741

                     19                     20                     21
                      A                      A                      A
 Frequencies --   1094.4107              1166.9262              1170.3049
 Red. masses --      2.2357                 1.8771                 2.3136
 Frc consts  --      1.5777                 1.5060                 1.8670
 IR Inten    --     12.2198                 6.4204                58.8091

                     22                     23                     24
                      A                      A                      A
 Frequencies --   1225.8205              1283.4105              1358.9451
 Red. masses --      1.3089                 1.4369                 1.2132
 Frc consts  --      1.1588                 1.3944                 1.3200
 IR Inten    --     31.3831                 6.6588                12.0778

                     25                     26                     27
                      A                      A                      A
 Frequencies --   1388.6880              1403.7120              1407.2835
 Red. masses --      1.5301                 1.3016                 1.2545
 Frc consts  --      1.7385                 1.5110                 1.4638
 IR Inten    --     22.6213                 1.6896                 8.4734

                     28                     29                     30
                      A                      A                      A
 Frequencies --   1422.0227              1441.7751              1504.2430
 Red. masses --      1.2751                 1.4367                 1.0464
 Frc consts  --      1.5192                 1.7596                 1.3950
 IR Inten    --      9.5791                10.9818                 4.9300

                     31                     32                     33
                      A                      A                      A
 Frequencies --   1506.9443              1516.1313              1518.9087
 Red. masses --      1.0620                 1.0515                 1.0598
 Frc consts  --      1.4209                 1.4241                 1.4405
 IR Inten    --      3.6419                 2.9062                 0.9671

                     34                     35                     36
                      A                      A                      A
 Frequencies --   1673.7219              2949.1528              3030.9573
 Red. masses --      1.0905                 1.0837                 1.0796
 Frc consts  --      1.7999                 5.5533                 5.8438
 IR Inten    --     22.3842                73.6917                27.4362

                     37                     38                     39
                      A                      A                      A
 Frequencies --   3038.6005              3057.1434              3100.4004
 Red. masses --      1.0434                 1.0355                 1.1000
 Frc consts  --      5.6760                 5.7018                 6.2301
 IR Inten    --     29.5022                15.7946                31.9415

                     40                     41                     42
                      A                      A                      A
 Frequencies --   3126.9922              3134.6763              3141.7642
 Red. masses --      1.1020                 1.1010                 1.1028
 Frc consts  --      6.3485                 6.3743                 6.4133
 IR Inten    --     35.9649                19.8947                22.0384

                     43                     44                     45
                      A                      A                      A
 Frequencies --   3468.0282              3550.6549              3824.1205
 Red. masses --      1.0494                 1.0913                 1.0666
 Frc consts  --      7.4362                 8.1058                 9.1897
 IR Inten    --      2.7452                 1.3865                13.4540

 - Thermochemistry -
 -------------------
 Temperature   298.150 Kelvin.  Pressure   1.00000 Atm.
 Atom     1 has atomic number  6 and mass  12.00000

 Molecular mass:    89.08406 amu.
 Principal axes and moments of inertia in atomic units:
                           1         2         3
     Eigenvalues --   396.68718 661.50036 783.01951
           X            0.99966   0.01147  -0.02337
           Y           -0.00996   0.99792   0.06363
           Z            0.02406  -0.06338   0.99770
 This molecule is an asymmetric top.
 Rotational symmetry number  1.
 Rotational temperatures (Kelvin)      0.21834     0.13094     0.11062
 Rotational constants (GHZ):           4.54953     2.72825     2.30485
 Zero-point vibrational energy     405095.4 (Joules/Mol)
                                   96.82013 (Kcal/Mol)
 Warning -- explicit consideration of  10 degrees of freedom as
           vibrations may cause significant error
 Vibrational temperatures:    140.83   308.01   341.68   371.66   391.05
          (Kelvin)            406.15   442.31   527.55   621.59   732.92
                              900.75  1102.25  1292.23  1321.30  1358.78
                             1429.88  1494.99  1521.71  1574.61  1678.94
                             1683.81  1763.68  1846.54  1955.22  1998.01
                             2019.63  2024.76  2045.97  2074.39  2164.27
                             2168.15  2181.37  2185.37  2408.11  4243.17
                             4360.87  4371.86  4398.54  4460.78  4499.04
                             4510.09  4520.29  4989.71  5108.59  5502.05

 Zero-point correction=                           0.154293 (Hartree/Particle)
 Thermal correction to Energy=                    0.162172
 Thermal correction to Enthalpy=                  0.163117
 Thermal correction to Gibbs Free Energy=         0.123244
 Sum of electronic and zero-point Energies=           -288.878643
 Sum of electronic and thermal Energies=              -288.870763
 Sum of electronic and thermal Enthalpies=            -288.869819
 Sum of electronic and thermal Free Energies=         -288.909691

                     E (Thermal)             CV                S
                      KCal/Mol        Cal/Mol-Kelvin    Cal/Mol-Kelvin
 Total                  101.765             28.711             83.918
 Electronic               0.000              0.000              0.000
 Translational            0.889              2.981             39.374
 Rotational               0.889              2.981             26.821
 Vibrational             99.987             22.749             17.724
 Vibration     1          0.603              1.951              3.496
 Vibration     2          0.644              1.820              2.009
 Vibration     3          0.656              1.783              1.822
 Vibration     4          0.667              1.749              1.673
 Vibration     5          0.675              1.725              1.585
 Vibration     6          0.681              1.706              1.520
 Vibration     7          0.697              1.660              1.376
 Vibration     8          0.740              1.541              1.094
 Vibration     9          0.793              1.400              0.852
 Vibration    10          0.865              1.229              0.635

 Optimization completed.
    -- Stationary point found.
 Normal termination of Gaussian 09 at Sat Aug 21 01:37:00 2021.
