 Gaussian 09, Revision E.01,
 Gaussian 09:  ES64L-G09RevE.01 30-Nov-2015

 ----------------------------
 #P OPT Freq B3LYP/6-31G(d,p)
 ----------------------------

 --------
 Frag_733
 --------
 Symbolic Z-matrix:
 Charge =  0 Multiplicity = 1

 SCF Done:  E(RB3LYP) =  -308.487181204     A.U. after   12 cycles
 SCF Done:  E(RB3LYP) =  -308.487196732     A.U. after    8 cycles
 SCF Done:  E(RB3LYP) =  -308.487199813     A.U. after    7 cycles
 SCF Done:  E(RB3LYP) =  -308.487199109     A.U. after    7 cycles
 SCF Done:  E(RB3LYP) =  -308.487199550     A.U. after    6 cycles
 Optimization completed.
    -- Stationary point found.
 Normal termination of Gaussian 09 at Thu Sep  8 15:22:26 2022.

 ----------------------------------------------------------------------
 #P Geom=AllCheck Guess=TCheck SCRF=Check GenChk RB3LYP/6-31G(d,p) Freq
 ----------------------------------------------------------------------

 Structure from the checkpoint file:  "B3LYP6-31Gdp.Frag_733.chk"
 --------
 Frag_733
 --------
 Charge =  0 Multiplicity = 1

                         Standard orientation:
 ---------------------------------------------------------------------
 Center     Atomic      Atomic             Coordinates (Angstroms)
 Number     Number       Type             X           Y           Z
 ---------------------------------------------------------------------
      1          6           0        1.625928    1.254119    0.010479
      2          6           0        0.853306    0.003133   -0.441295
      3          6           0        1.602257   -1.263419    0.000294
      4          6           0       -0.657813    0.005840   -0.025171
      5          6           0       -0.855186   -0.113921    1.498784
      6          7           0       -1.423410   -1.084167   -0.646330
      7          7           0       -1.266257    1.226269   -0.581659
      8          1           0        1.185907    2.170775   -0.392240
      9          1           0        1.665512    1.338225    1.102799
     10          1           0        2.660709    1.210277   -0.346125
     11          1           0        0.830564    0.019237   -1.539847
     12          1           0        2.598119   -1.294029   -0.453646
     13          1           0        1.740048   -1.297013    1.086663
     14          1           0        1.080980   -2.177629   -0.301995
     15          1           0       -0.452824   -1.051150    1.899097
     16          1           0       -1.924660   -0.086227    1.725996
     17          1           0       -0.366822    0.710084    2.028044
     18          1           0       -1.273507   -1.058870   -1.653521
     19          1           0       -1.096295   -1.986559   -0.313066
     20          1           0       -2.272696    1.151169   -0.445370
     21          1           0       -0.958317    2.042487   -0.059413
 ---------------------------------------------------------------------

 SCF Done:  E(RB3LYP) =  -308.487199550     A.U. after    1 cycles

 The electronic state is 1-A.
 Alpha  occ. eigenvalues --  -14.30557 -14.30185 -10.23701 -10.18169 -10.17309
 Alpha  occ. eigenvalues --  -10.17138 -10.16912  -0.91428  -0.82580  -0.77938
 Alpha  occ. eigenvalues --   -0.70772  -0.67918  -0.61537  -0.53879  -0.49693
 Alpha  occ. eigenvalues --   -0.48043  -0.45110  -0.43421  -0.40804  -0.39973
 Alpha  occ. eigenvalues --   -0.38646  -0.38057  -0.37674  -0.36145  -0.33600
 Alpha  occ. eigenvalues --   -0.32800  -0.31605  -0.23737  -0.22807
 Alpha virt. eigenvalues --    0.06691   0.11065   0.11940   0.12740   0.13507
 Alpha virt. eigenvalues --    0.13974   0.15272   0.16155   0.17483   0.18588
 Alpha virt. eigenvalues --    0.19830   0.20937   0.21583   0.23027   0.24404

 Mulliken charges:
               1
     1  C   -0.329286
     2  C   -0.021184
     3  C   -0.318520
     4  C    0.239574
     5  C   -0.309953
     6  N   -0.591430
     7  N   -0.591864
     8  H    0.106628
     9  H    0.098031
    10  H    0.099840
    11  H    0.086272
    12  H    0.101536
    13  H    0.102846
    14  H    0.083059
    15  H    0.094042
    16  H    0.108229
    17  H    0.094648
    18  H    0.240392
    19  H    0.234265
    20  H    0.241524
    21  H    0.231351
 Sum of Mulliken charges =  -0.00000

 Dipole moment (field-independent basis, Debye):
    X=              0.7993    Y=             -0.2423    Z=              0.7950  Tot=              1.1531
 Quadrupole moment (field-independent basis, Debye-Ang):
   XX=            -48.2786   YY=            -43.7243   ZZ=            -46.8704
   XY=             -1.4486   XZ=             -1.4098   YZ=              2.6516

  Exact polarizability:  71.998  -0.236  69.934   0.403   0.358  63.325
 Approx polarizability:  94.528   0.497  96.737   2.446  -0.241  91.228

                      1                      2                      3
                      A                      A                      A
 Frequencies --     79.1926               217.1160               233.6243
 Red. masses --      2.4118                 1.0526                 1.1186
 Frc consts  --      0.0089                 0.0292                 0.0360
 IR Inten    --      0.2772                 0.6469                 5.1414

                      4                      5                      6
                      A                      A                      A
 Frequencies --    261.7218               272.8797               286.0110
 Red. masses --      1.2560                 1.7736                 1.9313
 Frc consts  --      0.0507                 0.0778                 0.0931
 IR Inten    --      3.9087                15.4643                 7.7015

                      7                      8                      9
                      A                      A                      A
 Frequencies --    292.0075               323.8092               371.9883
 Red. masses --      1.4501                 1.2845                 1.9173
 Frc consts  --      0.0729                 0.0794                 0.1563
 IR Inten    --     19.3157                10.9728                 8.9124

                     10                     11                     12
                      A                      A                      A
 Frequencies --    388.5015               443.1548               470.0730
 Red. masses --      2.0473                 2.3558                 2.4167
 Frc consts  --      0.1821                 0.2726                 0.3146
 IR Inten    --     17.7825                 4.4431                 5.3929

                     13                     14                     15
                      A                      A                      A
 Frequencies --    490.8127               545.1685               702.1022
 Red. masses --      2.7589                 2.4864                 2.9517
 Frc consts  --      0.3916                 0.4354                 0.8573
 IR Inten    --      5.5867                 1.7243                 2.9339

                     16                     17                     18
                      A                      A                      A
 Frequencies --    849.1599               888.7315               913.6308
 Red. masses --      1.9122                 1.9102                 1.7937
 Frc consts  --      0.8124                 0.8889                 0.8822
 IR Inten    --     72.7682               121.6059                48.2646

                     19                     20                     21
                      A                      A                      A
 Frequencies --    930.5132               935.4459               968.4826
 Red. masses --      1.3074                 1.1896                 1.4054
 Frc consts  --      0.6670                 0.6133                 0.7767
 IR Inten    --     15.4837                79.1973                 4.5202

                     22                     23                     24
                      A                      A                      A
 Frequencies --    981.4252               997.9727              1069.4047
 Red. masses --      1.4660                 2.1215                 1.3689
 Frc consts  --      0.8319                 1.2449                 0.9224
 IR Inten    --     21.7093                24.5206                12.5986

                     25                     26                     27
                      A                      A                      A
 Frequencies --   1119.0190              1138.5792              1195.6876
 Red. masses --      1.9442                 1.6902                 1.9142
 Frc consts  --      1.4344                 1.2909                 1.6124
 IR Inten    --      7.5236                11.5354                 4.9924

                     28                     29                     30
                      A                      A                      A
 Frequencies --   1263.5613              1303.0274              1315.0893
 Red. masses --      2.8174                 1.5798                 1.7453
 Frc consts  --      2.6503                 1.5803                 1.7784
 IR Inten    --     35.4799                 8.7131                19.4409

                     31                     32                     33
                      A                      A                      A
 Frequencies --   1354.4486              1381.3127              1413.2975
 Red. masses --      1.4228                 1.4298                 1.2874
 Frc consts  --      1.5379                 1.6074                 1.5151
 IR Inten    --      0.6082                 1.8975                 4.0234

                     34                     35                     36
                      A                      A                      A
 Frequencies --   1418.9619              1433.3303              1495.3147
 Red. masses --      1.3719                 1.2313                 1.0519
 Frc consts  --      1.6275                 1.4904                 1.3858
 IR Inten    --     14.0065                 7.4699                 1.2355

                     37                     38                     39
                      A                      A                      A
 Frequencies --   1504.5750              1510.8196              1517.0484
 Red. masses --      1.0539                 1.0465                 1.0488
 Frc consts  --      1.4056                 1.4074                 1.4221
 IR Inten    --      0.2771                 3.5001                 1.5264

                     40                     41                     42
                      A                      A                      A
 Frequencies --   1522.4743              1530.6604              1648.2920
 Red. masses --      1.0580                 1.0441                 1.1026
 Frc consts  --      1.4449                 1.4413                 1.7649
 IR Inten    --      1.6366                10.7527                46.8853

                     43                     44                     45
                      A                      A                      A
 Frequencies --   1651.7996              3024.4516              3038.3352
 Red. masses --      1.1047                 1.0837                 1.0364
 Frc consts  --      1.7759                 5.8404                 5.6368
 IR Inten    --     19.8759                19.5207                27.7702

                     46                     47                     48
                      A                      A                      A
 Frequencies --   3040.9594              3046.4740              3099.6566
 Red. masses --      1.0370                 1.0362                 1.1017
 Frc consts  --      5.6499                 5.6663                 6.2364
 IR Inten    --      6.8383                28.7868                12.3854

                     49                     50                     51
                      A                      A                      A
 Frequencies --   3108.8769              3110.8830              3114.1198
 Red. masses --      1.1006                 1.1011                 1.1007
 Frc consts  --      6.2673                 6.2786                 6.2892
 IR Inten    --     72.0920                39.2407                22.1160

                     52                     53                     54
                      A                      A                      A
 Frequencies --   3121.9057              3129.0507              3488.6645
 Red. masses --      1.1010                 1.1028                 1.0499
 Frc consts  --      6.3226                 6.3616                 7.5286
 IR Inten    --     23.7932                29.6809                 0.7026

                     55                     56                     57
                      A                      A                      A
 Frequencies --   3489.7203              3580.5013              3590.5133
 Red. masses --      1.0500                 1.0918                 1.0912
 Frc consts  --      7.5337                 8.2465                 8.2887
 IR Inten    --      1.1841                 0.0037                 0.0651

 - Thermochemistry -
 -------------------
 Temperature   298.150 Kelvin.  Pressure   1.00000 Atm.
 Atom     1 has atomic number  6 and mass  12.00000

 Molecular mass:   102.11570 amu.
 Principal axes and moments of inertia in atomic units:
                           1         2         3
     Eigenvalues --   582.77656 825.32256 986.67240
           X            0.99984  -0.00831  -0.01571
           Y            0.00867   0.99970   0.02300
           Z            0.01552  -0.02313   0.99961
 This molecule is an asymmetric top.
 Rotational symmetry number  1.
 Warning -- assumption of classical behavior for rotation
           may cause significant error
 Rotational temperatures (Kelvin)      0.14862     0.10495     0.08778
 Rotational constants (GHZ):           3.09680     2.18671     1.82912
 Zero-point vibrational energy     512087.5 (Joules/Mol)
                                  122.39184 (Kcal/Mol)
 Warning -- explicit consideration of  14 degrees of freedom as
           vibrations may cause significant error
 Vibrational temperatures:    113.94   312.38   336.13   376.56   392.61
          (Kelvin)            411.51   420.13   465.89   535.21   558.97
                              637.60   676.33   706.17   784.37  1010.17
                             1221.75  1278.68  1314.51  1338.80  1345.90
                             1393.43  1412.05  1435.86  1538.63  1610.02
                             1638.16  1720.33  1817.98  1874.76  1892.12
                             1948.75  1987.40  2033.42  2041.57  2062.24
                             2151.42  2164.75  2173.73  2182.69  2190.50
                             2202.28  2371.52  2376.57  4351.51  4371.48
                             4375.26  4383.19  4459.71  4472.97  4475.86
                             4480.52  4491.72  4502.00  5019.40  5020.92
                             5151.54  5165.94

 Zero-point correction=                           0.195044 (Hartree/Particle)
 Thermal correction to Energy=                    0.204173
 Thermal correction to Enthalpy=                  0.205117
 Thermal correction to Gibbs Free Energy=         0.162687
 Sum of electronic and zero-point Energies=           -308.292156
 Sum of electronic and thermal Energies=              -308.283027
 Sum of electronic and thermal Enthalpies=            -308.282082
 Sum of electronic and thermal Free Energies=         -308.324512

                     E (Thermal)             CV                S
                      KCal/Mol        Cal/Mol-Kelvin    Cal/Mol-Kelvin
 Total                  128.120             35.180             89.301
 Electronic               0.000              0.000              0.000
 Translational            0.889              2.981             39.780
 Rotational               0.889              2.981             27.653
 Vibrational            126.343             29.218             21.867
 Vibration     1          0.600              1.963              3.911
 Vibration     2          0.646              1.815              1.983
 Vibration     3          0.654              1.789              1.851
 Vibration     4          0.669              1.743              1.650
 Vibration     5          0.676              1.723              1.578
 Vibration     6          0.684              1.700              1.497
 Vibration     7          0.687              1.689              1.462
 Vibration     8          0.708              1.628              1.291
 Vibration     9          0.744              1.530              1.072
 Vibration    10          0.757              1.495              1.006
 Vibration    11          0.803              1.376              0.817
 Vibration    12          0.827              1.316              0.737
 Vibration    13          0.847              1.270              0.681
 Vibration    14          0.900              1.150              0.554

 Optimization completed.
    -- Stationary point found.
 Normal termination of Gaussian 09 at Thu Sep  8 15:22:48 2022.
