 Gaussian 09, Revision E.01,
 Gaussian 09:  ES64L-G09RevE.01 30-Nov-2015

 -------------------------
 #P OPT Freq B3LYP/6-31G**
 -------------------------

 --------
 Frag_165
 --------
 Symbolic Z-matrix:
 Charge =  0 Multiplicity = 1

 SCF Done:  E(RB3LYP) =  -338.118277833     A.U. after   14 cycles
 SCF Done:  E(RB3LYP) =  -338.134999944     A.U. after   12 cycles
 SCF Done:  E(RB3LYP) =  -338.135913685     A.U. after   12 cycles
 SCF Done:  E(RB3LYP) =  -338.136282260     A.U. after   12 cycles
 SCF Done:  E(RB3LYP) =  -338.136622263     A.U. after   13 cycles
 SCF Done:  E(RB3LYP) =  -338.137374718     A.U. after   11 cycles
 SCF Done:  E(RB3LYP) =  -338.137750920     A.U. after   11 cycles
 SCF Done:  E(RB3LYP) =  -338.137836608     A.U. after   11 cycles
 SCF Done:  E(RB3LYP) =  -338.137841486     A.U. after    9 cycles
 SCF Done:  E(RB3LYP) =  -338.137843417     A.U. after    8 cycles
 Optimization completed.
    -- Stationary point found.
 Normal termination of Gaussian 09 at Sat Aug 21 01:37:17 2021.

 ----------------------------------------------------------------------
 #P Geom=AllCheck Guess=TCheck SCRF=Check GenChk RB3LYP/6-31G(d,p) Freq
 ----------------------------------------------------------------------

 Structure from the checkpoint file:  "/public/home/users/caep010/.cache/gau_scr/Gau-197446.chk"
 --------
 Frag_165
 --------
 Charge =  0 Multiplicity = 1

                         Standard orientation:
 ---------------------------------------------------------------------
 Center     Atomic      Atomic             Coordinates (Angstroms)
 Number     Number       Type             X           Y           Z
 ---------------------------------------------------------------------
      1          7           0       -2.365101   -0.128890    0.068361
      2          6           0       -1.090224   -0.019125   -0.047829
      3          7           0       -0.357670    1.167678   -0.169067
      4          6           0        1.066966    1.195065    0.212910
      5          7           0        1.764632    0.010812   -0.238128
      6          6           0        1.076938   -1.173121    0.242029
      7          7           0       -0.324010   -1.173726   -0.184157
      8          1           0       -2.812247    0.788636    0.071278
      9          1           0       -0.886105    1.982232    0.117145
     10          1           0        1.525247    2.083630   -0.231342
     11          1           0        1.191704    1.260991    1.305249
     12          1           0        1.762162   -0.003686   -1.256828
     13          1           0        1.562159   -2.067993   -0.158041
     14          1           0        1.182708   -1.195050    1.338925
     15          1           0       -0.872669   -1.996805    0.031889
 ---------------------------------------------------------------------

 SCF Done:  E(RB3LYP) =  -338.137843417     A.U. after    1 cycles

 The electronic state is 1-A.
 Alpha  occ. eigenvalues --  -14.34567 -14.33774 -14.33627 -14.27289 -10.27223
 Alpha  occ. eigenvalues --  -10.25432 -10.25081  -0.99212  -0.91139  -0.88906
 Alpha  occ. eigenvalues --   -0.82149  -0.69896  -0.65310  -0.58840  -0.52568
 Alpha  occ. eigenvalues --   -0.50394  -0.49092  -0.46543  -0.44930  -0.43253
 Alpha  occ. eigenvalues --   -0.41902  -0.37736  -0.35204  -0.26382  -0.25464
 Alpha  occ. eigenvalues --   -0.23987  -0.21224
 Alpha virt. eigenvalues --    0.05027   0.07657   0.09907   0.11578   0.13170
 Alpha virt. eigenvalues --    0.14563   0.15138   0.16089   0.17651   0.19422
 Alpha virt. eigenvalues --    0.20679   0.23787   0.25262   0.30407   0.36614

 Mulliken charges:
               1
     1  N   -0.614745
     2  C    0.609318
     3  N   -0.543945
     4  C    0.066048
     5  N   -0.468714
     6  C    0.063929
     7  N   -0.522287
     8  H    0.200865
     9  H    0.245720
    10  H    0.114208
    11  H    0.111127
    12  H    0.251939
    13  H    0.114810
    14  H    0.109294
    15  H    0.262433
 Sum of Mulliken charges =  -0.00000

 Dipole moment (field-independent basis, Debye):
    X=              2.0061    Y=              1.3539    Z=              0.6007  Tot=              2.4937
 Quadrupole moment (field-independent basis, Debye-Ang):
   XX=            -50.8332   YY=            -34.0471   ZZ=            -42.2322
   XY=             -4.4079   XZ=             -1.5673   YZ=              0.3269

  Exact polarizability:  70.935  -1.641  60.748  -1.030   0.139  38.937
 Approx polarizability: 103.102  -0.585  84.528  -3.533   0.237  57.461

                      1                      2                      3
                      A                      A                      A
 Frequencies --    141.6301               154.5510               366.8157
 Red. masses --      5.0262                 2.4121                 1.8145
 Frc consts  --      0.0594                 0.0339                 0.1438
 IR Inten    --      0.8921                 1.0633                34.5245

                      4                      5                      6
                      A                      A                      A
 Frequencies --    427.0160               464.9504               494.7187
 Red. masses --      3.0518                 3.4542                 1.6510
 Frc consts  --      0.3279                 0.4400                 0.2381
 IR Inten    --      8.3902                16.1117                79.5293

                      7                      8                      9
                      A                      A                      A
 Frequencies --    577.4059               622.5507               727.2531
 Red. masses --      1.3518                 2.7083                 5.2078
 Frc consts  --      0.2655                 0.6184                 1.6228
 IR Inten    --     76.3081                32.0274                16.8074

                     10                     11                     12
                      A                      A                      A
 Frequencies --    759.4064               766.1568               855.6412
 Red. masses --      1.4065                 1.8314                 1.9388
 Frc consts  --      0.4779                 0.6334                 0.8363
 IR Inten    --    125.0818                29.4509                65.0206

                     13                     14                     15
                      A                      A                      A
 Frequencies --    869.2207               982.9283              1001.2096
 Red. masses --      4.1475                 2.2900                 1.4768
 Frc consts  --      1.8463                 1.3036                 0.8722
 IR Inten    --     74.8659                12.2388                11.7429

                     16                     17                     18
                      A                      A                      A
 Frequencies --   1054.1404              1097.0696              1148.3899
 Red. masses --      2.4003                 2.7867                 2.6078
 Frc consts  --      1.5715                 1.9761                 2.0263
 IR Inten    --     30.1956               106.3078                64.2853

                     19                     20                     21
                      A                      A                      A
 Frequencies --   1161.8853              1191.1536              1249.4133
 Red. masses --      1.9425                 1.6171                 1.0822
 Frc consts  --      1.5451                 1.3519                 0.9953
 IR Inten    --     57.2178                15.9340                 2.2643

                     22                     23                     24
                      A                      A                      A
 Frequencies --   1320.3483              1348.6916              1392.4124
 Red. masses --      1.4261                 1.2848                 1.3985
 Frc consts  --      1.4648                 1.3769                 1.5975
 IR Inten    --     85.2414                 6.4119                70.0583

                     25                     26                     27
                      A                      A                      A
 Frequencies --   1430.1183              1468.0699              1490.5503
 Red. masses --      1.3719                 1.5078                 1.6919
 Frc consts  --      1.6531                 1.9146                 2.2147
 IR Inten    --      8.4645                38.1191                56.3512

                     28                     29                     30
                      A                      A                      A
 Frequencies --   1516.9084              1533.8093              1536.7576
 Red. masses --      1.1922                 1.4176                 1.1142
 Frc consts  --      1.6163                 1.9649                 1.5503
 IR Inten    --     25.8487                76.3771                 3.1483

                     31                     32                     33
                      A                      A                      A
 Frequencies --   1738.2803              2983.0074              2995.3368
 Red. masses --      5.2467                 1.0717                 1.0717
 Frc consts  --      9.3406                 5.6187                 5.6650
 IR Inten    --    366.8322                38.2417               125.4824

                     34                     35                     36
                      A                      A                      A
 Frequencies --   3091.2758              3095.7214              3492.8219
 Red. masses --      1.0946                 1.0942                 1.0753
 Frc consts  --      6.1626                 6.1780                 7.7290
 IR Inten    --     42.8859                30.7430                 4.4253

                     37                     38                     39
                      A                      A                      A
 Frequencies --   3505.9666              3595.7916              3603.9861
 Red. masses --      1.0735                 1.0757                 1.0758
 Frc consts  --      7.7742                 8.1950                 8.2325
 IR Inten    --      0.5478                 6.6164                16.5043

 - Thermochemistry -
 -------------------
 Temperature   298.150 Kelvin.  Pressure   1.00000 Atm.
 Atom     1 has atomic number  7 and mass  14.00307

 Molecular mass:   100.07490 amu.
 Principal axes and moments of inertia in atomic units:
                           1         2         3
     Eigenvalues --   359.82238 698.24876 999.44167
           X            0.99974  -0.02283   0.00013
           Y            0.02283   0.99974   0.00153
           Z           -0.00016  -0.00153   1.00000
 This molecule is an asymmetric top.
 Rotational symmetry number  1.
 Rotational temperatures (Kelvin)      0.24071     0.12404     0.08666
 Rotational constants (GHZ):           5.01564     2.58467     1.80575
 Zero-point vibrational energy     342451.1 (Joules/Mol)
                                   81.84779 (Kcal/Mol)
 Warning -- explicit consideration of   7 degrees of freedom as
           vibrations may cause significant error
 Vibrational temperatures:    203.77   222.36   527.77   614.38   668.96
          (Kelvin)            711.79   830.76   895.71  1046.35  1092.62
                             1102.33  1231.08  1250.61  1414.21  1440.52
                             1516.67  1578.44  1652.27  1671.69  1713.80
                             1797.62  1899.68  1940.46  2003.37  2057.62
                             2112.22  2144.57  2182.49  2206.81  2211.05
                             2500.99  4291.88  4309.62  4447.65  4454.05
                             5025.39  5044.30  5173.54  5185.33

 Zero-point correction=                           0.130433 (Hartree/Particle)
 Thermal correction to Energy=                    0.136654
 Thermal correction to Enthalpy=                  0.137598
 Thermal correction to Gibbs Free Energy=         0.100464
 Sum of electronic and zero-point Energies=           -338.007411
 Sum of electronic and thermal Energies=              -338.001189
 Sum of electronic and thermal Enthalpies=            -338.000245
 Sum of electronic and thermal Free Energies=         -338.037379

                     E (Thermal)             CV                S
                      KCal/Mol        Cal/Mol-Kelvin    Cal/Mol-Kelvin
 Total                   85.752             23.789             78.155
 Electronic               0.000              0.000              0.000
 Translational            0.889              2.981             39.720
 Rotational               0.889              2.981             27.021
 Vibrational             83.974             17.827             11.415
 Vibration     1          0.615              1.912              2.782
 Vibration     2          0.620              1.898              2.615
 Vibration     3          0.740              1.541              1.093
 Vibration     4          0.789              1.411              0.868
 Vibration     5          0.822              1.328              0.752
 Vibration     6          0.850              1.262              0.671
 Vibration     7          0.934              1.080              0.490

 Normal termination of Gaussian 09 at Sat Aug 21 01:37:31 2021.
