 Gaussian 09, Revision E.01,
 Gaussian 09:  ES64L-G09RevE.01 30-Nov-2015

 ----------------------------
 #P OPT Freq B3LYP/6-31G(d,p)
 ----------------------------

 --------
 Frag_923
 --------
 Symbolic Z-matrix:
 Charge =  0 Multiplicity = 1

 SCF Done:  E(RB3LYP) =  -343.115954078     A.U. after   15 cycles
 SCF Done:  E(RB3LYP) =  -343.116039464     A.U. after    9 cycles
 SCF Done:  E(RB3LYP) =  -343.116043952     A.U. after    9 cycles
 SCF Done:  E(RB3LYP) =  -343.116041941     A.U. after    9 cycles
 SCF Done:  E(RB3LYP) =  -343.116044492     A.U. after    9 cycles
 Optimization completed.
    -- Stationary point found.
 Normal termination of Gaussian 09 at Thu Sep  8 15:11:24 2022.

 ----------------------------------------------------------------------
 #P Geom=AllCheck Guess=TCheck SCRF=Check GenChk RB3LYP/6-31G(d,p) Freq
 ----------------------------------------------------------------------

 Structure from the checkpoint file:  "B3LYP6-31Gdp.Frag_923.chk"
 --------
 Frag_923
 --------
 Charge =  0 Multiplicity = 1

                         Standard orientation:
 ---------------------------------------------------------------------
 Center     Atomic      Atomic             Coordinates (Angstroms)
 Number     Number       Type             X           Y           Z
 ---------------------------------------------------------------------
      1          6           0       -0.989845   -0.740586   -1.267069
      2          6           0       -0.570090    0.017760    0.000004
      3          6           0       -0.989637   -0.740802    1.267012
      4          6           0       -1.107766    1.448041    0.000171
      5          7           0        0.965285    0.018922   -0.000110
      6          7           0        1.549192    1.145202   -0.000032
      7          8           0        1.519676   -1.103333   -0.000015
      8          1           0       -2.079600   -0.829426   -1.290375
      9          1           0       -0.550609   -1.739154   -1.279034
     10          1           0       -0.671546   -0.204105   -2.166140
     11          1           0       -0.550371   -1.739362    1.278745
     12          1           0       -0.671221   -0.204461    2.166126
     13          1           0       -2.079385   -0.829680    1.290464
     14          1           0       -0.781243    2.000016   -0.883121
     15          1           0       -0.781116    1.999860    0.883513
     16          1           0       -2.201672    1.404028    0.000246
     17          1           0        2.552040    0.913602   -0.000013
 ---------------------------------------------------------------------

 SCF Done:  E(RB3LYP) =  -343.116044492     A.U. after    1 cycles

 The electronic state is 1-A.
 Alpha  occ. eigenvalues --  -19.14848 -14.51521 -14.35792 -10.25259 -10.18867
 Alpha  occ. eigenvalues --  -10.18867 -10.18512  -1.15287  -0.94746  -0.84211
 Alpha  occ. eigenvalues --   -0.70347  -0.69898  -0.68701  -0.55238  -0.50864
 Alpha  occ. eigenvalues --   -0.49978  -0.49492  -0.44759  -0.43706  -0.40294
 Alpha  occ. eigenvalues --   -0.39824  -0.39319  -0.37613  -0.34859  -0.34810
 Alpha  occ. eigenvalues --   -0.31774  -0.26251  -0.26235
 Alpha virt. eigenvalues --   -0.03667   0.08082   0.09702   0.12321   0.14503
 Alpha virt. eigenvalues --    0.14524   0.15427   0.16172   0.17902   0.18883
 Alpha virt. eigenvalues --    0.19644   0.20466   0.22007   0.22820   0.23918

 Mulliken charges:
               1
     1  C   -0.303169
     2  C    0.113098
     3  C   -0.303164
     4  C   -0.294166
     5  N    0.224979
     6  N   -0.324188
     7  O   -0.448120
     8  H    0.111392
     9  H    0.139792
    10  H    0.115710
    11  H    0.139801
    12  H    0.115708
    13  H    0.111386
    14  H    0.125171
    15  H    0.125170
    16  H    0.102025
    17  H    0.248573
 Sum of Mulliken charges =  -0.00000

 Dipole moment (field-independent basis, Debye):
    X=             -1.9035    Y=              0.4928    Z=             -0.0000  Tot=              1.9663
 Quadrupole moment (field-independent basis, Debye-Ang):
   XX=            -41.5173   YY=            -47.3225   ZZ=            -42.1480
   XY=              2.4492   XZ=              0.0001   YZ=              0.0000

  Exact polarizability:  65.989   3.096  65.767   0.000  -0.000  50.694
 Approx polarizability:  89.308   3.619 120.218   0.000   0.000  68.673

                      1                      2                      3
                      A                      A                      A
 Frequencies --     58.6961               204.5506               262.0585
 Red. masses --      5.7952                 1.0724                 1.0303
 Frc consts  --      0.0118                 0.0264                 0.0417
 IR Inten    --      0.6751                 0.0010                 0.1265

                      4                      5                      6
                      A                      A                      A
 Frequencies --    272.0208               294.2178               297.7959
 Red. masses --      1.3326                 1.6099                 2.9027
 Frc consts  --      0.0581                 0.0821                 0.1517
 IR Inten    --      0.0527                 0.8792                 0.8486

                      7                      8                      9
                      A                      A                      A
 Frequencies --    360.7158               383.0323               383.5795
 Red. masses --      2.9867                 2.2418                 2.9396
 Frc consts  --      0.2290                 0.1938                 0.2548
 IR Inten    --      0.9218                 0.0098                 6.0688

                     10                     11                     12
                      A                      A                      A
 Frequencies --    525.0392               571.1929               700.4158
 Red. masses --      4.1974                 3.1547                 3.5083
 Frc consts  --      0.6817                 0.6064                 1.0141
 IR Inten    --      6.8789                18.7451                 6.3976

                     13                     14                     15
                      A                      A                      A
 Frequencies --    765.6757               834.3808               932.8052
 Red. masses --      3.6126                 2.7044                 1.4423
 Frc consts  --      1.2478                 1.1093                 0.7394
 IR Inten    --     26.2640                 7.3998                59.6973

                     16                     17                     18
                      A                      A                      A
 Frequencies --    944.1781               945.1212               978.3134
 Red. masses --      1.5417                 1.5751                 1.2023
 Frc consts  --      0.8098                 0.8290                 0.6780
 IR Inten    --      0.4967                 8.2256                 0.2338

                     19                     20                     21
                      A                      A                      A
 Frequencies --   1058.3318              1059.4938              1226.0210
 Red. masses --      1.4082                 1.4188                 2.1110
 Frc consts  --      0.9293                 0.9384                 1.8696
 IR Inten    --      0.6030                 1.2132                23.5710

                     22                     23                     24
                      A                      A                      A
 Frequencies --   1267.7172              1268.2793              1288.7104
 Red. masses --      2.7929                 3.4240                 3.1636
 Frc consts  --      2.6445                 3.2450                 3.0956
 IR Inten    --     11.7520                29.1885                27.0181

                     25                     26                     27
                      A                      A                      A
 Frequencies --   1406.7050              1412.7005              1438.3236
 Red. masses --      1.2459                 1.2476                 1.2307
 Frc consts  --      1.4526                 1.4670                 1.5001
 IR Inten    --      9.4482                26.7555                 7.6415

                     28                     29                     30
                      A                      A                      A
 Frequencies --   1483.8759              1496.1485              1505.3462
 Red. masses --      1.0475                 1.0558                 1.0474
 Frc consts  --      1.3589                 1.3924                 1.3984
 IR Inten    --      0.0342                 0.4298                 0.5758

                     31                     32                     33
                      A                      A                      A
 Frequencies --   1510.0534              1511.8548              1519.0791
 Red. masses --      1.0497                 1.0709                 1.5648
 Frc consts  --      1.4103                 1.4421                 2.1274
 IR Inten    --      3.5337                10.9506                24.5418

                     34                     35                     36
                      A                      A                      A
 Frequencies --   1540.2543              1602.6064              3057.9091
 Red. masses --      1.1547                11.3403                 1.0372
 Frc consts  --      1.6140                17.1605                 5.7144
 IR Inten    --     13.4626               195.5090                 4.6602

                     37                     38                     39
                      A                      A                      A
 Frequencies --   3057.9157              3065.0306              3129.4505
 Red. masses --      1.0356                 1.0381                 1.1031
 Frc consts  --      5.7056                 5.7459                 6.3651
 IR Inten    --     21.0269                16.6244                 9.8584

                     40                     41                     42
                      A                      A                      A
 Frequencies --   3130.2018              3138.0269              3157.5745
 Red. masses --      1.1015                 1.0997                 1.1036
 Frc consts  --      6.3590                 6.3802                 6.4827
 IR Inten    --      5.1708                35.9301                13.2669

                     43                     44                     45
                      A                      A                      A
 Frequencies --   3158.8266              3162.8945              3399.3114
 Red. masses --      1.1027                 1.1020                 1.0712
 Frc consts  --      6.4829                 6.4952                 7.2928
 IR Inten    --      3.4457                13.6099                 0.9124

 - Thermochemistry -
 -------------------
 Temperature   298.150 Kelvin.  Pressure   1.00000 Atm.
 Atom     1 has atomic number  6 and mass  12.00000

 Molecular mass:   102.07931 amu.
 Principal axes and moments of inertia in atomic units:
                           1         2         3
     Eigenvalues --   538.47267 729.64297 866.63546
           X            0.99951   0.03121   0.00001
           Y           -0.03121   0.99951   0.00000
           Z           -0.00001  -0.00000   1.00000
 This molecule is an asymmetric top.
 Rotational symmetry number  1.
 Warning -- assumption of classical behavior for rotation
           may cause significant error
 Rotational temperatures (Kelvin)      0.16085     0.11871     0.09994
 Rotational constants (GHZ):           3.35159     2.47346     2.08247
 Zero-point vibrational energy     387389.3 (Joules/Mol)
                                   92.58826 (Kcal/Mol)
 Warning -- explicit consideration of  11 degrees of freedom as
           vibrations may cause significant error
 Vibrational temperatures:     84.45   294.30   377.04   391.38   423.31
          (Kelvin)            428.46   518.99   551.10   551.88   755.41
                              821.82  1007.74  1101.64  1200.49  1342.10
                             1358.46  1359.82  1407.57  1522.70  1524.37
                             1763.97  1823.96  1824.77  1854.16  2023.93
                             2032.56  2069.42  2134.96  2152.62  2165.85
                             2172.63  2175.22  2185.61  2216.08  2305.79
                             4399.64  4399.65  4409.89  4502.58  4503.66
                             4514.92  4543.04  4544.84  4550.69  4890.84

 Zero-point correction=                           0.147549 (Hartree/Particle)
 Thermal correction to Energy=                    0.155530
 Thermal correction to Enthalpy=                  0.156474
 Thermal correction to Gibbs Free Energy=         0.115769
 Sum of electronic and zero-point Energies=           -342.968496
 Sum of electronic and thermal Energies=              -342.960515
 Sum of electronic and thermal Enthalpies=            -342.959571
 Sum of electronic and thermal Free Energies=         -343.000276

                     E (Thermal)             CV                S
                      KCal/Mol        Cal/Mol-Kelvin    Cal/Mol-Kelvin
 Total                   97.596             29.491             85.671
 Electronic               0.000              0.000              0.000
 Translational            0.889              2.981             39.779
 Rotational               0.889              2.981             27.323
 Vibrational             95.819             23.529             18.568
 Vibration     1          0.596              1.974              4.501
 Vibration     2          0.640              1.833              2.092
 Vibration     3          0.669              1.742              1.648
 Vibration     4          0.675              1.725              1.583
 Vibration     5          0.689              1.685              1.450
 Vibration     6          0.691              1.678              1.429
 Vibration     7          0.735              1.553              1.119
 Vibration     8          0.752              1.506              1.027
 Vibration     9          0.753              1.505              1.025
 Vibration    10          0.880              1.195              0.598
 Vibration    11          0.927              1.094              0.502

 Optimization completed.
    -- Stationary point found.
 Normal termination of Gaussian 09 at Thu Sep  8 15:11:41 2022.
