 Gaussian 09, Revision E.01,
 Gaussian 09:  ES64L-G09RevE.01 30-Nov-2015

 --------------------------------
 #P OPT=calcfc Freq B3LYP/6-31G**
 --------------------------------

 --------
 Frag_375
 --------
 Symbolic Z-matrix:
 Charge =  0 Multiplicity = 1

 SCF Done:  E(RB3LYP) =  -283.921736759     A.U. after   13 cycles
 SCF Done:  E(RB3LYP) =  -283.936654236     A.U. after   13 cycles
 SCF Done:  E(RB3LYP) =  -283.935857209     A.U. after   13 cycles
 SCF Done:  E(RB3LYP) =  -283.937297989     A.U. after   10 cycles
 SCF Done:  E(RB3LYP) =  -283.937983363     A.U. after   12 cycles
 SCF Done:  E(RB3LYP) =  -283.940128334     A.U. after   13 cycles
 SCF Done:  E(RB3LYP) =  -283.887564607     A.U. after   13 cycles
 SCF Done:  E(RB3LYP) =  -283.940134237     A.U. after    8 cycles
 SCF Done:  E(RB3LYP) =  -283.940595891     A.U. after   12 cycles
 SCF Done:  E(RB3LYP) =  -283.940612164     A.U. after   12 cycles
 SCF Done:  E(RB3LYP) =  -283.940935613     A.U. after   11 cycles
 SCF Done:  E(RB3LYP) =  -283.940975362     A.U. after    9 cycles
 SCF Done:  E(RB3LYP) =  -283.940971239     A.U. after   10 cycles
 SCF Done:  E(RB3LYP) =  -283.940995965     A.U. after   11 cycles
 SCF Done:  E(RB3LYP) =  -283.940997764     A.U. after    7 cycles
 SCF Done:  E(RB3LYP) =  -283.940997973     A.U. after    8 cycles
 Optimization completed.
    -- Stationary point found.
 Normal termination of Gaussian 09 at Fri Sep 10 17:45:02 2021.

 ----------------------------------------------------------------------
 #P Geom=AllCheck Guess=TCheck SCRF=Check GenChk RB3LYP/6-31G(d,p) Freq
 ----------------------------------------------------------------------

 Structure from the checkpoint file:  "/public/home/users/caep010/.cache/gau_scr/Gau-137177.chk"
 --------
 Frag_375
 --------
 Charge =  0 Multiplicity = 1

                         Standard orientation:
 ---------------------------------------------------------------------
 Center     Atomic      Atomic             Coordinates (Angstroms)
 Number     Number       Type             X           Y           Z
 ---------------------------------------------------------------------
      1          6           0       -1.519227    1.128742   -0.038591
      2          6           0       -0.744466    0.022303    0.050162
      3          7           0       -1.287036   -1.278557    0.063967
      4          7           0        0.644073    0.062494    0.225651
      5          6           0        1.463200   -1.110994   -0.036482
      6          7           0        1.304938    1.271680   -0.087691
      7          1           0       -1.130164    2.125190    0.111709
      8          1           0       -2.589200    1.028923   -0.173572
      9          1           0       -2.294096   -1.254917   -0.035426
     10          1           0       -0.890062   -1.896856   -0.635716
     11          1           0        1.062634   -1.967790    0.509479
     12          1           0        1.537339   -1.368363   -1.107785
     13          1           0        2.469275   -0.900675    0.326192
     14          1           0        1.125665    1.930168    0.668517
     15          1           0        0.877752    1.674690   -0.927426
 ---------------------------------------------------------------------

 SCF Done:  E(RB3LYP) =  -283.940997973     A.U. after    1 cycles

 The electronic state is 1-A.
 Alpha  occ. eigenvalues --  -14.36422 -14.34475 -14.33577 -10.24267 -10.20672
 Alpha  occ. eigenvalues --  -10.14331  -0.98910  -0.90285  -0.79160  -0.73078
 Alpha  occ. eigenvalues --   -0.65306  -0.56803  -0.52099  -0.49783  -0.48024
 Alpha  occ. eigenvalues --   -0.46171  -0.41682  -0.40774  -0.39584  -0.37260
 Alpha  occ. eigenvalues --   -0.33142  -0.26224  -0.24624  -0.18173
 Alpha virt. eigenvalues --    0.06269   0.07412   0.09573   0.11755   0.15221
 Alpha virt. eigenvalues --    0.15718   0.16133   0.17501   0.18517   0.19338
 Alpha virt. eigenvalues --    0.20223   0.24046   0.30186   0.36463   0.39810

 Mulliken charges:
               1
     1  C   -0.357213
     2  C    0.492727
     3  N   -0.646687
     4  N   -0.367458
     5  C   -0.163787
     6  N   -0.451852
     7  H    0.062929
     8  H    0.069183
     9  H    0.257884
    10  H    0.254819
    11  H    0.128853
    12  H    0.088272
    13  H    0.131247
    14  H    0.263187
    15  H    0.237895
 Sum of Mulliken charges =  -0.00000

 Dipole moment (field-independent basis, Debye):
    X=             -0.4991    Y=             -0.8136    Z=             -1.2272  Tot=              1.5547
 Quadrupole moment (field-independent basis, Debye-Ang):
   XX=            -37.4648   YY=            -33.1076   ZZ=            -38.9681
   XY=              1.1733   XZ=              1.7676   YZ=              2.7670

  Exact polarizability:  63.840  -5.998  64.928   0.103   1.102  34.295
 Approx polarizability:  86.172 -11.470  94.044   1.270  -0.249  49.746

                      1                      2                      3
                      A                      A                      A
 Frequencies --     93.1142               191.1964               217.2683
 Red. masses --      3.2519                 1.2738                 2.2882
 Frc consts  --      0.0166                 0.0274                 0.0636
 IR Inten    --      0.4164                 1.7881                 9.1048

                      4                      5                      6
                      A                      A                      A
 Frequencies --    309.8809               353.6381               360.1697
 Red. masses --      1.9450                 1.3127                 1.0793
 Frc consts  --      0.1100                 0.0967                 0.0825
 IR Inten    --     21.8311                37.4765                52.7272

                      7                      8                      9
                      A                      A                      A
 Frequencies --    434.2447               502.5336               533.8418
 Red. masses --      2.4682                 2.4369                 3.1286
 Frc consts  --      0.2742                 0.3626                 0.5253
 IR Inten    --      9.0834                 1.3342                 5.5175

                     10                     11                     12
                      A                      A                      A
 Frequencies --    589.5284               660.9430               699.8099
 Red. masses --      1.5332                 1.3011                 1.6420
 Frc consts  --      0.3140                 0.3349                 0.4738
 IR Inten    --    101.6177                 8.7963                53.4728

                     13                     14                     15
                      A                      A                      A
 Frequencies --    764.9954               801.6159               951.2218
 Red. masses --      3.4115                 1.6906                 1.6244
 Frc consts  --      1.1763                 0.6401                 0.8660
 IR Inten    --     22.5020               149.9358                57.7557

                     16                     17                     18
                      A                      A                      A
 Frequencies --    976.9656              1054.2174              1133.8122
 Red. masses --      1.8545                 1.7344                 1.3908
 Frc consts  --      1.0429                 1.1357                 1.0534
 IR Inten    --     21.1438                58.6274                36.4771

                     19                     20                     21
                      A                      A                      A
 Frequencies --   1151.8866              1237.9320              1289.5617
 Red. masses --      1.2795                 2.0205                 3.1501
 Frc consts  --      1.0003                 1.8243                 3.0865
 IR Inten    --      6.2366                14.6093                 7.4676

                     22                     23                     24
                      A                      A                      A
 Frequencies --   1336.8046              1402.6781              1451.8658
 Red. masses --      1.2587                 2.4962                 1.1954
 Frc consts  --      1.3253                 2.8936                 1.4846
 IR Inten    --      8.1212                68.3034                 3.0964

                     25                     26                     27
                      A                      A                      A
 Frequencies --   1472.5531              1511.2317              1527.4356
 Red. masses --      1.3936                 1.0620                 1.0806
 Frc consts  --      1.7805                 1.4290                 1.4853
 IR Inten    --     33.2031                23.4595                16.0254

                     28                     29                     30
                      A                      A                      A
 Frequencies --   1648.1096              1698.1827              1705.3988
 Red. masses --      1.2833                 1.1456                 2.7554
 Frc consts  --      2.0537                 1.9464                 4.7215
 IR Inten    --     95.0695                 4.3919               189.5455

                     31                     32                     33
                      A                      A                      A
 Frequencies --   2959.9126              3108.8567              3164.1356
 Red. masses --      1.0610                 1.0736                 1.1034
 Frc consts  --      5.4766                 6.1133                 6.5086
 IR Inten    --    102.2411                22.7667                 9.6153

                     34                     35                     36
                      A                      A                      A
 Frequencies --   3193.0845              3281.4814              3394.6722
 Red. masses --      1.0608                 1.1144                 1.0539
 Frc consts  --      6.3722                 7.0705                 7.1554
 IR Inten    --      0.7838                12.3453                13.9053

                     37                     38                     39
                      A                      A                      A
 Frequencies --   3511.1942              3533.4270              3640.0790
 Red. masses --      1.0871                 1.0504                 1.0937
 Frc consts  --      7.8962                 7.7267                 8.5382
 IR Inten    --      0.2223                 2.5500                 5.4325

 - Thermochemistry -
 -------------------
 Temperature   298.150 Kelvin.  Pressure   1.00000 Atm.
 Atom     1 has atomic number  6 and mass  12.00000

 Molecular mass:    87.07965 amu.
 Principal axes and moments of inertia in atomic units:
                           1         2         3
     Eigenvalues --   370.45541 511.75551 851.64498
           X            0.99655  -0.08286   0.00374
           Y            0.08281   0.99648   0.01313
           Z           -0.00482  -0.01278   0.99991
 This molecule is an asymmetric top.
 Rotational symmetry number  1.
 Rotational temperatures (Kelvin)      0.23380     0.16925     0.10170
 Rotational constants (GHZ):           4.87168     3.52657     2.11912
 Zero-point vibrational energy     346016.7 (Joules/Mol)
                                   82.69998 (Kcal/Mol)
 Warning -- explicit consideration of  10 degrees of freedom as
           vibrations may cause significant error
 Vibrational temperatures:    133.97   275.09   312.60   445.85   508.81
          (Kelvin)            518.20   624.78   723.03   768.08   848.20
                              950.95  1006.87  1100.66  1153.35  1368.59
                             1405.63  1516.78  1631.30  1657.31  1781.11
                             1855.39  1923.36  2018.14  2088.91  2118.67
                             2174.32  2197.64  2371.26  2443.30  2453.69
                             4258.65  4472.95  4552.48  4594.13  4721.31
                             4884.17  5051.82  5083.81  5237.26

 Zero-point correction=                           0.131791 (Hartree/Particle)
 Thermal correction to Energy=                    0.139098
 Thermal correction to Enthalpy=                  0.140042
 Thermal correction to Gibbs Free Energy=         0.101305
 Sum of electronic and zero-point Energies=           -283.809207
 Sum of electronic and thermal Energies=              -283.801900
 Sum of electronic and thermal Enthalpies=            -283.800956
 Sum of electronic and thermal Free Energies=         -283.839693

                     E (Thermal)             CV                S
                      KCal/Mol        Cal/Mol-Kelvin    Cal/Mol-Kelvin
 Total                   87.285             26.971             81.530
 Electronic               0.000              0.000              0.000
 Translational            0.889              2.981             39.306
 Rotational               0.889              2.981             26.582
 Vibrational             85.508             21.009             15.642
 Vibration     1          0.602              1.954              3.594
 Vibration     2          0.634              1.852              2.216
 Vibration     3          0.646              1.815              1.982
 Vibration     4          0.699              1.655              1.363
 Vibration     5          0.730              1.568              1.150
 Vibration     6          0.735              1.554              1.121
 Vibration     7          0.795              1.396              0.845
 Vibration     8          0.858              1.244              0.652
 Vibration     9          0.889              1.175              0.579
 Vibration    10          0.947              1.054              0.468

 Optimization completed.
    -- Stationary point found.
 Normal termination of Gaussian 09 at Fri Sep 10 17:45:14 2021.
