 Gaussian 09, Revision E.01,
 Gaussian 09:  ES64L-G09RevE.01 30-Nov-2015

 ----------------------------
 #P OPT Freq B3LYP/6-31G(d,p)
 ----------------------------

 --------
 Frag_814
 --------
 Symbolic Z-matrix:
 Charge =  0 Multiplicity = 1

 SCF Done:  E(RB3LYP) =  -284.399746983     A.U. after   13 cycles
 SCF Done:  E(RB3LYP) =  -284.399837468     A.U. after   10 cycles
 SCF Done:  E(RB3LYP) =  -284.399844312     A.U. after    8 cycles
 SCF Done:  E(RB3LYP) =  -284.399845247     A.U. after    8 cycles
 Optimization completed.
    -- Stationary point found.
 Normal termination of Gaussian 09 at Thu Sep  8 15:24:08 2022.

 ----------------------------------------------------------------------
 #P Geom=AllCheck Guess=TCheck SCRF=Check GenChk RB3LYP/6-31G(d,p) Freq
 ----------------------------------------------------------------------

 Structure from the checkpoint file:  "B3LYP6-31Gdp.Frag_814.chk"
 --------
 Frag_814
 --------
 Charge =  0 Multiplicity = 1

                         Standard orientation:
 ---------------------------------------------------------------------
 Center     Atomic      Atomic             Coordinates (Angstroms)
 Number     Number       Type             X           Y           Z
 ---------------------------------------------------------------------
      1          7           0       -1.862454    0.057320    0.000083
      2          6           0       -0.673479   -0.757175   -0.000044
      3          6           0        0.484099   -0.073100    0.000003
      4          8           0        0.522565    1.278546   -0.000009
      5          8           0        1.705490   -0.645401   -0.000084
      6          1           0       -2.443079   -0.117534   -0.817288
      7          1           0       -2.443329   -0.118170    0.817136
      8          1           0       -0.690987   -1.841772   -0.000060
      9          1           0       -0.429816    1.522070   -0.000151
     10          1           0        2.356237    0.070651    0.000767
 ---------------------------------------------------------------------

 SCF Done:  E(RB3LYP) =  -284.399845247     A.U. after    1 cycles

 The electronic state is 1-A.
 Alpha  occ. eigenvalues --  -19.17879 -19.17021 -14.33160 -10.28554 -10.17702
 Alpha  occ. eigenvalues --   -1.09572  -1.02309  -0.88232  -0.71374  -0.59308
 Alpha  occ. eigenvalues --   -0.55309  -0.48780  -0.48430  -0.43705  -0.42150
 Alpha  occ. eigenvalues --   -0.38790  -0.37673  -0.32221  -0.26199  -0.19697
 Alpha virt. eigenvalues --    0.07339   0.07811   0.08437   0.14568   0.15778
 Alpha virt. eigenvalues --    0.16575   0.22536   0.26921   0.37410   0.40948
 Alpha virt. eigenvalues --    0.55696   0.57731   0.58675   0.63361   0.64211

 Mulliken charges:
               1
     1  N   -0.660060
     2  C   -0.091932
     3  C    0.577882
     4  O   -0.549556
     5  O   -0.528410
     6  H    0.254854
     7  H    0.254861
     8  H    0.075521
     9  H    0.336759
    10  H    0.330080
 Sum of Mulliken charges =  -0.00000

 Dipole moment (field-independent basis, Debye):
    X=             -1.2398    Y=              0.3640    Z=              0.0008  Tot=              1.2921
 Quadrupole moment (field-independent basis, Debye-Ang):
   XX=            -21.0793   YY=            -30.8488   ZZ=            -29.2694
   XY=              2.2464   XZ=              0.0048   YZ=             -0.0013

  Exact polarizability:  49.384   4.085  35.113   0.003   0.000  20.308
 Approx polarizability:  70.401   9.396  51.736   0.004   0.001  28.434

                      1                      2                      3
                      A                      A                      A
 Frequencies --    216.5616               278.4471               291.4973
 Red. masses --      2.2699                 3.7740                 1.1198
 Frc consts  --      0.0627                 0.1724                 0.0561
 IR Inten    --     18.0107                 6.1119               151.7407

                      4                      5                      6
                      A                      A                      A
 Frequencies --    355.0030               480.8194               635.2867
 Red. masses --      1.3147                 4.5354                 5.0867
 Frc consts  --      0.0976                 0.6178                 1.2096
 IR Inten    --      0.6632                14.3399                20.4075

                      7                      8                      9
                      A                      A                      A
 Frequencies --    647.4274               697.3950               776.5889
 Red. masses --      1.9893                 1.8998                 1.1318
 Frc consts  --      0.4913                 0.5444                 0.4022
 IR Inten    --     14.3060                72.0836                56.5521

                     10                     11                     12
                      A                      A                      A
 Frequencies --    878.4911               966.5441              1104.3139
 Red. masses --      1.3756                 4.4793                 3.0340
 Frc consts  --      0.6255                 2.4655                 2.1799
 IR Inten    --     90.5825                54.4085                54.1714

                     13                     14                     15
                      A                      A                      A
 Frequencies --   1201.2365              1217.1046              1249.5691
 Red. masses --      1.1889                 1.2325                 1.6095
 Frc consts  --      1.0108                 1.0757                 1.4807
 IR Inten    --      1.2908               150.5491               123.4139

                     16                     17                     18
                      A                      A                      A
 Frequencies --   1394.1265              1452.7794              1657.6964
 Red. masses --      1.5589                 3.2596                 1.1361
 Frc consts  --      1.7851                 4.0534                 1.8395
 IR Inten    --    106.4838               173.0666                 1.4801

                     19                     20                     21
                      A                      A                      A
 Frequencies --   1809.9282              3198.2849              3478.4373
 Red. masses --      4.6134                 1.0912                 1.0479
 Frc consts  --      8.9042                 6.5762                 7.4705
 IR Inten    --    246.5548                18.9991                 1.3253

                     22                     23                     24
                      A                      A                      A
 Frequencies --   3543.0052              3550.3288              3818.4853
 Red. masses --      1.0943                 1.0628                 1.0652
 Frc consts  --      8.0935                 7.8932                 9.1511
 IR Inten    --      0.8234               123.9673                91.7084

 - Thermochemistry -
 -------------------
 Temperature   298.150 Kelvin.  Pressure   1.00000 Atm.
 Atom     1 has atomic number  7 and mass  14.00307

 Molecular mass:    75.03203 amu.
 Principal axes and moments of inertia in atomic units:
                           1         2         3
     Eigenvalues --   167.50151 454.27900 612.16632
           X            0.99985   0.01708   0.00002
           Y           -0.01708   0.99985  -0.00001
           Z           -0.00002   0.00001   1.00000
 This molecule is an asymmetric top.
 Rotational symmetry number  1.
 Rotational temperatures (Kelvin)      0.51709     0.19066     0.14149
 Rotational constants (GHZ):          10.77448     3.97276     2.94812
 Zero-point vibrational energy     208744.5 (Joules/Mol)
                                   49.89114 (Kcal/Mol)
 Warning -- explicit consideration of   5 degrees of freedom as
           vibrations may cause significant error
 Vibrational temperatures:    311.58   400.62   419.40   510.77   691.79
          (Kelvin)            914.03   931.50  1003.39  1117.34  1263.95
                             1390.64  1588.86  1728.31  1751.14  1797.85
                             2005.83  2090.22  2385.05  2604.08  4601.61
                             5004.69  5097.59  5108.12  5493.94

 Zero-point correction=                           0.079507 (Hartree/Particle)
 Thermal correction to Energy=                    0.085012
 Thermal correction to Enthalpy=                  0.085957
 Thermal correction to Gibbs Free Energy=         0.051350
 Sum of electronic and zero-point Energies=           -284.320339
 Sum of electronic and thermal Energies=              -284.314833
 Sum of electronic and thermal Enthalpies=            -284.313889
 Sum of electronic and thermal Free Energies=         -284.348495

                     E (Thermal)             CV                S
                      KCal/Mol        Cal/Mol-Kelvin    Cal/Mol-Kelvin
 Total                   53.346             19.511             72.836
 Electronic               0.000              0.000              0.000
 Translational            0.889              2.981             38.862
 Rotational               0.889              2.981             25.347
 Vibrational             51.569             13.550              8.628
 Vibration     1          0.645              1.816              1.988
 Vibration     2          0.679              1.713              1.543
 Vibration     3          0.687              1.690              1.465
 Vibration     4          0.731              1.565              1.144
 Vibration     5          0.837              1.293              0.708

 Optimization completed.
    -- Stationary point found.
 Normal termination of Gaussian 09 at Thu Sep  8 15:24:15 2022.
