 Gaussian 09, Revision E.01,
 Gaussian 09:  ES64L-G09RevE.01 30-Nov-2015

 ----------------------------
 #P OPT Freq B3LYP/6-31G(d,p)
 ----------------------------

 --------
 Frag_511
 --------
 Symbolic Z-matrix:
 Charge =  0 Multiplicity = 1

 SCF Done:  E(RB3LYP) =  -286.599293853     A.U. after   14 cycles
 SCF Done:  E(RB3LYP) =  -286.599377003     A.U. after   11 cycles
 SCF Done:  E(RB3LYP) =  -286.599387096     A.U. after    9 cycles
 SCF Done:  E(RB3LYP) =  -286.599390097     A.U. after    9 cycles
 SCF Done:  E(RB3LYP) =  -286.599390541     A.U. after    8 cycles
 Optimization completed.
    -- Stationary point found.
 Normal termination of Gaussian 09 at Thu Sep  8 15:03:50 2022.

 ----------------------------------------------------------------------
 #P Geom=AllCheck Guess=TCheck SCRF=Check GenChk RB3LYP/6-31G(d,p) Freq
 ----------------------------------------------------------------------

 Structure from the checkpoint file:  "B3LYP6-31Gdp.Frag_511.chk"
 --------
 Frag_511
 --------
 Charge =  0 Multiplicity = 1

                         Standard orientation:
 ---------------------------------------------------------------------
 Center     Atomic      Atomic             Coordinates (Angstroms)
 Number     Number       Type             X           Y           Z
 ---------------------------------------------------------------------
      1          6           0        1.132221    1.412910   -0.205945
      2          6           0        0.700769    0.158337   -0.011856
      3          6           0        1.632864   -1.007551    0.178281
      4          6           0       -0.756014   -0.164597   -0.018037
      5          7           0       -1.154204   -1.352651   -0.238580
      6          8           0       -1.634300    0.863725    0.197086
      7          1           0        0.460451    2.241269   -0.413809
      8          1           0        2.191271    1.648982   -0.209224
      9          1           0        2.676730   -0.688878    0.128693
     10          1           0        1.446230   -1.763296   -0.589595
     11          1           0        1.455476   -1.497677    1.141230
     12          1           0       -2.176567   -1.387661   -0.204171
     13          1           0       -1.158795    1.611422    0.585588
 ---------------------------------------------------------------------

 SCF Done:  E(RB3LYP) =  -286.599390541     A.U. after    1 cycles

 The electronic state is 1-A.
 Alpha  occ. eigenvalues --  -19.18597 -14.30593 -10.28253 -10.21652 -10.19999
 Alpha  occ. eigenvalues --  -10.18322  -1.07181  -0.88878  -0.80629  -0.69539
 Alpha  occ. eigenvalues --   -0.63350  -0.57824  -0.51405  -0.48280  -0.43804
 Alpha  occ. eigenvalues --   -0.42382  -0.41291  -0.39449  -0.37675  -0.34942
 Alpha  occ. eigenvalues --   -0.28940  -0.27573  -0.25782
 Alpha virt. eigenvalues --   -0.03214   0.06816   0.08032   0.12195   0.12770
 Alpha virt. eigenvalues --    0.14392   0.16346   0.18025   0.19128   0.23173
 Alpha virt. eigenvalues --    0.27716   0.32765   0.37996   0.39975   0.51363

 Mulliken charges:
               1
     1  C   -0.303568
     2  C    0.141341
     3  C   -0.353092
     4  C    0.448966
     5  N   -0.548971
     6  O   -0.519467
     7  H    0.095979
     8  H    0.110635
     9  H    0.100051
    10  H    0.150941
    11  H    0.127498
    12  H    0.235432
    13  H    0.314256
 Sum of Mulliken charges =  -0.00000

 Dipole moment (field-independent basis, Debye):
    X=              1.0542    Y=              2.1174    Z=              0.8699  Tot=              2.5202
 Quadrupole moment (field-independent basis, Debye-Ang):
   XX=            -34.4986   YY=            -35.2534   ZZ=            -36.9340
   XY=             -0.0067   XZ=             -0.5347   YZ=              0.2124

  Exact polarizability:  58.115   9.195  68.999   0.085  -0.286  28.709
 Approx polarizability:  77.192  20.027 118.059  -0.213   1.206  41.875

                      1                      2                      3
                      A                      A                      A
 Frequencies --     82.3716               171.4807               277.5035
 Red. masses --      3.8437                 1.0546                 3.3931
 Frc consts  --      0.0154                 0.0183                 0.1540
 IR Inten    --      2.2852                 0.4054                 8.7881

                      4                      5                      6
                      A                      A                      A
 Frequencies --    345.9473               380.0085               451.7637
 Red. masses --      3.0067                 2.3898                 1.1944
 Frc consts  --      0.2120                 0.2033                 0.1436
 IR Inten    --      2.9577                17.4573               106.6205

                      7                      8                      9
                      A                      A                      A
 Frequencies --    524.9111               548.7188               633.2438
 Red. masses --      2.7516                 3.7996                 1.5732
 Frc consts  --      0.4467                 0.6741                 0.3717
 IR Inten    --      6.6161                17.0728                 3.0957

                     10                     11                     12
                      A                      A                      A
 Frequencies --    767.8510               794.2276               912.2132
 Red. masses --      3.6235                 1.8602                 1.2231
 Frc consts  --      1.2587                 0.6913                 0.5997
 IR Inten    --     23.7815                 5.2929                62.0992

                     13                     14                     15
                      A                      A                      A
 Frequencies --    933.2558               956.8423              1028.3306
 Red. masses --      1.3777                 1.8205                 1.4026
 Frc consts  --      0.7070                 0.9820                 0.8739
 IR Inten    --     39.5944                 4.8081                 4.9863

                     16                     17                     18
                      A                      A                      A
 Frequencies --   1077.2869              1101.1791              1212.9568
 Red. masses --      1.4810                 2.5561                 1.1942
 Frc consts  --      1.0126                 1.8262                 1.0352
 IR Inten    --      3.6995                55.4087                53.5255

                     19                     20                     21
                      A                      A                      A
 Frequencies --   1266.7557              1411.9486              1429.3179
 Red. masses --      1.9588                 1.7321                 1.8468
 Frc consts  --      1.8520                 2.0345                 2.2229
 IR Inten    --    118.0259               142.3335                36.4701

                     22                     23                     24
                      A                      A                      A
 Frequencies --   1456.4599              1482.8772              1505.1099
 Red. masses --      1.2334                 1.0472                 1.0640
 Frc consts  --      1.5415                 1.3567                 1.4202
 IR Inten    --      4.3724                 8.2595                11.3854

                     25                     26                     27
                      A                      A                      A
 Frequencies --   1703.1773              1754.2957              3055.5309
 Red. masses --      4.8300                 7.4366                 1.0361
 Frc consts  --      8.2551                13.4844                 5.6991
 IR Inten    --     41.2872                96.4007                13.6537

                     28                     29                     30
                      A                      A                      A
 Frequencies --   3119.7327              3144.0254              3157.0472
 Red. masses --      1.0991                 1.1044                 1.0619
 Frc consts  --      6.3028                 6.4321                 6.2360
 IR Inten    --     11.4210                14.2161                 4.6052

                     31                     32                     33
                      A                      A                      A
 Frequencies --   3240.3493              3475.8553              3797.3944
 Red. masses --      1.1145                 1.0741                 1.0653
 Frc consts  --      6.8950                 7.6459                 9.0508
 IR Inten    --     11.2370                 1.5570                26.3347

 - Thermochemistry -
 -------------------
 Temperature   298.150 Kelvin.  Pressure   1.00000 Atm.
 Atom     1 has atomic number  6 and mass  12.00000

 Molecular mass:    85.05276 amu.
 Principal axes and moments of inertia in atomic units:
                           1         2         3
     Eigenvalues --   346.87064 530.21001 844.31151
           X            0.99989  -0.01498   0.00213
           Y            0.01500   0.99985  -0.00908
           Z           -0.00200   0.00911   0.99996
 This molecule is an asymmetric top.
 Rotational symmetry number  1.
 Rotational temperatures (Kelvin)      0.24970     0.16336     0.10259
 Rotational constants (GHZ):           5.20292     3.40382     2.13753
 Zero-point vibrational energy     282318.5 (Joules/Mol)
                                   67.47574 (Kcal/Mol)
 Warning -- explicit consideration of   8 degrees of freedom as
           vibrations may cause significant error
 Vibrational temperatures:    118.51   246.72   399.27   497.74   546.75
          (Kelvin)            649.99   755.23   789.48   911.10  1104.76
                             1142.71  1312.47  1342.75  1376.68  1479.54
                             1549.97  1584.35  1745.17  1822.58  2031.48
                             2056.47  2095.52  2133.53  2165.51  2450.49
                             2524.04  4396.22  4488.59  4523.55  4542.28
                             4662.13  5000.97  5463.60

 Zero-point correction=                           0.107529 (Hartree/Particle)
 Thermal correction to Energy=                    0.114142
 Thermal correction to Enthalpy=                  0.115086
 Thermal correction to Gibbs Free Energy=         0.077401
 Sum of electronic and zero-point Energies=           -286.491861
 Sum of electronic and thermal Energies=              -286.485249
 Sum of electronic and thermal Enthalpies=            -286.484305
 Sum of electronic and thermal Free Energies=         -286.521989

                     E (Thermal)             CV                S
                      KCal/Mol        Cal/Mol-Kelvin    Cal/Mol-Kelvin
 Total                   71.625             23.793             79.314
 Electronic               0.000              0.000              0.000
 Translational            0.889              2.981             39.235
 Rotational               0.889              2.981             26.543
 Vibrational             69.848             17.831             13.536
 Vibration     1          0.600              1.961              3.834
 Vibration     2          0.626              1.878              2.419
 Vibration     3          0.678              1.715              1.549
 Vibration     4          0.724              1.584              1.185
 Vibration     5          0.750              1.513              1.039
 Vibration     6          0.810              1.357              0.790
 Vibration     7          0.880              1.195              0.599
 Vibration     8          0.904              1.142              0.547

 Normal termination of Gaussian 09 at Thu Sep  8 15:04:00 2022.
