 Gaussian 09, Revision E.01,
 Gaussian 09:  ES64L-G09RevE.01 30-Nov-2015

 ----------------------------
 #P OPT Freq B3LYP/6-31G(d,p)
 ----------------------------

 --------
 Frag_800
 --------
 Symbolic Z-matrix:
 Charge =  0 Multiplicity = 1

 SCF Done:  E(RB3LYP) =  -283.975438919     A.U. after   13 cycles
 SCF Done:  E(RB3LYP) =  -283.975488880     A.U. after   11 cycles
 SCF Done:  E(RB3LYP) =  -283.975492218     A.U. after    8 cycles
 SCF Done:  E(RB3LYP) =  -283.975493138     A.U. after    8 cycles
 SCF Done:  E(RB3LYP) =  -283.975493349     A.U. after    7 cycles
 SCF Done:  E(RB3LYP) =  -283.975493394     A.U. after    7 cycles
 Optimization completed.
    -- Stationary point found.
 Normal termination of Gaussian 09 at Thu Sep  8 15:20:12 2022.

 ----------------------------------------------------------------------
 #P Geom=AllCheck Guess=TCheck SCRF=Check GenChk RB3LYP/6-31G(d,p) Freq
 ----------------------------------------------------------------------

 Structure from the checkpoint file:  "B3LYP6-31Gdp.Frag_800.chk"
 --------
 Frag_800
 --------
 Charge =  0 Multiplicity = 1

                         Standard orientation:
 ---------------------------------------------------------------------
 Center     Atomic      Atomic             Coordinates (Angstroms)
 Number     Number       Type             X           Y           Z
 ---------------------------------------------------------------------
      1          6           0        1.113687    1.330259    0.520611
      2          6           0        0.772690    0.166101   -0.049939
      3          7           0        1.675709   -0.877217   -0.318054
      4          6           0       -0.672186   -0.239397   -0.340249
      5          7           0       -1.546161    0.921425   -0.358679
      6          7           0       -1.232348   -1.173196    0.643756
      7          1           0        2.148337    1.573107    0.746891
      8          1           0        0.347700    2.038421    0.807651
      9          1           0        1.518343   -1.339465   -1.207307
     10          1           0        2.648559   -0.612682   -0.221587
     11          1           0       -0.661428   -0.795260   -1.300835
     12          1           0       -1.260570    1.572403   -1.084183
     13          1           0       -2.492523    0.609648   -0.557828
     14          1           0       -0.612758   -1.978157    0.715373
     15          1           0       -1.201210   -0.706868    1.550125
 ---------------------------------------------------------------------

 SCF Done:  E(RB3LYP) =  -283.975493394     A.U. after    1 cycles

 The electronic state is 1-A.
 Alpha  occ. eigenvalues --  -14.33556 -14.30981 -14.30597 -10.23929 -10.21026
 Alpha  occ. eigenvalues --  -10.15122  -0.92544  -0.89051  -0.82999  -0.72382
 Alpha  occ. eigenvalues --   -0.64086  -0.54627  -0.51422  -0.50097  -0.48253
 Alpha  occ. eigenvalues --   -0.43158  -0.41461  -0.39579  -0.39150  -0.36300
 Alpha  occ. eigenvalues --   -0.32075  -0.24047  -0.23575  -0.20239
 Alpha virt. eigenvalues --    0.04184   0.07841   0.09943   0.11862   0.13435
 Alpha virt. eigenvalues --    0.15592   0.16322   0.17728   0.18943   0.20960
 Alpha virt. eigenvalues --    0.24909   0.27878   0.28496   0.34903   0.37913

 Mulliken charges:
               1
     1  C   -0.316803
     2  C    0.280256
     3  N   -0.640092
     4  C    0.138793
     5  N   -0.598635
     6  N   -0.578825
     7  H    0.068659
     8  H    0.109842
     9  H    0.248004
    10  H    0.253022
    11  H    0.061514
    12  H    0.239810
    13  H    0.248804
    14  H    0.241818
    15  H    0.243833
 Sum of Mulliken charges =  -0.00000

 Dipole moment (field-independent basis, Debye):
    X=              1.4192    Y=             -0.4430    Z=             -1.8718  Tot=              2.3903
 Quadrupole moment (field-independent basis, Debye-Ang):
   XX=            -35.0043   YY=            -38.3109   ZZ=            -34.6593
   XY=             -2.8656   XZ=              0.4074   YZ=             -0.1328

  Exact polarizability:  56.838   1.073  61.487   1.219   7.599  41.592
 Approx polarizability:  72.750   2.560  95.599   1.356  15.759  60.066

                      1                      2                      3
                      A                      A                      A
 Frequencies --     95.2631               241.1223               289.1218
 Red. masses --      3.6415                 2.5395                 1.2575
 Frc consts  --      0.0195                 0.0870                 0.0619
 IR Inten    --      0.1746                 0.6891                28.6831

                      4                      5                      6
                      A                      A                      A
 Frequencies --    316.4629               330.5870               354.4464
 Red. masses --      1.6647                 1.3532                 1.1914
 Frc consts  --      0.0982                 0.0871                 0.0882
 IR Inten    --     32.8363                30.9753                28.8258

                      7                      8                      9
                      A                      A                      A
 Frequencies --    421.6521               491.2865               553.4119
 Red. masses --      2.3263                 2.2765                 3.4013
 Frc consts  --      0.2437                 0.3237                 0.6137
 IR Inten    --      6.9511                 9.9972                21.9465

                     10                     11                     12
                      A                      A                      A
 Frequencies --    632.4228               697.7216               783.5288
 Red. masses --      1.7990                 1.4112                 1.5143
 Frc consts  --      0.4239                 0.4048                 0.5477
 IR Inten    --    128.6145                56.0210                61.6914

                     13                     14                     15
                      A                      A                      A
 Frequencies --    801.6313               839.1562               898.0788
 Red. masses --      1.9146                 1.3563                 1.4978
 Frc consts  --      0.7249                 0.5627                 0.7118
 IR Inten    --     62.7065                52.1540               104.4898

                     16                     17                     18
                      A                      A                      A
 Frequencies --    950.6489               989.2065              1000.1885
 Red. masses --      1.9968                 1.5744                 2.0381
 Frc consts  --      1.0632                 0.9077                 1.2013
 IR Inten    --    197.7183                 9.2102                24.0088

                     19                     20                     21
                      A                      A                      A
 Frequencies --   1123.2530              1151.8938              1201.4769
 Red. masses --      1.4957                 1.7222                 1.3403
 Frc consts  --      1.1119                 1.3463                 1.1399
 IR Inten    --      6.3121                34.5302                 5.0583

                     22                     23                     24
                      A                      A                      A
 Frequencies --   1304.6898              1328.1206              1417.7762
 Red. masses --      1.4239                 2.1601                 1.3198
 Frc consts  --      1.4281                 2.2449                 1.5631
 IR Inten    --      9.5989                44.2722                13.2971

                     25                     26                     27
                      A                      A                      A
 Frequencies --   1431.9623              1445.9991              1638.7950
 Red. masses --      1.6784                 1.2294                 1.1156
 Frc consts  --      2.0277                 1.5145                 1.7652
 IR Inten    --     11.6590                13.6855                52.9701

                     28                     29                     30
                      A                      A                      A
 Frequencies --   1652.2550              1658.4523              1730.3701
 Red. masses --      1.1497                 1.0991                 4.7395
 Frc consts  --      1.8492                 1.7810                 8.3610
 IR Inten    --     50.0466                27.9325                70.1277

                     31                     32                     33
                      A                      A                      A
 Frequencies --   2885.1656              3161.1716              3270.1693
 Red. masses --      1.0810                 1.0635                 1.1114
 Frc consts  --      5.3015                 6.2615                 7.0023
 IR Inten    --    118.7488                15.3737                 4.0174

                     34                     35                     36
                      A                      A                      A
 Frequencies --   3475.8408              3509.8123              3527.7139
 Red. masses --      1.0501                 1.0490                 1.0486
 Frc consts  --      7.4746                 7.6133                 7.6883
 IR Inten    --      0.0111                 0.3486                 1.6006

                     37                     38                     39
                      A                      A                      A
 Frequencies --   3565.9396              3606.2286              3635.1984
 Red. masses --      1.0910                 1.0940                 1.0957
 Frc consts  --      8.1741                 8.3827                 8.5311
 IR Inten    --      0.5229                 1.1117                 3.8297

 - Thermochemistry -
 -------------------
 Temperature   298.150 Kelvin.  Pressure   1.00000 Atm.
 Atom     1 has atomic number  6 and mass  12.00000

 Molecular mass:    87.07965 amu.
 Principal axes and moments of inertia in atomic units:
                           1         2         3
     Eigenvalues --   369.85491 601.32126 810.15609
           X            0.99995  -0.00750   0.00623
           Y            0.00739   0.99981   0.01782
           Z           -0.00636  -0.01777   0.99982
 This molecule is an asymmetric top.
 Rotational symmetry number  1.
 Rotational temperatures (Kelvin)      0.23418     0.14404     0.10691
 Rotational constants (GHZ):           4.87959     3.00129     2.22765
 Zero-point vibrational energy     349358.7 (Joules/Mol)
                                   83.49874 (Kcal/Mol)
 Warning -- explicit consideration of   9 degrees of freedom as
           vibrations may cause significant error
 Vibrational temperatures:    137.06   346.92   415.98   455.32   475.64
          (Kelvin)            509.97   606.66   706.85   796.24   909.91
                             1003.86  1127.32  1153.37  1207.36  1292.13
                             1367.77  1423.25  1439.05  1616.11  1657.32
                             1728.66  1877.16  1910.87  2039.86  2060.27
                             2080.47  2357.86  2377.22  2386.14  2489.61
                             4151.10  4548.22  4705.04  5000.95  5049.83
                             5075.59  5130.59  5188.55  5230.23

 Zero-point correction=                           0.133064 (Hartree/Particle)
 Thermal correction to Energy=                    0.140189
 Thermal correction to Enthalpy=                  0.141134
 Thermal correction to Gibbs Free Energy=         0.102799
 Sum of electronic and zero-point Energies=           -283.842430
 Sum of electronic and thermal Energies=              -283.835304
 Sum of electronic and thermal Enthalpies=            -283.834360
 Sum of electronic and thermal Free Energies=         -283.872694

                     E (Thermal)             CV                S
                      KCal/Mol        Cal/Mol-Kelvin    Cal/Mol-Kelvin
 Total                   87.970             26.882             80.681
 Electronic               0.000              0.000              0.000
 Translational            0.889              2.981             39.306
 Rotational               0.889              2.981             26.691
 Vibrational             86.193             20.921             14.685
 Vibration     1          0.603              1.953              3.549
 Vibration     2          0.658              1.777              1.795
 Vibration     3          0.686              1.694              1.479
 Vibration     4          0.703              1.642              1.328
 Vibration     5          0.713              1.614              1.257
 Vibration     6          0.730              1.566              1.146
 Vibration     7          0.784              1.423              0.886
 Vibration     8          0.847              1.269              0.680
 Vibration     9          0.909              1.132              0.537

 Optimization completed.
    -- Stationary point found.
 Normal termination of Gaussian 09 at Thu Sep  8 15:20:24 2022.
