 Gaussian 09, Revision E.01,
 Gaussian 09:  ES64L-G09RevE.01 30-Nov-2015

 --------------------------------
 #P OPT=calcfc Freq B3LYP/6-31G**
 --------------------------------

 --------
 Frag_338
 --------
 Symbolic Z-matrix:
 Charge =  0 Multiplicity = 1

 SCF Done:  E(RB3LYP) =  -260.674015726     A.U. after   13 cycles
 SCF Done:  E(RB3LYP) =  -260.693011167     A.U. after   13 cycles
 SCF Done:  E(RB3LYP) =  -260.691226505     A.U. after   12 cycles
 SCF Done:  E(RB3LYP) =  -260.693347582     A.U. after   11 cycles
 SCF Done:  E(RB3LYP) =  -260.693712101     A.U. after   12 cycles
 SCF Done:  E(RB3LYP) =  -260.694959380     A.U. after   12 cycles
 SCF Done:  E(RB3LYP) =  -260.695229114     A.U. after   11 cycles
 SCF Done:  E(RB3LYP) =  -260.692031442     A.U. after   14 cycles
 SCF Done:  E(RB3LYP) =  -260.695255946     A.U. after   10 cycles
 SCF Done:  E(RB3LYP) =  -260.691023777     A.U. after   13 cycles
 SCF Done:  E(RB3LYP) =  -260.695295136     A.U. after    8 cycles
 SCF Done:  E(RB3LYP) =  -260.695330302     A.U. after   10 cycles
 SCF Done:  E(RB3LYP) =  -260.695330393     A.U. after    9 cycles
 SCF Done:  E(RB3LYP) =  -260.695331709     A.U. after    8 cycles
 Optimization completed.
    -- Stationary point found.
 Normal termination of Gaussian 09 at Fri Sep 10 18:57:51 2021.

 ----------------------------------------------------------------------
 #P Geom=AllCheck Guess=TCheck SCRF=Check GenChk RB3LYP/6-31G(d,p) Freq
 ----------------------------------------------------------------------

 Structure from the checkpoint file:  "/public/home/users/caep010/.cache/gau_scr/Gau-110556.chk"
 --------
 Frag_338
 --------
 Charge =  0 Multiplicity = 1

                         Standard orientation:
 ---------------------------------------------------------------------
 Center     Atomic      Atomic             Coordinates (Angstroms)
 Number     Number       Type             X           Y           Z
 ---------------------------------------------------------------------
      1          7           0       -0.546993    1.411021    0.008758
      2          6           0       -0.503732    0.129236   -0.042182
      3          7           0       -1.684220   -0.614433   -0.020773
      4          7           0        0.631685   -0.663682   -0.201455
      5          7           0        1.908331   -0.177757    0.126570
      6          1           0        0.377490    1.809304   -0.158005
      7          1           0       -1.679543   -1.416449    0.597960
      8          1           0       -2.477368   -0.009567    0.150463
      9          1           0        0.535850   -1.656459   -0.039805
     10          1           0        2.251707    0.392907   -0.642894
     11          1           0        1.852636    0.418797    0.953675
 ---------------------------------------------------------------------

 SCF Done:  E(RB3LYP) =  -260.695331709     A.U. after    1 cycles

 The electronic state is 1-A.
 Alpha  occ. eigenvalues --  -14.37412 -14.36312 -14.34003 -14.28050 -10.27648
 Alpha  occ. eigenvalues --   -1.00387  -0.92349  -0.83899  -0.78331  -0.59792
 Alpha  occ. eigenvalues --   -0.54610  -0.51935  -0.50964  -0.46985  -0.43897
 Alpha  occ. eigenvalues --   -0.37371  -0.28138  -0.26428  -0.25433  -0.22624
 Alpha virt. eigenvalues --    0.05175   0.06763   0.08267   0.12395   0.14432
 Alpha virt. eigenvalues --    0.14973   0.17342   0.20799   0.28422   0.34791
 Alpha virt. eigenvalues --    0.44795   0.57925   0.58023   0.59913   0.62887

 Mulliken charges:
               1
     1  N   -0.586219
     2  C    0.573008
     3  N   -0.614673
     4  N   -0.412644
     5  N   -0.458733
     6  H    0.192857
     7  H    0.249610
     8  H    0.276508
     9  H    0.262638
    10  H    0.267019
    11  H    0.250629
 Sum of Mulliken charges =   0.00000

 Dipole moment (field-independent basis, Debye):
    X=              0.6800    Y=             -1.6060    Z=              1.2591  Tot=              2.1510
 Quadrupole moment (field-independent basis, Debye-Ang):
   XX=            -28.2309   YY=            -30.2889   ZZ=            -30.6728
   XY=              6.6525   XZ=             -2.7832   YZ=             -2.2326

  Exact polarizability:  46.269   3.106  44.998  -1.168  -0.915  22.942
 Approx polarizability:  59.647   2.695  72.971  -1.381   0.260  32.378

                      1                      2                      3
                      A                      A                      A
 Frequencies --    151.5123               215.0201               332.7916
 Red. masses --      3.6949                 1.4953                 1.8176
 Frc consts  --      0.0500                 0.0407                 0.1186
 IR Inten    --      2.4169                12.4455                 7.4385

                      4                      5                      6
                      A                      A                      A
 Frequencies --    359.7708               473.1166               509.4293
 Red. masses --      1.1181                 2.9614                 1.3136
 Frc consts  --      0.0853                 0.3906                 0.2009
 IR Inten    --     53.7085                35.5795               141.8436

                      7                      8                      9
                      A                      A                      A
 Frequencies --    608.2280               635.6926               773.8409
 Red. masses --      1.4520                 2.6939                 3.2007
 Frc consts  --      0.3165                 0.6414                 1.1293
 IR Inten    --    200.9454                74.0435               114.0131

                     10                     11                     12
                      A                      A                      A
 Frequencies --    815.8712               875.6025               999.9674
 Red. masses --      1.2110                 1.7905                 2.5799
 Frc consts  --      0.4749                 0.8088                 1.5200
 IR Inten    --     21.5264                97.5330                19.2017

                     13                     14                     15
                      A                      A                      A
 Frequencies --   1090.8576              1178.5075              1244.8048
 Red. masses --      1.7695                 1.4474                 2.7193
 Frc consts  --      1.2406                 1.1844                 2.4826
 IR Inten    --     36.0430                68.4430                27.3255

                     16                     17                     18
                      A                      A                      A
 Frequencies --   1333.1009              1383.5297              1524.2613
 Red. masses --      1.1794                 1.5061                 1.9877
 Frc consts  --      1.2349                 1.6986                 2.7209
 IR Inten    --      1.1899                43.9995               174.4939

                     19                     20                     21
                      A                      A                      A
 Frequencies --   1634.4084              1705.1827              1738.6782
 Red. masses --      1.2123                 1.0832                 4.5464
 Frc consts  --      1.9080                 1.8557                 8.0975
 IR Inten    --     70.8573                37.7487               201.9494

                     22                     23                     24
                      A                      A                      A
 Frequencies --   3438.0585              3499.3792              3535.2719
 Red. masses --      1.0485                 1.0737                 1.0940
 Frc consts  --      7.3018                 7.7468                 8.0557
 IR Inten    --      5.9455                 3.5099                 0.1621

                     25                     26                     27
                      A                      A                      A
 Frequencies --   3551.2654              3608.1760              3664.2682
 Red. masses --      1.0487                 1.0775                 1.0965
 Frc consts  --      7.7922                 8.2649                 8.6744
 IR Inten    --     12.5441                14.1734                19.1236

 - Thermochemistry -
 -------------------
 Temperature   298.150 Kelvin.  Pressure   1.00000 Atm.
 Atom     1 has atomic number  7 and mass  14.00307

 Molecular mass:    74.05925 amu.
 Principal axes and moments of inertia in atomic units:
                           1         2         3
     Eigenvalues --   181.19132 443.85472 607.02083
           X            0.99861   0.05174  -0.01008
           Y           -0.05194   0.99843  -0.02089
           Z            0.00899   0.02139   0.99973
 This molecule is an asymmetric top.
 Rotational symmetry number  1.
 Rotational temperatures (Kelvin)      0.47802     0.19514     0.14269
 Rotational constants (GHZ):           9.96042     4.06606     2.97311
 Zero-point vibrational energy     244520.2 (Joules/Mol)
                                   58.44174 (Kcal/Mol)
 Warning -- explicit consideration of   7 degrees of freedom as
           vibrations may cause significant error
 Vibrational temperatures:    217.99   309.37   478.81   517.63   680.71
          (Kelvin)            732.95   875.10   914.62  1113.38  1173.86
                             1259.80  1438.73  1569.50  1695.61  1790.99
                             1918.03  1990.59  2193.07  2351.55  2453.37
                             2501.57  4946.59  5034.82  5086.46  5109.47
                             5191.35  5272.06

 Zero-point correction=                           0.093133 (Hartree/Particle)
 Thermal correction to Energy=                    0.098977
 Thermal correction to Enthalpy=                  0.099921
 Thermal correction to Gibbs Free Energy=         0.064611
 Sum of electronic and zero-point Energies=           -260.602199
 Sum of electronic and thermal Energies=              -260.596355
 Sum of electronic and thermal Enthalpies=            -260.595410
 Sum of electronic and thermal Free Energies=         -260.630721

                     E (Thermal)             CV                S
                      KCal/Mol        Cal/Mol-Kelvin    Cal/Mol-Kelvin
 Total                   62.109             20.700             74.317
 Electronic               0.000              0.000              0.000
 Translational            0.889              2.981             38.823
 Rotational               0.889              2.981             25.393
 Vibrational             60.332             14.738             10.101
 Vibration     1          0.619              1.901              2.653
 Vibration     2          0.645              1.818              2.001
 Vibration     3          0.715              1.610              1.247
 Vibration     4          0.734              1.555              1.123
 Vibration     5          0.830              1.310              0.729
 Vibration     6          0.865              1.229              0.635
 Vibration     7          0.967              1.014              0.436

 Normal termination of Gaussian 09 at Fri Sep 10 18:57:59 2021.
