 Gaussian 09, Revision E.01,
 Gaussian 09:  ES64L-G09RevE.01 30-Nov-2015

 --------------------------------
 #P OPT=calcfc Freq B3LYP/6-31G**
 --------------------------------

 --------
 Frag_392
 --------
 Symbolic Z-matrix:
 Charge =  0 Multiplicity = 1

 SCF Done:  E(RB3LYP) =  -303.809912283     A.U. after   14 cycles
 SCF Done:  E(RB3LYP) =  -303.830820442     A.U. after   14 cycles
 SCF Done:  E(RB3LYP) =  -303.821841364     A.U. after   14 cycles
 SCF Done:  E(RB3LYP) =  -303.831709604     A.U. after   10 cycles
 SCF Done:  E(RB3LYP) =  -303.833905592     A.U. after   13 cycles
 SCF Done:  E(RB3LYP) =  -303.835405866     A.U. after   13 cycles
 SCF Done:  E(RB3LYP) =  -303.833763195     A.U. after   14 cycles
 SCF Done:  E(RB3LYP) =  -303.839608410     A.U. after   12 cycles
 SCF Done:  E(RB3LYP) =  -303.840802073     A.U. after   13 cycles
 SCF Done:  E(RB3LYP) =  -303.801414111     A.U. after   13 cycles
 SCF Done:  E(RB3LYP) =  -303.849447899     A.U. after   11 cycles
 SCF Done:  E(RB3LYP) =  -303.849247670     A.U. after   11 cycles
 SCF Done:  E(RB3LYP) =  -303.849516105     A.U. after    9 cycles
 SCF Done:  E(RB3LYP) =  -303.849552039     A.U. after   10 cycles
 SCF Done:  E(RB3LYP) =  -303.849567453     A.U. after   10 cycles
 SCF Done:  E(RB3LYP) =  -303.849585198     A.U. after   10 cycles
 SCF Done:  E(RB3LYP) =  -303.849591948     A.U. after    9 cycles
 SCF Done:  E(RB3LYP) =  -303.849592648     A.U. after    8 cycles
 SCF Done:  E(RB3LYP) =  -303.849592700     A.U. after    7 cycles
 Optimization completed.
    -- Stationary point found.
 Normal termination of Gaussian 09 at Fri Sep 10 19:02:25 2021.

 ----------------------------------------------------------------------
 #P Geom=AllCheck Guess=TCheck SCRF=Check GenChk RB3LYP/6-31G(d,p) Freq
 ----------------------------------------------------------------------

 Structure from the checkpoint file:  "/public/home/users/caep010/.cache/gau_scr/Gau-129012.chk"
 --------
 Frag_392
 --------
 Charge =  0 Multiplicity = 1

                         Standard orientation:
 ---------------------------------------------------------------------
 Center     Atomic      Atomic             Coordinates (Angstroms)
 Number     Number       Type             X           Y           Z
 ---------------------------------------------------------------------
      1          6           0       -1.565004    1.162271   -0.058138
      2          6           0       -0.667050   -0.040700   -0.005500
      3          7           0       -1.344574   -1.276097    0.174194
      4          6           0        0.677274    0.017478   -0.032562
      5          7           0        1.502951    1.154070    0.130478
      6          8           0        1.407569   -1.156025   -0.139290
      7          1           0       -2.091911    1.312262    0.892314
      8          1           0       -1.020329    2.077007   -0.303759
      9          1           0       -2.337982    1.033227   -0.829135
     10          1           0       -2.074211   -1.410915   -0.521153
     11          1           0       -0.690055   -2.049066    0.112677
     12          1           0        0.999165    1.963863    0.469195
     13          1           0        2.009684    1.398962   -0.718268
     14          1           0        2.165130   -1.057243    0.456944
 ---------------------------------------------------------------------

 SCF Done:  E(RB3LYP) =  -303.849592700     A.U. after    1 cycles

 The electronic state is 1-A.
 Alpha  occ. eigenvalues --  -19.15396 -14.33247 -14.31000 -10.23871 -10.19378
 Alpha  occ. eigenvalues --  -10.17966  -1.03705  -0.88857  -0.87572  -0.73313
 Alpha  occ. eigenvalues --   -0.66589  -0.54817  -0.52018  -0.50838  -0.47043
 Alpha  occ. eigenvalues --   -0.45694  -0.40392  -0.39233  -0.38380  -0.36497
 Alpha  occ. eigenvalues --   -0.32752  -0.28343  -0.27720  -0.16460
 Alpha virt. eigenvalues --    0.06156   0.07398   0.10603   0.10959   0.14554
 Alpha virt. eigenvalues --    0.15106   0.17251   0.19300   0.20332   0.24305
 Alpha virt. eigenvalues --    0.26210   0.28208   0.40166   0.47198   0.54506

 Mulliken charges:
               1
     1  C   -0.359701
     2  C    0.214126
     3  N   -0.637377
     4  C    0.368391
     5  N   -0.657446
     6  O   -0.560432
     7  H    0.125107
     8  H    0.088800
     9  H    0.102130
    10  H    0.237809
    11  H    0.258902
    12  H    0.254008
    13  H    0.254350
    14  H    0.311334
 Sum of Mulliken charges =  -0.00000

 Dipole moment (field-independent basis, Debye):
    X=              0.4624    Y=              1.3933    Z=             -0.9307  Tot=              1.7382
 Quadrupole moment (field-independent basis, Debye-Ang):
   XX=            -33.7038   YY=            -32.6803   ZZ=            -37.7321
   XY=              0.6709   XZ=              2.3633   YZ=             -0.2554

  Exact polarizability:  71.455   2.451  52.440   0.715  -0.203  32.105
 Approx polarizability: 107.471   4.964  69.785  -0.488   0.276  46.365

                      1                      2                      3
                      A                      A                      A
 Frequencies --    167.3771               179.9836               227.9859
 Red. masses --      1.0985                 3.1216                 1.2577
 Frc consts  --      0.0181                 0.0596                 0.0385
 IR Inten    --      2.3157                 3.4489                17.3950

                      4                      5                      6
                      A                      A                      A
 Frequencies --    285.2353               290.0965               334.7130
 Red. masses --      2.1295                 1.1588                 2.8322
 Frc consts  --      0.1021                 0.0575                 0.1869
 IR Inten    --     12.0450                78.7751                22.4934

                      7                      8                      9
                      A                      A                      A
 Frequencies --    376.9205               439.5294               509.0792
 Red. masses --      2.4357                 1.3918                 2.0438
 Frc consts  --      0.2039                 0.1584                 0.3121
 IR Inten    --      2.2022                82.7524                55.4930

                     10                     11                     12
                      A                      A                      A
 Frequencies --    543.2789               571.7546               745.0630
 Red. masses --      4.0691                 4.3300                 3.6095
 Frc consts  --      0.7076                 0.8340                 1.1806
 IR Inten    --     20.6153                17.0032                52.3652

                     13                     14                     15
                      A                      A                      A
 Frequencies --    785.3612               841.3099               981.5291
 Red. masses --      1.4860                 1.3923                 2.0451
 Frc consts  --      0.5400                 0.5806                 1.1608
 IR Inten    --    271.3395               188.1047                25.8553

                     16                     17                     18
                      A                      A                      A
 Frequencies --   1040.8358              1066.7269              1157.5638
 Red. masses --      1.5003                 1.4936                 1.3311
 Frc consts  --      0.9576                 1.0013                 1.0509
 IR Inten    --     26.6641                28.7388                21.2010

                     19                     20                     21
                      A                      A                      A
 Frequencies --   1220.1173              1279.3102              1312.8974
 Red. masses --      1.4516                 3.7772                 2.0590
 Frc consts  --      1.2732                 3.6422                 2.0910
 IR Inten    --     48.3266               136.2796                40.6310

                     22                     23                     24
                      A                      A                      A
 Frequencies --   1361.3364              1435.3633              1493.3313
 Red. masses --      2.1700                 1.4385                 1.0495
 Frc consts  --      2.3694                 1.7462                 1.3789
 IR Inten    --     40.2085                 3.4673                 2.7055

                     25                     26                     27
                      A                      A                      A
 Frequencies --   1510.6990              1639.6703              1654.1874
 Red. masses --      1.0564                 1.1219                 1.1141
 Frc consts  --      1.4205                 1.7771                 1.7962
 IR Inten    --      3.7137                34.2293                47.4088

                     28                     29                     30
                      A                      A                      A
 Frequencies --   1807.4231              3016.6595              3065.2232
 Red. masses --      6.6605                 1.0446                 1.0948
 Frc consts  --     12.8197                 5.6008                 6.0608
 IR Inten    --     16.6224                56.6323                29.0068

                     31                     32                     33
                      A                      A                      A
 Frequencies --   3128.5023              3481.1706              3497.0260
 Red. masses --      1.0973                 1.0552                 1.0510
 Frc consts  --      6.3277                 7.5344                 7.5726
 IR Inten    --     27.5509                 4.2378                 4.2416

                     34                     35                     36
                      A                      A                      A
 Frequencies --   3605.6519              3629.5524              3767.4024
 Red. masses --      1.0912                 1.0874                 1.0651
 Frc consts  --      8.3587                 8.4401                 8.9067
 IR Inten    --      5.1541                 5.2387                23.3694

 - Thermochemistry -
 -------------------
 Temperature   298.150 Kelvin.  Pressure   1.00000 Atm.
 Atom     1 has atomic number  6 and mass  12.00000

 Molecular mass:    88.06366 amu.
 Principal axes and moments of inertia in atomic units:
                           1         2         3
     Eigenvalues --   368.38978 564.98044 905.96285
           X            0.99990  -0.01045   0.00934
           Y            0.01049   0.99994  -0.00415
           Z           -0.00929   0.00425   0.99995
 This molecule is an asymmetric top.
 Rotational symmetry number  1.
 Rotational temperatures (Kelvin)      0.23511     0.15330     0.09560
 Rotational constants (GHZ):           4.89900     3.19434     1.99207
 Zero-point vibrational energy     313719.9 (Joules/Mol)
                                   74.98085 (Kcal/Mol)
 Warning -- explicit consideration of  11 degrees of freedom as
           vibrations may cause significant error
 Vibrational temperatures:    240.82   258.96   328.02   410.39   417.38
          (Kelvin)            481.58   542.30   632.38   732.45   781.66
                              822.63  1071.98  1129.96  1210.46  1412.20
                             1497.53  1534.78  1665.47  1755.47  1840.64
                             1888.96  1958.66  2065.17  2148.57  2173.56
                             2359.12  2380.00  2600.48  4340.29  4410.17
                             4501.21  5008.62  5031.43  5187.72  5222.11
                             5420.44

 Zero-point correction=                           0.119490 (Hartree/Particle)
 Thermal correction to Energy=                    0.126925
 Thermal correction to Enthalpy=                  0.127869
 Thermal correction to Gibbs Free Energy=         0.089063
 Sum of electronic and zero-point Energies=           -303.730103
 Sum of electronic and thermal Energies=              -303.722668
 Sum of electronic and thermal Enthalpies=            -303.721724
 Sum of electronic and thermal Free Energies=         -303.760529

                     E (Thermal)             CV                S
                      KCal/Mol        Cal/Mol-Kelvin    Cal/Mol-Kelvin
 Total                   79.647             27.141             81.673
 Electronic               0.000              0.000              0.000
 Translational            0.889              2.981             39.339
 Rotational               0.889              2.981             26.736
 Vibrational             77.869             21.179             15.598
 Vibration     1          0.624              1.883              2.465
 Vibration     2          0.629              1.867              2.329
 Vibration     3          0.651              1.798              1.895
 Vibration     4          0.683              1.701              1.502
 Vibration     5          0.686              1.692              1.473
 Vibration     6          0.716              1.606              1.237
 Vibration     7          0.747              1.519              1.052
 Vibration     8          0.800              1.384              0.828
 Vibration     9          0.864              1.230              0.636
 Vibration    10          0.898              1.154              0.558
 Vibration    11          0.928              1.092              0.501

 Optimization completed.
    -- Stationary point found.
 Normal termination of Gaussian 09 at Fri Sep 10 19:02:36 2021.
