 Gaussian 09, Revision E.01,
 Gaussian 09:  ES64L-G09RevE.01 30-Nov-2015

 ----------------------------
 #P OPT Freq B3LYP/6-31G(d,p)
 ----------------------------

 --------
 Frag_534
 --------
 Symbolic Z-matrix:
 Charge =  0 Multiplicity = 1

 SCF Done:  E(RB3LYP) =  -264.498032713     A.U. after   14 cycles
 SCF Done:  E(RB3LYP) =  -264.498096126     A.U. after    9 cycles
 SCF Done:  E(RB3LYP) =  -264.498102590     A.U. after    8 cycles
 SCF Done:  E(RB3LYP) =  -264.498103479     A.U. after    8 cycles
 Optimization completed.
    -- Stationary point found.
 Normal termination of Gaussian 09 at Thu Sep  8 15:17:35 2022.

 ----------------------------------------------------------------------
 #P Geom=AllCheck Guess=TCheck SCRF=Check GenChk RB3LYP/6-31G(d,p) Freq
 ----------------------------------------------------------------------

 Structure from the checkpoint file:  "B3LYP6-31Gdp.Frag_534.chk"
 --------
 Frag_534
 --------
 Charge =  0 Multiplicity = 1

                         Standard orientation:
 ---------------------------------------------------------------------
 Center     Atomic      Atomic             Coordinates (Angstroms)
 Number     Number       Type             X           Y           Z
 ---------------------------------------------------------------------
      1          6           0       -1.780068   -0.567853    0.000035
      2          6           0       -0.484599    0.191426   -0.000078
      3          7           0       -0.400804    1.451384    0.000010
      4          8           0        0.564019   -0.726145   -0.000073
      5          7           0        1.852631   -0.079436    0.000069
      6          1           0       -1.846872   -1.211942    0.882590
      7          1           0       -2.606829    0.141305   -0.000297
      8          1           0       -1.846657   -1.212601   -0.882046
      9          1           0        0.588228    1.720681    0.000032
     10          1           0        2.312600   -0.486805    0.814859
     11          1           0        2.312598   -0.486553   -0.814850
 ---------------------------------------------------------------------

 SCF Done:  E(RB3LYP) =  -264.498103479     A.U. after    1 cycles

 The electronic state is 1-A.
 Alpha  occ. eigenvalues --  -19.20427 -14.39383 -14.29244 -10.26992 -10.18508
 Alpha  occ. eigenvalues --   -1.09187  -0.89202  -0.83044  -0.72530  -0.56154
 Alpha  occ. eigenvalues --   -0.52713  -0.51104  -0.46560  -0.43090  -0.39495
 Alpha  occ. eigenvalues --   -0.38810  -0.35182  -0.28331  -0.26300  -0.26261
 Alpha virt. eigenvalues --    0.03926   0.05934   0.08988   0.12808   0.13494
 Alpha virt. eigenvalues --    0.16851   0.18133   0.18285   0.22897   0.27074
 Alpha virt. eigenvalues --    0.43876   0.54113   0.55968   0.57276   0.58475

 Mulliken charges:
               1
     1  C   -0.357992
     2  C    0.491926
     3  N   -0.547398
     4  O   -0.424795
     5  N   -0.361355
     6  H    0.129291
     7  H    0.143980
     8  H    0.129273
     9  H    0.247960
    10  H    0.274555
    11  H    0.274555
 Sum of Mulliken charges =  -0.00000

 Dipole moment (field-independent basis, Debye):
    X=              2.1488    Y=             -2.4229    Z=             -0.0000  Tot=              3.2385
 Quadrupole moment (field-independent basis, Debye-Ang):
   XX=            -22.7964   YY=            -34.1890   ZZ=            -28.6882
   XY=              0.8521   XZ=             -0.0004   YZ=             -0.0006

  Exact polarizability:  48.261   0.647  41.630  -0.000  -0.000  27.570
 Approx polarizability:  58.710   0.264  68.254   0.000   0.001  38.452

                      1                      2                      3
                      A                      A                      A
 Frequencies --    130.6067               170.7667               199.8469
 Red. masses --      1.1126                 2.6082                 1.2052
 Frc consts  --      0.0112                 0.0448                 0.0284
 IR Inten    --      0.0800                10.1481                34.3508

                      4                      5                      6
                      A                      A                      A
 Frequencies --    321.5233               420.6125               548.5328
 Red. masses --      3.2934                 3.3015                 2.5257
 Frc consts  --      0.2006                 0.3441                 0.4477
 IR Inten    --      3.2791                 2.4097                 0.6592

                      7                      8                      9
                      A                      A                      A
 Frequencies --    618.0894               841.9175               936.3821
 Red. masses --      4.0678                 3.8502                 5.0501
 Frc consts  --      0.9156                 1.6080                 2.6089
 IR Inten    --     32.6739                56.3821                15.1949

                     10                     11                     12
                      A                      A                      A
 Frequencies --    956.1205               997.0631              1082.4205
 Red. masses --      1.2995                 2.0020                 1.4574
 Frc consts  --      0.6999                 1.1726                 1.0061
 IR Inten    --     91.4821                13.5723                 1.5278

                     13                     14                     15
                      A                      A                      A
 Frequencies --   1084.0330              1232.7498              1325.3473
 Red. masses --      1.5725                 1.5334                 1.1161
 Frc consts  --      1.0887                 1.3730                 1.1551
 IR Inten    --      2.9199                99.3650                 1.1316

                     16                     17                     18
                      A                      A                      A
 Frequencies --   1342.3407              1420.2352              1490.7747
 Red. masses --      1.7522                 1.4198                 1.0552
 Frc consts  --      1.8601                 1.6873                 1.3817
 IR Inten    --    198.7673                48.5949                 4.1091

                     19                     20                     21
                      A                      A                      A
 Frequencies --   1491.4293              1656.2070              1783.8023
 Red. masses --      1.0442                 1.0847                 8.0786
 Frc consts  --      1.3685                 1.7531                15.1454
 IR Inten    --      8.1464                14.5218               150.5567

                     22                     23                     24
                      A                      A                      A
 Frequencies --   3059.9469              3119.9028              3180.5002
 Red. masses --      1.0380                 1.1007                 1.1015
 Frc consts  --      5.7262                 6.3123                 6.5651
 IR Inten    --      9.6522                12.5930                 5.6402

                     25                     26                     27
                      A                      A                      A
 Frequencies --   3449.1845              3457.2288              3542.0922
 Red. masses --      1.0481                 1.0710                 1.0962
 Frc consts  --      7.3467                 7.5422                 8.1032
 IR Inten    --      0.5019                 8.1572                 1.1075

 - Thermochemistry -
 -------------------
 Temperature   298.150 Kelvin.  Pressure   1.00000 Atm.
 Atom     1 has atomic number  6 and mass  12.00000

 Molecular mass:    74.04801 amu.
 Principal axes and moments of inertia in atomic units:
                           1         2         3
     Eigenvalues --   184.03460 443.16472 606.43343
           X            0.99922   0.03959  -0.00000
           Y           -0.03959   0.99922  -0.00001
           Z            0.00000   0.00001   1.00000
 This molecule is an asymmetric top.
 Rotational symmetry number  1.
 Rotational temperatures (Kelvin)      0.47064     0.19544     0.14282
 Rotational constants (GHZ):           9.80653     4.07239     2.97599
 Zero-point vibrational energy     238413.7 (Joules/Mol)
                                   56.98224 (Kcal/Mol)
 Warning -- explicit consideration of   7 degrees of freedom as
           vibrations may cause significant error
 Vibrational temperatures:    187.91   245.69   287.53   462.60   605.17
          (Kelvin)            789.22   889.29  1211.33  1347.24  1375.64
                             1434.55  1557.36  1559.68  1773.65  1906.88
                             1931.33  2043.40  2144.89  2145.83  2382.91
                             2566.49  4402.58  4488.84  4576.02  4962.60
                             4974.17  5096.27

 Zero-point correction=                           0.090807 (Hartree/Particle)
 Thermal correction to Energy=                    0.096814
 Thermal correction to Enthalpy=                  0.097759
 Thermal correction to Gibbs Free Energy=         0.061812
 Sum of electronic and zero-point Energies=           -264.407296
 Sum of electronic and thermal Energies=              -264.401289
 Sum of electronic and thermal Enthalpies=            -264.400345
 Sum of electronic and thermal Free Energies=         -264.436292

                     E (Thermal)             CV                S
                      KCal/Mol        Cal/Mol-Kelvin    Cal/Mol-Kelvin
 Total                   60.752             20.004             75.657
 Electronic               0.000              0.000              0.000
 Translational            0.889              2.981             38.822
 Rotational               0.889              2.981             25.406
 Vibrational             58.975             14.042             11.428
 Vibration     1          0.612              1.923              2.937
 Vibration     2          0.626              1.878              2.427
 Vibration     3          0.638              1.840              2.135
 Vibration     4          0.707              1.632              1.302
 Vibration     5          0.783              1.425              0.890
 Vibration     6          0.904              1.143              0.547
 Vibration     7          0.978              0.994              0.420

 Optimization completed.
    -- Stationary point found.
 Normal termination of Gaussian 09 at Thu Sep  8 15:17:43 2022.
