 Gaussian 09, Revision E.01,
 Gaussian 09:  ES64L-G09RevE.01 30-Nov-2015

 ----------------------------
 #P OPT Freq B3LYP/6-31G(d,p)
 ----------------------------

 --------
 Frag_497
 --------
 Symbolic Z-matrix:
 Charge =  0 Multiplicity = 1

 SCF Done:  E(RB3LYP) =  -173.276131161     A.U. after   12 cycles
 SCF Done:  E(RB3LYP) =  -173.276163518     A.U. after    8 cycles
 SCF Done:  E(RB3LYP) =  -173.276165885     A.U. after    7 cycles
 Optimization completed.
    -- Stationary point found.
 Normal termination of Gaussian 09 at Thu Sep  8 15:09:54 2022.

 ----------------------------------------------------------------------
 #P Geom=AllCheck Guess=TCheck SCRF=Check GenChk RB3LYP/6-31G(d,p) Freq
 ----------------------------------------------------------------------

 Structure from the checkpoint file:  "B3LYP6-31Gdp.Frag_497.chk"
 --------
 Frag_497
 --------
 Charge =  0 Multiplicity = 1

                         Standard orientation:
 ---------------------------------------------------------------------
 Center     Atomic      Atomic             Coordinates (Angstroms)
 Number     Number       Type             X           Y           Z
 ---------------------------------------------------------------------
      1          6           0       -1.897643   -0.086024    0.000020
      2          6           0       -0.463672    0.353896   -0.000065
      3          7           0        0.498182   -0.474728   -0.000024
      4          6           0        1.849876    0.054025    0.000022
      5          1           0       -2.421816    0.306467   -0.880100
      6          1           0       -2.421582    0.306049    0.880471
      7          1           0       -1.958825   -1.175870   -0.000213
      8          1           0       -0.290398    1.445493    0.000047
      9          1           0        2.384637   -0.322942   -0.879352
     10          1           0        2.384564   -0.322923    0.879444
     11          1           0        1.904779    1.155441    0.000012
 ---------------------------------------------------------------------

 SCF Done:  E(RB3LYP) =  -173.276165885     A.U. after    1 cycles

 The electronic state is 1-A.
 Alpha  occ. eigenvalues --  -14.32119 -10.22474 -10.20163 -10.18283  -0.91171
 Alpha  occ. eigenvalues --   -0.74625  -0.67015  -0.55057  -0.47442  -0.43869
 Alpha  occ. eigenvalues --   -0.43259  -0.40826  -0.38300  -0.36238  -0.28262
 Alpha  occ. eigenvalues --   -0.24517
 Alpha virt. eigenvalues --    0.01011   0.11332   0.12190   0.14441   0.16577
 Alpha virt. eigenvalues --    0.17229   0.17967   0.18241   0.21236   0.26110
 Alpha virt. eigenvalues --    0.39518   0.50970   0.51818   0.55608   0.55991

 Mulliken charges:
               1
     1  C   -0.356576
     2  C    0.135694
     3  N   -0.353993
     4  C   -0.183293
     5  H    0.119081
     6  H    0.119095
     7  H    0.133712
     8  H    0.064093
     9  H    0.120026
    10  H    0.120026
    11  H    0.082135
 Sum of Mulliken charges =  -0.00000

 Dipole moment (field-independent basis, Debye):
    X=             -0.2751    Y=              1.3684    Z=              0.0002  Tot=              1.3958
 Quadrupole moment (field-independent basis, Debye-Ang):
   XX=            -22.4170   YY=            -26.9159   ZZ=            -25.7597
   XY=              0.0667   XZ=             -0.0001   YZ=             -0.0000

  Exact polarizability:  56.581  -3.660  37.543   0.000   0.000  28.751
 Approx polarizability:  70.901 -10.877  57.122   0.001  -0.000  39.400

                      1                      2                      3
                      A                      A                      A
 Frequencies --    172.8742               236.4883               267.4310
 Red. masses --      1.0630                 1.4942                 2.0122
 Frc consts  --      0.0187                 0.0492                 0.0848
 IR Inten    --      0.9914                 7.5378                 1.5056

                      4                      5                      6
                      A                      A                      A
 Frequencies --    315.7243               542.7998               876.5318
 Red. masses --      2.4622                 2.8716                 1.1294
 Frc consts  --      0.1446                 0.4985                 0.5112
 IR Inten    --      6.1923                 1.3821                 3.9776

                      7                      8                      9
                      A                      A                      A
 Frequencies --    891.8051              1061.7156              1097.6229
 Red. masses --      1.8543                 3.9736                 1.5928
 Frc consts  --      0.8689                 2.6391                 1.1306
 IR Inten    --      9.0340                13.0798                 0.1008

                     10                     11                     12
                      A                      A                      A
 Frequencies --   1120.4673              1143.3391              1188.7082
 Red. masses --      1.5522                 1.4133                 1.8168
 Frc consts  --      1.1481                 1.0885                 1.5126
 IR Inten    --      1.7382                 0.0081                 8.7440

                     13                     14                     15
                      A                      A                      A
 Frequencies --   1391.4241              1424.0950              1452.0000
 Red. masses --      1.2138                 1.3750                 1.1855
 Frc consts  --      1.3846                 1.6430                 1.4726
 IR Inten    --      2.6684                14.4311                10.6522

                     16                     17                     18
                      A                      A                      A
 Frequencies --   1488.3618              1492.6421              1493.7779
 Red. masses --      1.0514                 1.0430                 1.0459
 Frc consts  --      1.3723                 1.3691                 1.3750
 IR Inten    --      6.5935                 6.9285                 3.5534

                     19                     20                     21
                      A                      A                      A
 Frequencies --   1512.2841              1773.2572              2966.6693
 Red. masses --      1.0586                 7.6023                 1.0804
 Frc consts  --      1.4264                14.0844                 5.6026
 IR Inten    --     16.8848                65.5205                35.0452

                     22                     23                     24
                      A                      A                      A
 Frequencies --   2976.7980              3036.6057              3073.5356
 Red. masses --      1.0520                 1.0387                 1.0854
 Frc consts  --      5.4924                 5.6433                 6.0414
 IR Inten    --    105.3256                15.7211                36.1588

                     25                     26                     27
                      A                      A                      A
 Frequencies --   3089.4000              3094.3206              3153.5723
 Red. masses --      1.0996                 1.1018                 1.1008
 Frc consts  --      6.1837                 6.2156                 6.4501
 IR Inten    --     19.4566                24.1352                12.1730

 - Thermochemistry -
 -------------------
 Temperature   298.150 Kelvin.  Pressure   1.00000 Atm.
 Atom     1 has atomic number  6 and mass  12.00000

 Molecular mass:    57.05785 amu.
 Principal axes and moments of inertia in atomic units:
                           1         2         3
     Eigenvalues --    46.79538 444.06560 468.57242
           X            0.99996   0.00938  -0.00000
           Y           -0.00938   0.99996   0.00001
           Z            0.00000  -0.00001   1.00000
 This molecule is an asymmetric top.
 Rotational symmetry number  1.
 Rotational temperatures (Kelvin)      1.85091     0.19505     0.18485
 Rotational constants (GHZ):          38.56665     4.06413     3.85157
 Zero-point vibrational energy     253215.1 (Joules/Mol)
                                   60.51985 (Kcal/Mol)
 Warning -- explicit consideration of   5 degrees of freedom as
           vibrations may cause significant error
 Vibrational temperatures:    248.73   340.25   384.77   454.26   780.97
          (Kelvin)           1261.13  1283.11  1527.57  1579.23  1612.10
                             1645.01  1710.28  2001.95  2048.95  2089.10
                             2141.42  2147.58  2149.21  2175.84  2551.32
                             4268.37  4282.94  4368.99  4422.13  4444.95
                             4452.03  4537.28

 Zero-point correction=                           0.096445 (Hartree/Particle)
 Thermal correction to Energy=                    0.101717
 Thermal correction to Enthalpy=                  0.102661
 Thermal correction to Gibbs Free Energy=         0.069278
 Sum of electronic and zero-point Energies=           -173.179721
 Sum of electronic and thermal Energies=              -173.174449
 Sum of electronic and thermal Enthalpies=            -173.173504
 Sum of electronic and thermal Free Energies=         -173.206888

                     E (Thermal)             CV                S
                      KCal/Mol        Cal/Mol-Kelvin    Cal/Mol-Kelvin
 Total                   63.829             17.142             70.261
 Electronic               0.000              0.000              0.000
 Translational            0.889              2.981             38.046
 Rotational               0.889              2.981             23.791
 Vibrational             62.051             11.181              8.424
 Vibration     1          0.626              1.876              2.404
 Vibration     2          0.655              1.785              1.829
 Vibration     3          0.673              1.733              1.613
 Vibration     4          0.703              1.644              1.332
 Vibration     5          0.898              1.155              0.559

 Optimization completed.
    -- Stationary point found.
 Normal termination of Gaussian 09 at Thu Sep  8 15:10:01 2022.
