 Gaussian 09, Revision E.01,
 Gaussian 09:  ES64L-G09RevE.01 30-Nov-2015

 --------------------------------
 #P OPT=calcfc Freq B3LYP/6-31G**
 --------------------------------

 --------
 Frag_244
 --------
 Symbolic Z-matrix:
 Charge =  0 Multiplicity = 1

 SCF Done:  E(RB3LYP) =  -247.234769335     A.U. after   14 cycles
 SCF Done:  E(RB3LYP) =  -247.239104849     A.U. after   13 cycles
 SCF Done:  E(RB3LYP) =  -247.239110310     A.U. after   12 cycles
 SCF Done:  E(RB3LYP) =  -247.239133162     A.U. after   11 cycles
 SCF Done:  E(RB3LYP) =  -247.239130397     A.U. after   12 cycles
 SCF Done:  E(RB3LYP) =  -247.239138522     A.U. after   12 cycles
 SCF Done:  E(RB3LYP) =  -247.239142218     A.U. after   10 cycles
 SCF Done:  E(RB3LYP) =  -247.239143314     A.U. after   11 cycles
 SCF Done:  E(RB3LYP) =  -247.239144934     A.U. after   11 cycles
 SCF Done:  E(RB3LYP) =  -247.239145656     A.U. after   10 cycles
 Optimization completed on the basis of negligible forces.
    -- Stationary point found.
 Normal termination of Gaussian 09 at Sat Aug 21 02:20:31 2021.

 ----------------------------------------------------------------------
 #P Geom=AllCheck Guess=TCheck SCRF=Check GenChk RB3LYP/6-31G(d,p) Freq
 ----------------------------------------------------------------------

 Structure from the checkpoint file:  "/public/home/users/caep010/.cache/gau_scr/Gau-212069.chk"
 --------
 Frag_244
 --------
 Charge =  0 Multiplicity = 1

                         Standard orientation:
 ---------------------------------------------------------------------
 Center     Atomic      Atomic             Coordinates (Angstroms)
 Number     Number       Type             X           Y           Z
 ---------------------------------------------------------------------
      1          6           0        1.049212    0.562015    0.033153
      2          7           0        1.052888   -0.715434    0.013703
      3          8           0       -0.260063   -1.188838   -0.059604
      4          6           0       -1.185688   -0.071099    0.059394
      5          6           0       -0.317450    1.192832   -0.049877
      6          1           0        1.993979    1.092395    0.073579
      7          1           0       -1.928102   -0.168208   -0.736320
      8          1           0       -1.688357   -0.146133    1.030282
      9          1           0       -0.444730    1.727970   -0.999108
     10          1           0       -0.498952    1.910235    0.756462
 ---------------------------------------------------------------------

 SCF Done:  E(RB3LYP) =  -247.239145656     A.U. after    1 cycles

 The electronic state is 1-A.
 Alpha  occ. eigenvalues --  -19.18328 -14.38513 -10.24491 -10.22573 -10.21338
 Alpha  occ. eigenvalues --   -1.08846  -0.85558  -0.78665  -0.63608  -0.58416
 Alpha  occ. eigenvalues --   -0.50886  -0.49819  -0.45250  -0.40285  -0.38614
 Alpha  occ. eigenvalues --   -0.37263  -0.35072  -0.29387  -0.24031
 Alpha virt. eigenvalues --    0.00041   0.08585   0.10523   0.12068   0.14001
 Alpha virt. eigenvalues --    0.14720   0.15863   0.20835   0.21817   0.31541
 Alpha virt. eigenvalues --    0.35354   0.51537   0.52333   0.54109   0.55761

 Mulliken charges:
               1
     1  C    0.094959
     2  N   -0.099858
     3  O   -0.392802
     4  C    0.059785
     5  C   -0.283206
     6  H    0.121353
     7  H    0.120525
     8  H    0.116666
     9  H    0.132429
    10  H    0.130148
 Sum of Mulliken charges =  -0.00000

 Dipole moment (field-independent basis, Debye):
    X=             -1.3029    Y=              3.2878    Z=              0.0849  Tot=              3.5375
 Quadrupole moment (field-independent basis, Debye-Ang):
   XX=            -27.8237   YY=            -31.2932   ZZ=            -28.9563
   XY=              2.0783   XZ=              0.0177   YZ=             -0.0832

  Exact polarizability:  43.520   2.680  42.943   0.159  -0.092  28.012
 Approx polarizability:  60.249   4.793  74.888   0.604   0.615  39.906

                      1                      2                      3
                      A                      A                      A
 Frequencies --     73.5947               477.1151               726.7439
 Red. masses --      2.0568                 3.9447                 3.3872
 Frc consts  --      0.0066                 0.5291                 1.0540
 IR Inten    --      1.2659                 0.1632                 5.1602

                      4                      5                      6
                      A                      A                      A
 Frequencies --    809.4498               847.8629               861.7724
 Red. masses --      1.2083                 1.4256                 6.4585
 Frc consts  --      0.4664                 0.6038                 2.8260
 IR Inten    --     14.3394                 4.0181                10.8356

                      7                      8                      9
                      A                      A                      A
 Frequencies --    883.2586               938.8605               968.4573
 Red. masses --      4.2976                 4.7473                 3.6440
 Frc consts  --      1.9754                 2.4655                 2.0137
 IR Inten    --     77.2477                12.4094                12.1850

                     10                     11                     12
                      A                      A                      A
 Frequencies --   1017.6345              1080.5184              1186.3599
 Red. masses --      2.3569                 1.6234                 1.1961
 Frc consts  --      1.4381                 1.1167                 0.9919
 IR Inten    --      0.6545                 0.2526                 2.2146

                     13                     14                     15
                      A                      A                      A
 Frequencies --   1244.0750              1265.8075              1314.1302
 Red. masses --      1.1700                 1.2564                 1.6738
 Frc consts  --      1.0669                 1.1861                 1.7031
 IR Inten    --      3.0808                 1.8693                14.5057

                     16                     17                     18
                      A                      A                      A
 Frequencies --   1377.3786              1497.6658              1532.3382
 Red. masses --      1.3697                 1.0960                 1.0996
 Frc consts  --      1.5310                 1.4483                 1.5212
 IR Inten    --      0.7247                 3.4835                 0.4271

                     19                     20                     21
                      A                      A                      A
 Frequencies --   1687.1458              3048.6131              3053.3093
 Red. masses --      8.1025                 1.0640                 1.0672
 Frc consts  --     13.5886                 5.8262                 5.8621
 IR Inten    --     12.2823                24.8882                36.0620

                     22                     23                     24
                      A                      A                      A
 Frequencies --   3095.2647              3120.0027              3230.8004
 Red. masses --      1.0974                 1.1058                 1.0942
 Frc consts  --      6.1946                 6.3424                 6.7294
 IR Inten    --      8.8617                33.5327                 3.2225

 - Thermochemistry -
 -------------------
 Temperature   298.150 Kelvin.  Pressure   1.00000 Atm.
 Atom     1 has atomic number  6 and mass  12.00000

 Molecular mass:    71.03711 amu.
 Principal axes and moments of inertia in atomic units:
                           1         2         3
     Eigenvalues --   218.08488 224.53272 418.70638
           X            0.80094   0.59874  -0.00204
           Y           -0.59874   0.80093  -0.00399
           Z           -0.00076   0.00442   0.99999
 This molecule is an asymmetric top.
 Rotational symmetry number  1.
 Rotational temperatures (Kelvin)      0.39716     0.38575     0.20686
 Rotational constants (GHZ):           8.27541     8.03776     4.31028
 Zero-point vibrational energy     211369.1 (Joules/Mol)
                                   50.51843 (Kcal/Mol)
 Warning -- explicit consideration of   2 degrees of freedom as
           vibrations may cause significant error
 Vibrational temperatures:    105.89   686.46  1045.62  1164.62  1219.88
          (Kelvin)           1239.90  1270.81  1350.81  1393.39  1464.15
                             1554.62  1706.91  1789.94  1821.21  1890.74
                             1981.74  2154.80  2204.69  2427.42  4386.27
                             4393.03  4453.39  4488.98  4648.40

 Zero-point correction=                           0.080506 (Hartree/Particle)
 Thermal correction to Energy=                    0.084955
 Thermal correction to Enthalpy=                  0.085899
 Thermal correction to Gibbs Free Energy=         0.052865
 Sum of electronic and zero-point Energies=           -247.158639
 Sum of electronic and thermal Energies=              -247.154191
 Sum of electronic and thermal Enthalpies=            -247.153247
 Sum of electronic and thermal Free Energies=         -247.186280

                     E (Thermal)             CV                S
                      KCal/Mol        Cal/Mol-Kelvin    Cal/Mol-Kelvin
 Total                   53.310             14.808             69.525
 Electronic               0.000              0.000              0.000
 Translational            0.889              2.981             38.699
 Rotational               0.889              2.981             24.531
 Vibrational             51.532              8.846              6.295
 Vibration     1          0.599              1.966              4.055
 Vibration     2          0.834              1.301              0.718

 Optimization completed on the basis of negligible forces.
    -- Stationary point found.
 Normal termination of Gaussian 09 at Sat Aug 21 02:20:39 2021.
