 Gaussian 09, Revision D.01,
 Gaussian 09:  ES64L-G09RevD.01 24-Apr-2013

 -------------------------
 #P OPT Freq B3LYP/6-31G**
 -------------------------

 -------
 Frag_92
 -------
 Symbolic Z-matrix:
 Charge =  0 Multiplicity = 1

 SCF Done:  E(RB3LYP) =  -231.221037397     A.U. after   14 cycles
 Optimization completed.
    -- Stationary point found.

 1\1\GINC-FN15\FOpt\RB3LYP\6-31G(d,p)\C4H6O1\LIUJ201281\23-Jul-2021\0\\
 #P OPT Freq B3LYP/6-31G**\\Frag_92\\0,1\C,1.9523,-0.0761,0.0732\C,0.77
 04,-0.688,-0.0768\C,-0.538,-0.0284,-0.0193\C,-1.691,-0.7125,0.0471\O,-
 0.5656,1.3435,0.0071\H,2.0367,0.9836,0.3006\H,2.885,-0.6246,0.0038\H,0
 .739,-1.7597,-0.2571\H,-1.6851,-1.7941,0.0945\H,-2.6427,-0.197,0.087\H
 ,0.2305,1.6741,-0.4305\\Version=ES64L-G09RevD.01\State=1-A\HF=-231.221
 0374\RMSD=3.103e-09\RMSF=2.184e-05\Dipole=0.5819114,-0.1497662,-0.2678
 064\Quadrupole=0.8366195,1.3342143,-2.1708338,1.6849512,-0.2443272,-0.

 Normal termination of Gaussian 09 at Fri Jul 23 19:39:10 2021.

 ----------------------------------------------------------------------
 #P Geom=AllCheck Guess=TCheck SCRF=Check GenChk RB3LYP/6-31G(d,p) Freq
 ----------------------------------------------------------------------

 Structure from the checkpoint file:  "/vol2/users/liuj201281/HOFBenchmark/IsodesmicSplit/Sample60/Ring26/Running/Gau-498946.chk"
 -------
 Frag_92
 -------
 Charge =  0 Multiplicity = 1

                         Standard orientation:
 ---------------------------------------------------------------------
 Center     Atomic      Atomic             Coordinates (Angstroms)
 Number     Number       Type             X           Y           Z
 ---------------------------------------------------------------------
      1          6           0       -1.952278   -0.076139   -0.073192
      2          6           0       -0.770368   -0.688020    0.076808
      3          6           0        0.538022   -0.028399    0.019308
      4          6           0        1.691032   -0.712481   -0.047092
      5          8           0        0.565600    1.343501   -0.007092
      6          1           0       -2.036695    0.983560   -0.300592
      7          1           0       -2.884969   -0.624654   -0.003792
      8          1           0       -0.738951   -1.759720    0.257108
      9          1           0        1.685150   -1.794081   -0.094492
     10          1           0        2.642724   -0.196966   -0.086992
     11          1           0       -0.230506    1.674088    0.430508
 ---------------------------------------------------------------------

 SCF Done:  E(RB3LYP) =  -231.221037397     A.U. after    1 cycles

 The electronic state is 1-A.
 Alpha  occ. eigenvalues --  -19.17048 -10.24671 -10.20367 -10.19566 -10.17193
 Alpha  occ. eigenvalues --   -1.05130  -0.79671  -0.73930  -0.61148  -0.57396
 Alpha  occ. eigenvalues --   -0.51181  -0.47019  -0.42082  -0.41378  -0.39321
 Alpha  occ. eigenvalues --   -0.37603  -0.34033  -0.28998  -0.22074
 Alpha virt. eigenvalues --   -0.02640   0.07025   0.09466   0.11182   0.14556
 Alpha virt. eigenvalues --    0.15975   0.18582   0.19680   0.26246   0.31410
 Alpha virt. eigenvalues --    0.34133   0.41069   0.48421   0.53000   0.56284

 Mulliken charges:
               1
     1  C   -0.271763
     2  C   -0.056104
     3  C    0.359117
     4  C   -0.302242
     5  O   -0.550223
     6  H    0.094573
     7  H    0.110959
     8  H    0.096832
     9  H    0.099051
    10  H    0.108209
    11  H    0.311591
 Sum of Mulliken charges =   0.00000

 Dipole moment (field-independent basis, Debye):
    X=             -1.4791    Y=             -0.3807    Z=              0.6807  Tot=              1.6721
 Quadrupole moment (field-independent basis, Debye-Ang):
   XX=            -28.4173   YY=            -27.7482   ZZ=            -32.4625
   XY=             -2.2663   XZ=             -0.3286   YZ=              0.9778

  Exact polarizability:  77.466 -11.051  46.461  -0.163  -0.880  19.191
 Approx polarizability: 125.937 -27.506  70.377   0.156  -1.702  27.400

                      1                      2                      3
                      A                      A                      A
 Frequencies --    153.2352               264.4284               376.5134
 Red. masses --      2.1746                 2.6194                 1.1767
 Frc consts  --      0.0301                 0.1079                 0.0983
 IR Inten    --      0.5933                17.8539               103.7886

                      4                      5                      6
                      A                      A                      A
 Frequencies --    435.6046               452.9025               585.5907
 Red. masses --      2.3439                 1.7213                 2.7534
 Frc consts  --      0.2620                 0.2080                 0.5563
 IR Inten    --      3.0830                 6.0172                 3.0394

                      7                      8                      9
                      A                      A                      A
 Frequencies --    722.7647               762.1326               828.6718
 Red. masses --      1.3572                 1.6328                 2.7730
 Frc consts  --      0.4177                 0.5588                 1.1219
 IR Inten    --      3.7710                 6.1534                 6.6113

                     10                     11                     12
                      A                      A                      A
 Frequencies --    854.0485               921.2550               985.9149
 Red. masses --      1.4328                 1.3599                 1.8987
 Frc consts  --      0.6157                 0.6800                 1.0874
 IR Inten    --     60.7285                37.1690                34.3979

                     13                     14                     15
                      A                      A                      A
 Frequencies --   1021.6866              1057.9079              1242.0350
 Red. masses --      1.1190                 1.4284                 1.2777
 Frc consts  --      0.6882                 0.9419                 1.1613
 IR Inten    --     11.3641                 6.6993                74.0918

                     16                     17                     18
                      A                      A                      A
 Frequencies --   1318.4182              1366.3679              1435.5683
 Red. masses --      1.2882                 3.0707                 1.2355
 Frc consts  --      1.3193                 3.3777                 1.5001
 IR Inten    --      0.0418               139.1971                 0.3610

                     19                     20                     21
                      A                      A                      A
 Frequencies --   1469.9431              1678.7431              1736.4435
 Red. masses --      1.2722                 4.0725                 4.9547
 Frc consts  --      1.6195                 6.7621                 8.8021
 IR Inten    --      5.4863                46.2107                 7.5794

                     22                     23                     24
                      A                      A                      A
 Frequencies --   3157.8653              3181.8352              3189.9201
 Red. masses --      1.0609                 1.0900                 1.0615
 Frc consts  --      6.2330                 6.5019                 6.3642
 IR Inten    --      6.1263                 3.5110                 0.6090

                     25                     26                     27
                      A                      A                      A
 Frequencies --   3247.7237              3284.1729              3805.9634
 Red. masses --      1.1136                 1.1182                 1.0655
 Frc consts  --      6.9207                 7.1060                 9.0939
 IR Inten    --     10.9155                 5.1200                23.5241

 - Thermochemistry -
 -------------------
 Temperature   298.150 Kelvin.  Pressure   1.00000 Atm.
 Atom     1 has atomic number  6 and mass  12.00000

 Molecular mass:    70.04186 amu.
 Principal axes and moments of inertia in atomic units:
                           1         2         3
     Eigenvalues --   184.59449 426.53863 607.36927
           X            0.99916  -0.04087  -0.00057
           Y            0.04087   0.99916   0.00310
           Z            0.00044  -0.00312   1.00000
 This molecule is an asymmetric top.
 Rotational symmetry number  1.
 Rotational temperatures (Kelvin)      0.46921     0.20306     0.14260
 Rotational constants (GHZ):           9.77679     4.23113     2.97141
 Zero-point vibrational energy     236487.7 (Joules/Mol)
                                   56.52192 (Kcal/Mol)
 Warning -- explicit consideration of   6 degrees of freedom as
           vibrations may cause significant error
 Vibrational temperatures:    220.47   380.45   541.72   626.74   651.62
          (Kelvin)            842.53  1039.90  1096.54  1192.27  1228.78
                             1325.48  1418.51  1469.98  1522.09  1787.01
                             1896.91  1965.90  2065.46  2114.92  2415.33
                             2498.35  4543.46  4577.95  4589.58  4672.74
                             4725.19  5475.93

 Zero-point correction=                           0.090073 (Hartree/Particle)
 Thermal correction to Energy=                    0.095579
 Thermal correction to Enthalpy=                  0.096523
 Thermal correction to Gibbs Free Energy=         0.061919
 Sum of electronic and zero-point Energies=           -231.130964
 Sum of electronic and thermal Energies=              -231.125459
 Sum of electronic and thermal Enthalpies=            -231.124515
 Sum of electronic and thermal Free Energies=         -231.159118

                     E (Thermal)             CV                S
                      KCal/Mol        Cal/Mol-Kelvin    Cal/Mol-Kelvin
 Total                   59.977             19.823             72.829
 Electronic               0.000              0.000              0.000
 Translational            0.889              2.981             38.657
 Rotational               0.889              2.981             25.373
 Vibrational             58.199             13.861              8.800
 Vibration     1          0.619              1.899              2.632
 Vibration     2          0.671              1.738              1.632
 Vibration     3          0.747              1.520              1.053
 Vibration     4          0.796              1.393              0.841
 Vibration     5          0.811              1.354              0.787
 Vibration     6          0.943              1.063              0.475

 Optimization completed.
    -- Stationary point found.

 1\1\GINC-FN15\Freq\RB3LYP\6-31G(d,p)\C4H6O1\LIUJ201281\23-Jul-2021\0\\
 #P Geom=AllCheck Guess=TCheck SCRF=Check GenChk RB3LYP/6-31G(d,p) Freq
 \\Frag_92\\0,1\C,1.9523,-0.0761,0.0732\C,0.7704,-0.688,-0.0768\C,-0.53
 8,-0.0284,-0.0193\C,-1.691,-0.7125,0.0471\O,-0.5656,1.3435,0.0071\H,2.
 0367,0.9836,0.3006\H,2.885,-0.6246,0.0038\H,0.739,-1.7597,-0.2571\H,-1
 .6851,-1.7941,0.0945\H,-2.6427,-0.197,0.087\H,0.2305,1.6741,-0.4305\\V
 ersion=ES64L-G09RevD.01\State=1-A\HF=-231.2210374\RMSD=1.094e-09\RMSF=
 2.184e-05\ZeroPoint=0.0900734\Thermal=0.0955787\Dipole=0.5819116,-0.14

 Normal termination of Gaussian 09 at Fri Jul 23 19:39:20 2021.
