 Gaussian 09, Revision E.01,
 Gaussian 09:  ES64L-G09RevE.01 30-Nov-2015

 ----------------------------
 #P OPT Freq B3LYP/6-31G(d,p)
 ----------------------------

 --------
 Frag_769
 --------
 Symbolic Z-matrix:
 Charge =  0 Multiplicity = 1

 SCF Done:  E(RB3LYP) =  -287.799157842     A.U. after   14 cycles
 SCF Done:  E(RB3LYP) =  -287.799207770     A.U. after    9 cycles
 SCF Done:  E(RB3LYP) =  -287.799212578     A.U. after    8 cycles
 Optimization completed.
    -- Stationary point found.
 Normal termination of Gaussian 09 at Thu Sep  8 15:25:10 2022.

 ----------------------------------------------------------------------
 #P Geom=AllCheck Guess=TCheck SCRF=Check GenChk RB3LYP/6-31G(d,p) Freq
 ----------------------------------------------------------------------

 Structure from the checkpoint file:  "B3LYP6-31Gdp.Frag_769.chk"
 --------
 Frag_769
 --------
 Charge =  0 Multiplicity = 1

                         Standard orientation:
 ---------------------------------------------------------------------
 Center     Atomic      Atomic             Coordinates (Angstroms)
 Number     Number       Type             X           Y           Z
 ---------------------------------------------------------------------
      1          6           0        2.028424    0.000004   -0.063512
      2          7           0        0.958028   -0.000024   -0.739929
      3          6           0       -0.335176   -0.000001   -0.057637
      4          6           0       -0.513869   -1.277573    0.779037
      5          6           0       -0.513857    1.277595    0.779002
      6          8           0       -1.277633   -0.000011   -1.131829
      7          1           0        2.983580   -0.000033   -0.592592
      8          1           0        2.086806    0.000038    1.035689
      9          1           0       -1.518967   -1.311401    1.213855
     10          1           0        0.207184   -1.328463    1.600883
     11          1           0       -0.382544   -2.153051    0.138517
     12          1           0       -1.518954    1.311443    1.213821
     13          1           0       -0.382525    2.153054    0.138458
     14          1           0        0.207196    1.328502    1.600848
     15          1           0       -2.160044    0.000011   -0.736684
 ---------------------------------------------------------------------

 SCF Done:  E(RB3LYP) =  -287.799212578     A.U. after    1 cycles

 The electronic state is 1-A.
 Alpha  occ. eigenvalues --  -19.13544 -14.33198 -10.26969 -10.22896 -10.18246
 Alpha  occ. eigenvalues --  -10.18245  -1.02083  -0.91388  -0.76061  -0.69867
 Alpha  occ. eigenvalues --   -0.65155  -0.55502  -0.49836  -0.48486  -0.44533
 Alpha  occ. eigenvalues --   -0.42056  -0.41441  -0.40258  -0.39517  -0.36418
 Alpha  occ. eigenvalues --   -0.33584  -0.31078  -0.26210  -0.25029
 Alpha virt. eigenvalues --   -0.01187   0.06777   0.10395   0.12742   0.14266
 Alpha virt. eigenvalues --    0.15381   0.15833   0.18675   0.18854   0.19215
 Alpha virt. eigenvalues --    0.21382   0.24316   0.26655   0.28464   0.32930

 Mulliken charges:
               1
     1  C   -0.023219
     2  N   -0.300861
     3  C    0.366014
     4  C   -0.316509
     5  C   -0.316511
     6  O   -0.537800
     7  H    0.110406
     8  H    0.081224
     9  H    0.092899
    10  H    0.098354
    11  H    0.129688
    12  H    0.092899
    13  H    0.129688
    14  H    0.098355
    15  H    0.295373
 Sum of Mulliken charges =  -0.00000

 Dipole moment (field-independent basis, Debye):
    X=             -0.2308    Y=              0.0001    Z=              2.9804  Tot=              2.9894
 Quadrupole moment (field-independent basis, Debye-Ang):
   XX=            -30.5356   YY=            -37.4055   ZZ=            -42.0055
   XY=             -0.0001   XZ=             -0.0081   YZ=             -0.0001

  Exact polarizability:  66.464   0.000  43.632   0.641   0.000  48.208
 Approx polarizability:  92.668   0.000  56.109   7.117   0.001  73.843

                      1                      2                      3
                      A                      A                      A
 Frequencies --     56.3786               251.7747               278.7020
 Red. masses --      2.6395                 1.0483                 1.4494
 Frc consts  --      0.0049                 0.0392                 0.0663
 IR Inten    --     11.0730                 4.1861                 0.1793

                      4                      5                      6
                      A                      A                      A
 Frequencies --    287.4351               297.1643               321.2868
 Red. masses --      1.5360                 1.0990                 2.1628
 Frc consts  --      0.0748                 0.0572                 0.1315
 IR Inten    --      0.3623                94.4964                10.0575

                      7                      8                      9
                      A                      A                      A
 Frequencies --    361.8612               456.6747               462.0698
 Red. masses --      2.3100                 2.9507                 2.7987
 Frc consts  --      0.1782                 0.3626                 0.3521
 IR Inten    --      1.7268                15.5297                 6.6439

                     10                     11                     12
                      A                      A                      A
 Frequencies --    539.6752               737.7480               749.5586
 Red. masses --      3.7334                 4.1123                 1.4180
 Frc consts  --      0.6407                 1.3187                 0.4694
 IR Inten    --      1.0282                 4.0059                 2.6083

                     13                     14                     15
                      A                      A                      A
 Frequencies --    898.6643               924.2490               974.2672
 Red. masses --      2.4374                 1.4720                 2.0139
 Frc consts  --      1.1598                 0.7409                 1.1263
 IR Inten    --     21.3603                 0.5305                12.6133

                     16                     17                     18
                      A                      A                      A
 Frequencies --   1022.2767              1065.9724              1145.9744
 Red. masses --      1.3061                 1.3594                 1.4896
 Frc consts  --      0.8042                 0.9101                 1.1526
 IR Inten    --      0.0512                14.0099               105.3425

                     19                     20                     21
                      A                      A                      A
 Frequencies --   1201.0906              1224.5889              1252.9081
 Red. masses --      1.7316                 3.5055                 2.3294
 Frc consts  --      1.4718                 3.0973                 2.1544
 IR Inten    --     34.8173                43.3167                72.5278

                     22                     23                     24
                      A                      A                      A
 Frequencies --   1353.8259              1405.9806              1421.5277
 Red. masses --      1.6152                 1.2616                 1.2357
 Frc consts  --      1.7442                 1.4694                 1.4712
 IR Inten    --     52.4677                 8.7966                 5.0584

                     25                     26                     27
                      A                      A                      A
 Frequencies --   1493.8309              1498.0349              1504.0536
 Red. masses --      1.0480                 1.0520                 1.0851
 Frc consts  --      1.3779                 1.3910                 1.4463
 IR Inten    --      0.0242                 0.8105                 4.2510

                     28                     29                     30
                      A                      A                      A
 Frequencies --   1515.5397              1522.2796              1755.1445
 Red. masses --      1.0596                 1.1199                 6.3748
 Frc consts  --      1.4340                 1.5291                11.5703
 IR Inten    --      9.2821                 4.3732                33.8129

                     31                     32                     33
                      A                      A                      A
 Frequencies --   3004.2711              3042.0764              3047.3056
 Red. masses --      1.0653                 1.0363                 1.0365
 Frc consts  --      5.6651                 5.6504                 5.6709
 IR Inten    --     40.8225                10.8590                25.2568

                     34                     35                     36
                      A                      A                      A
 Frequencies --   3109.0886              3116.1084              3138.5787
 Red. masses --      1.1021                 1.1012                 1.1035
 Frc consts  --      6.2766                 6.2998                 6.4048
 IR Inten    --      0.5358                59.0814                27.0194

                     37                     38                     39
                      A                      A                      A
 Frequencies --   3142.1702              3143.4966              3812.1648
 Red. masses --      1.1024                 1.1028                 1.0656
 Frc consts  --      6.4131                 6.4206                 9.1243
 IR Inten    --     12.5892                28.6300                 9.3131

 - Thermochemistry -
 -------------------
 Temperature   298.150 Kelvin.  Pressure   1.00000 Atm.
 Atom     1 has atomic number  6 and mass  12.00000

 Molecular mass:    87.06841 amu.
 Principal axes and moments of inertia in atomic units:
                           1         2         3
     Eigenvalues --   386.14328 613.23442 623.77268
           X            0.99985  -0.00000  -0.01741
           Y            0.00000   1.00000  -0.00002
           Z            0.01741   0.00002   0.99985
 This molecule is an asymmetric top.
 Rotational symmetry number  1.
 Rotational temperatures (Kelvin)      0.22430     0.14124     0.13885
 Rotational constants (GHZ):           4.67376     2.94299     2.89327
 Zero-point vibrational energy     338159.2 (Joules/Mol)
                                   80.82198 (Kcal/Mol)
 Warning -- explicit consideration of  10 degrees of freedom as
           vibrations may cause significant error
 Vibrational temperatures:     81.12   362.25   400.99   413.55   427.55
          (Kelvin)            462.26   520.64   657.05   664.81   776.47
                             1061.45  1078.45  1292.98  1329.79  1401.75
                             1470.83  1533.69  1648.80  1728.10  1761.91
                             1802.65  1947.85  2022.89  2045.26  2149.29
                             2155.34  2163.99  2180.52  2190.22  2525.26
                             4322.47  4376.86  4384.39  4473.28  4483.38
                             4515.71  4520.88  4522.78  5484.85

 Zero-point correction=                           0.128798 (Hartree/Particle)
 Thermal correction to Energy=                    0.136208
 Thermal correction to Enthalpy=                  0.137152
 Thermal correction to Gibbs Free Energy=         0.097999
 Sum of electronic and zero-point Energies=           -287.670415
 Sum of electronic and thermal Energies=              -287.663004
 Sum of electronic and thermal Enthalpies=            -287.662060
 Sum of electronic and thermal Free Energies=         -287.701213

                     E (Thermal)             CV                S
                      KCal/Mol        Cal/Mol-Kelvin    Cal/Mol-Kelvin
 Total                   85.472             26.880             82.405
 Electronic               0.000              0.000              0.000
 Translational            0.889              2.981             39.305
 Rotational               0.889              2.981             26.493
 Vibrational             83.695             20.918             16.607
 Vibration     1          0.596              1.975              4.580
 Vibration     2          0.664              1.760              1.718
 Vibration     3          0.679              1.713              1.542
 Vibration     4          0.685              1.697              1.489
 Vibration     5          0.691              1.679              1.433
 Vibration     6          0.707              1.633              1.304
 Vibration     7          0.736              1.551              1.114
 Vibration     8          0.815              1.346              0.776
 Vibration     9          0.820              1.334              0.760
 Vibration    10          0.895              1.162              0.566

 Optimization completed.
    -- Stationary point found.
 Normal termination of Gaussian 09 at Thu Sep  8 15:25:22 2022.
