 Gaussian 09, Revision E.01,
 Gaussian 09:  ES64L-G09RevE.01 30-Nov-2015

 ----------------------------
 #P OPT Freq B3LYP/6-31G(d,p)
 ----------------------------

 --------
 Frag_729
 --------
 Symbolic Z-matrix:
 Charge =  0 Multiplicity = 1

 SCF Done:  E(RB3LYP) =  -303.849159294     A.U. after   14 cycles
 SCF Done:  E(RB3LYP) =  -303.849213327     A.U. after   10 cycles
 SCF Done:  E(RB3LYP) =  -303.849214588     A.U. after    9 cycles
 SCF Done:  E(RB3LYP) =  -303.849217030     A.U. after    8 cycles
 SCF Done:  E(RB3LYP) =  -303.849217225     A.U. after    7 cycles
 Optimization completed.
    -- Stationary point found.
 Normal termination of Gaussian 09 at Thu Sep  8 15:07:28 2022.

 ----------------------------------------------------------------------
 #P Geom=AllCheck Guess=TCheck SCRF=Check GenChk RB3LYP/6-31G(d,p) Freq
 ----------------------------------------------------------------------

 Structure from the checkpoint file:  "B3LYP6-31Gdp.Frag_729.chk"
 --------
 Frag_729
 --------
 Charge =  0 Multiplicity = 1

                         Standard orientation:
 ---------------------------------------------------------------------
 Center     Atomic      Atomic             Coordinates (Angstroms)
 Number     Number       Type             X           Y           Z
 ---------------------------------------------------------------------
      1          6           0       -0.999179   -0.743091    1.112715
      2          6           0       -0.338289    0.019524   -0.043773
      3          7           0       -0.195673    1.416656    0.314110
      4          8           0       -1.061289   -0.200692   -1.263479
      5          6           0        1.048412   -0.570290   -0.327722
      6          7           0        2.159801   -0.108999    0.070630
      7          1           0       -2.021363   -0.375791    1.275416
      8          1           0       -1.056419   -1.808404    0.877608
      9          1           0       -0.435556   -0.611881    2.039267
     10          1           0        0.031928    1.956289   -0.517565
     11          1           0       -1.057307    1.789538    0.703324
     12          1           0       -1.992063    0.002968   -1.095433
     13          1           0        1.028646   -1.490123   -0.920267
     14          1           0        1.977889    0.752481    0.604986
 ---------------------------------------------------------------------

 SCF Done:  E(RB3LYP) =  -303.849217225     A.U. after    1 cycles

 The electronic state is 1-A.
 Alpha  occ. eigenvalues --  -19.15278 -14.33299 -14.31281 -10.27833 -10.22150
 Alpha  occ. eigenvalues --  -10.19392  -1.03491  -0.90865  -0.87412  -0.74757
 Alpha  occ. eigenvalues --   -0.65796  -0.56826  -0.52283  -0.50490  -0.47314
 Alpha  occ. eigenvalues --   -0.44382  -0.41240  -0.39543  -0.39040  -0.36037
 Alpha  occ. eigenvalues --   -0.31486  -0.30087  -0.26099  -0.25130
 Alpha virt. eigenvalues --    0.00172   0.05705   0.09673   0.13454   0.13551
 Alpha virt. eigenvalues --    0.14461   0.16337   0.17547   0.18044   0.21596
 Alpha virt. eigenvalues --    0.24368   0.25054   0.29506   0.38797   0.52177

 Mulliken charges:
               1
     1  C   -0.321306
     2  C    0.299600
     3  N   -0.594551
     4  O   -0.539437
     5  C    0.146608
     6  N   -0.474904
     7  H    0.091566
     8  H    0.127544
     9  H    0.131053
    10  H    0.253110
    11  H    0.237026
    12  H    0.294277
    13  H    0.108191
    14  H    0.241225
 Sum of Mulliken charges =  -0.00000

 Dipole moment (field-independent basis, Debye):
    X=             -3.9570    Y=              1.2376    Z=              0.8857  Tot=              4.2396
 Quadrupole moment (field-independent basis, Debye-Ang):
   XX=            -39.4913   YY=            -33.5823   ZZ=            -38.5667
   XY=             -0.3487   XZ=             -0.5526   YZ=             -1.3435

  Exact polarizability:  56.609   1.879  46.375   0.972   3.744  41.290
 Approx polarizability:  81.835   5.540  63.756   4.956   8.330  59.071

                      1                      2                      3
                      A                      A                      A
 Frequencies --    131.6751               244.5554               290.9547
 Red. masses --      2.8804                 1.0886                 1.3275
 Frc consts  --      0.0294                 0.0384                 0.0662
 IR Inten    --      1.0081                 1.6146                36.3759

                      4                      5                      6
                      A                      A                      A
 Frequencies --    299.9155               304.6444               351.2802
 Red. masses --      1.7794                 2.1879                 1.2272
 Frc consts  --      0.0943                 0.1196                 0.0892
 IR Inten    --     33.4347                17.1567                46.4327

                      7                      8                      9
                      A                      A                      A
 Frequencies --    384.3460               458.3384               479.3140
 Red. masses --      2.6484                 3.0247                 2.8390
 Frc consts  --      0.2305                 0.3744                 0.3843
 IR Inten    --      5.1431                11.6473                54.6651

                     10                     11                     12
                      A                      A                      A
 Frequencies --    610.0718               784.7276               837.0907
 Red. masses --      2.9821                 4.0470                 1.6780
 Frc consts  --      0.6539                 1.4683                 0.6928
 IR Inten    --     29.7296                21.1475                49.7654

                     13                     14                     15
                      A                      A                      A
 Frequencies --    840.8241               923.9263               975.4062
 Red. masses --      1.9589                 2.3624                 1.7133
 Frc consts  --      0.8160                 1.1882                 0.9604
 IR Inten    --     32.5592                84.1919                 2.4333

                     16                     17                     18
                      A                      A                      A
 Frequencies --   1027.0450              1120.1195              1173.9519
 Red. masses --      1.5939                 1.7751                 1.0759
 Frc consts  --      0.9906                 1.3122                 0.8736
 IR Inten    --      6.2017               144.2187                57.4714

                     19                     20                     21
                      A                      A                      A
 Frequencies --   1211.3108              1250.2049              1288.9220
 Red. masses --      1.6353                 1.4356                 1.9814
 Frc consts  --      1.4137                 1.3221                 1.9395
 IR Inten    --     50.2263                57.4212                54.0956

                     22                     23                     24
                      A                      A                      A
 Frequencies --   1391.4657              1416.3784              1429.8464
 Red. masses --      1.6003                 1.3313                 1.3457
 Frc consts  --      1.8256                 1.5735                 1.6210
 IR Inten    --     26.0450                12.4497                27.0839

                     25                     26                     27
                      A                      A                      A
 Frequencies --   1501.4386              1510.6591              1663.0414
 Red. masses --      1.0465                 1.0836                 1.1237
 Frc consts  --      1.3899                 1.4570                 1.8311
 IR Inten    --      2.4824                 5.4789                32.8598

                     28                     29                     30
                      A                      A                      A
 Frequencies --   1747.7120              3032.4185              3112.7686
 Red. masses --      7.8857                 1.0457                 1.0897
 Frc consts  --     14.1915                 5.6656                 6.2207
 IR Inten    --     39.6479                24.1183                23.2148

                     31                     32                     33
                      A                      A                      A
 Frequencies --   3116.8337              3153.2180              3383.0131
 Red. masses --      1.0896                 1.1044                 1.0716
 Frc consts  --      6.2365                 6.4695                 7.2260
 IR Inten    --     20.5860                12.7274                 2.2829

                     34                     35                     36
                      A                      A                      A
 Frequencies --   3501.7558              3592.6947              3792.2886
 Red. masses --      1.0487                 1.0942                 1.0662
 Frc consts  --      7.5763                 8.3212                 9.0342
 IR Inten    --      0.8518                 2.2995                 7.3546

 - Thermochemistry -
 -------------------
 Temperature   298.150 Kelvin.  Pressure   1.00000 Atm.
 Atom     1 has atomic number  6 and mass  12.00000

 Molecular mass:    88.06366 amu.
 Principal axes and moments of inertia in atomic units:
                           1         2         3
     Eigenvalues --   378.16698 634.34581 643.50010
           X            0.99918  -0.01453  -0.03786
           Y           -0.01366   0.75837  -0.65168
           Z            0.03819   0.65166   0.75755
 This molecule is an asymmetric top.
 Rotational symmetry number  1.
 Rotational temperatures (Kelvin)      0.22904     0.13654     0.13460
 Rotational constants (GHZ):           4.77234     2.84504     2.80457
 Zero-point vibrational energy     313027.8 (Joules/Mol)
                                   74.81543 (Kcal/Mol)
 Warning -- explicit consideration of  10 degrees of freedom as
           vibrations may cause significant error
 Vibrational temperatures:    189.45   351.86   418.62   431.51   438.31
          (Kelvin)            505.41   552.99   659.45   689.63   877.76
                             1129.05  1204.39  1209.76  1329.32  1403.39
                             1477.69  1611.60  1689.05  1742.80  1798.76
                             1854.47  2002.01  2037.85  2057.23  2160.23
                             2173.50  2392.74  2514.56  4362.97  4478.57
                             4484.42  4536.77  4867.40  5038.24  5169.08
                             5456.25

 Zero-point correction=                           0.119226 (Hartree/Particle)
 Thermal correction to Energy=                    0.126290
 Thermal correction to Enthalpy=                  0.127235
 Thermal correction to Gibbs Free Energy=         0.089166
 Sum of electronic and zero-point Energies=           -303.729991
 Sum of electronic and thermal Energies=              -303.722927
 Sum of electronic and thermal Enthalpies=            -303.721983
 Sum of electronic and thermal Free Energies=         -303.760051

                     E (Thermal)             CV                S
                      KCal/Mol        Cal/Mol-Kelvin    Cal/Mol-Kelvin
 Total                   79.248             26.020             80.121
 Electronic               0.000              0.000              0.000
 Translational            0.889              2.981             39.339
 Rotational               0.889              2.981             26.537
 Vibrational             77.471             20.059             14.245
 Vibration     1          0.612              1.922              2.921
 Vibration     2          0.660              1.772              1.769
 Vibration     3          0.687              1.691              1.468
 Vibration     4          0.692              1.674              1.417
 Vibration     5          0.696              1.665              1.391
 Vibration     6          0.728              1.573              1.160
 Vibration     7          0.753              1.504              1.022
 Vibration     8          0.816              1.342              0.771
 Vibration     9          0.836              1.296              0.712
 Vibration    10          0.969              1.011              0.433

 Normal termination of Gaussian 09 at Thu Sep  8 15:07:40 2022.
