 Gaussian 09, Revision E.01,
 Gaussian 09:  ES64L-G09RevE.01 30-Nov-2015

 ----------------------------
 #P OPT Freq B3LYP/6-31G(d,p)
 ----------------------------

 --------
 Frag_801
 --------
 Symbolic Z-matrix:
 Charge =  0 Multiplicity = 1

 SCF Done:  E(RB3LYP) =  -268.347033042     A.U. after   13 cycles
 SCF Done:  E(RB3LYP) =  -268.347101278     A.U. after   10 cycles
 SCF Done:  E(RB3LYP) =  -268.347106604     A.U. after    8 cycles
 SCF Done:  E(RB3LYP) =  -268.347107753     A.U. after    8 cycles
 SCF Done:  E(RB3LYP) =  -268.347108117     A.U. after    8 cycles
 SCF Done:  E(RB3LYP) =  -268.347108408     A.U. after    8 cycles
 SCF Done:  E(RB3LYP) =  -268.347108687     A.U. after    7 cycles
 SCF Done:  E(RB3LYP) =  -268.347108874     A.U. after    7 cycles
 Optimization completed.
    -- Stationary point found.
 Normal termination of Gaussian 09 at Thu Sep  8 15:24:17 2022.

 ----------------------------------------------------------------------
 #P Geom=AllCheck Guess=TCheck SCRF=Check GenChk RB3LYP/6-31G(d,p) Freq
 ----------------------------------------------------------------------

 Structure from the checkpoint file:  "B3LYP6-31Gdp.Frag_801.chk"
 --------
 Frag_801
 --------
 Charge =  0 Multiplicity = 1

                         Standard orientation:
 ---------------------------------------------------------------------
 Center     Atomic      Atomic             Coordinates (Angstroms)
 Number     Number       Type             X           Y           Z
 ---------------------------------------------------------------------
      1          6           0        1.936895   -0.022079   -0.146631
      2          6           0        0.813662   -0.662845    0.174116
      3          6           0       -0.525845    0.006080    0.391919
      4          8           0       -1.554590   -0.750767   -0.221468
      5          8           0       -0.532905    1.360713    0.008531
      6          1           0        2.869604   -0.553568   -0.307156
      7          1           0        1.960480    1.059903   -0.237322
      8          1           0        0.806761   -1.744371    0.300000
      9          1           0       -0.784088    0.017034    1.456320
     10          1           0       -1.257864   -0.993223   -1.110411
     11          1           0       -0.243205    1.407721   -0.914355
 ---------------------------------------------------------------------

 SCF Done:  E(RB3LYP) =  -268.347108874     A.U. after    1 cycles

 The electronic state is 1-A.
 Alpha  occ. eigenvalues --  -19.15306 -19.15209 -10.28739 -10.19862 -10.19570
 Alpha  occ. eigenvalues --   -1.05949  -0.99578  -0.78229  -0.67759  -0.58498
 Alpha  occ. eigenvalues --   -0.52713  -0.49993  -0.46379  -0.44614  -0.38831
 Alpha  occ. eigenvalues --   -0.36284  -0.35026  -0.29707  -0.28545  -0.27456
 Alpha virt. eigenvalues --   -0.00456   0.07462   0.10572   0.11932   0.14958
 Alpha virt. eigenvalues --    0.15847   0.18889   0.22580   0.25461   0.30115
 Alpha virt. eigenvalues --    0.34804   0.51218   0.53507   0.56397   0.56887

 Mulliken charges:
               1
     1  C   -0.235140
     2  C   -0.100775
     3  C    0.342811
     4  O   -0.521245
     5  O   -0.513965
     6  H    0.107163
     7  H    0.109342
     8  H    0.101457
     9  H    0.125786
    10  H    0.294576
    11  H    0.289991
 Sum of Mulliken charges =  -0.00000

 Dipole moment (field-independent basis, Debye):
    X=              1.8975    Y=             -0.8436    Z=             -1.7297  Tot=              2.7026
 Quadrupole moment (field-independent basis, Debye-Ang):
   XX=            -32.7947   YY=            -30.7464   ZZ=            -26.6421
   XY=              0.2064   XZ=              0.4352   YZ=             -0.9970

  Exact polarizability:  47.654   4.179  38.010  -4.040  -1.676  29.148
 Approx polarizability:  67.395  10.903  54.555  -8.103  -3.133  41.834

                      1                      2                      3
                      A                      A                      A
 Frequencies --    112.2344               254.7343               290.5998
 Red. masses --      2.3986                 1.1681                 3.2387
 Frc consts  --      0.0178                 0.0447                 0.1611
 IR Inten    --      2.3736                44.9873                 0.9791

                      4                      5                      6
                      A                      A                      A
 Frequencies --    382.6314               458.6877               524.1416
 Red. masses --      1.4046                 1.4492                 4.1178
 Frc consts  --      0.1212                 0.1796                 0.6665
 IR Inten    --     53.3644                92.6388                46.6543

                      7                      8                      9
                      A                      A                      A
 Frequencies --    581.2568               717.6913               888.0366
 Red. masses --      2.3416                 2.2329                 2.6766
 Frc consts  --      0.4661                 0.6776                 1.2437
 IR Inten    --     16.2300                13.6619                34.3011

                     10                     11                     12
                      A                      A                      A
 Frequencies --    970.2315              1011.2453              1043.9125
 Red. masses --      1.3718                 1.8485                 1.2045
 Frc consts  --      0.7608                 1.1137                 0.7734
 IR Inten    --     22.5667                65.1734                56.3347

                     13                     14                     15
                      A                      A                      A
 Frequencies --   1067.3878              1132.4100              1222.6926
 Red. masses --      3.1035                 1.8921                 1.2695
 Frc consts  --      2.0833                 1.4295                 1.1182
 IR Inten    --    106.8149               166.4642                22.7840

                     16                     17                     18
                      A                      A                      A
 Frequencies --   1294.8364              1315.8406              1421.2770
 Red. masses --      1.5469                 1.2825                 1.1363
 Frc consts  --      1.5281                 1.3084                 1.3523
 IR Inten    --      3.6009                 1.0440                36.1769

                     19                     20                     21
                      A                      A                      A
 Frequencies --   1437.1417              1455.0503              1722.5652
 Red. masses --      1.2190                 1.3189                 4.7605
 Frc consts  --      1.4834                 1.6452                 8.3224
 IR Inten    --     35.8873                53.6116                 0.5564

                     22                     23                     24
                      A                      A                      A
 Frequencies --   3082.6353              3158.2365              3171.5777
 Red. masses --      1.0856                 1.0611                 1.0898
 Frc consts  --      6.0779                 6.2360                 6.4589
 IR Inten    --     25.4256                 8.6173                 6.0206

                     25                     26                     27
                      A                      A                      A
 Frequencies --   3249.4412              3782.4445              3785.9100
 Red. masses --      1.1164                 1.0655                 1.0662
 Frc consts  --      6.9455                 8.9815                 9.0039
 IR Inten    --      9.1242                 8.2513                10.0344

 - Thermochemistry -
 -------------------
 Temperature   298.150 Kelvin.  Pressure   1.00000 Atm.
 Atom     1 has atomic number  6 and mass  12.00000

 Molecular mass:    74.03678 amu.
 Principal axes and moments of inertia in atomic units:
                           1         2         3
     Eigenvalues --   211.06147 436.12661 592.26305
           X            0.99998  -0.00109  -0.00614
           Y            0.00099   0.99985  -0.01712
           Z            0.00616   0.01711   0.99983
 This molecule is an asymmetric top.
 Rotational symmetry number  1.
 Rotational temperatures (Kelvin)      0.41037     0.19860     0.14624
 Rotational constants (GHZ):           8.55078     4.13811     3.04720
 Zero-point vibrational energy     236470.9 (Joules/Mol)
                                   56.51791 (Kcal/Mol)
 Warning -- explicit consideration of   7 degrees of freedom as
           vibrations may cause significant error
 Vibrational temperatures:    161.48   366.51   418.11   550.52   659.95
          (Kelvin)            754.12   836.30  1032.60  1277.69  1395.94
                             1454.95  1501.96  1535.73  1629.28  1759.18
                             1862.98  1893.20  2044.90  2067.72  2093.49
                             2478.38  4435.22  4543.99  4563.19  4675.22
                             5442.09  5447.07

 Zero-point correction=                           0.090067 (Hartree/Particle)
 Thermal correction to Energy=                    0.095862
 Thermal correction to Enthalpy=                  0.096806
 Thermal correction to Gibbs Free Energy=         0.061372
 Sum of electronic and zero-point Energies=           -268.257042
 Sum of electronic and thermal Energies=              -268.251247
 Sum of electronic and thermal Enthalpies=            -268.250303
 Sum of electronic and thermal Free Energies=         -268.285737

                     E (Thermal)             CV                S
                      KCal/Mol        Cal/Mol-Kelvin    Cal/Mol-Kelvin
 Total                   60.154             20.242             74.578
 Electronic               0.000              0.000              0.000
 Translational            0.889              2.981             38.822
 Rotational               0.889              2.981             25.503
 Vibrational             58.377             14.280             10.253
 Vibration     1          0.607              1.939              3.230
 Vibration     2          0.665              1.755              1.698
 Vibration     3          0.687              1.691              1.470
 Vibration     4          0.752              1.507              1.029
 Vibration     5          0.817              1.342              0.770
 Vibration     6          0.879              1.197              0.600
 Vibration     7          0.938              1.072              0.483

 Normal termination of Gaussian 09 at Thu Sep  8 15:24:25 2022.
