 Gaussian 09, Revision E.01,
 Gaussian 09:  ES64L-G09RevE.01 30-Nov-2015

 ----------------------------
 #P OPT Freq B3LYP/6-31G(d,p)
 ----------------------------

 --------
 Frag_841
 --------
 Symbolic Z-matrix:
 Charge =  0 Multiplicity = 1

 SCF Done:  E(RB3LYP) =  -364.263686353     A.U. after   13 cycles
 SCF Done:  E(RB3LYP) =  -364.263739080     A.U. after    8 cycles
 SCF Done:  E(RB3LYP) =  -364.263744016     A.U. after    7 cycles
 SCF Done:  E(RB3LYP) =  -364.263744473     A.U. after    8 cycles
 SCF Done:  E(RB3LYP) =  -364.263745538     A.U. after    7 cycles
 SCF Done:  E(RB3LYP) =  -364.263745666     A.U. after    7 cycles
 Optimization completed.
    -- Stationary point found.
 Normal termination of Gaussian 09 at Thu Sep  8 15:09:30 2022.

 ----------------------------------------------------------------------
 #P Geom=AllCheck Guess=TCheck SCRF=Check GenChk RB3LYP/6-31G(d,p) Freq
 ----------------------------------------------------------------------

 Structure from the checkpoint file:  "B3LYP6-31Gdp.Frag_841.chk"
 --------
 Frag_841
 --------
 Charge =  0 Multiplicity = 1

                         Standard orientation:
 ---------------------------------------------------------------------
 Center     Atomic      Atomic             Coordinates (Angstroms)
 Number     Number       Type             X           Y           Z
 ---------------------------------------------------------------------
      1          6           0       -1.700409   -1.134485    0.019270
      2          6           0       -0.864417    0.062629   -0.432980
      3          7           0       -1.503514    1.308383   -0.009065
      4          6           0        0.633648   -0.037728   -0.028986
      5          6           0        0.891895   -0.094396    1.473614
      6          8           0        1.329613    1.117581   -0.492452
      7          8           0        1.129106   -1.190483   -0.688112
      8          1           0       -2.707629   -1.059761   -0.398829
      9          1           0       -1.245298   -2.071536   -0.307061
     10          1           0       -1.796191   -1.161886    1.111358
     11          1           0       -0.849634    0.061645   -1.534044
     12          1           0       -1.680537    1.281822    0.993374
     13          1           0       -0.857917    2.079768   -0.166926
     14          1           0        0.475157   -1.008443    1.901250
     15          1           0        1.970365   -0.075138    1.659598
     16          1           0        0.455104    0.770479    1.979335
     17          1           0        1.261660    1.101885   -1.459095
     18          1           0        2.065457   -1.270421   -0.456503
 ---------------------------------------------------------------------

 SCF Done:  E(RB3LYP) =  -364.263745666     A.U. after    1 cycles

 The electronic state is 1-A.
 Alpha  occ. eigenvalues --  -19.15189 -19.15114 -14.30597 -10.28371 -10.20964
 Alpha  occ. eigenvalues --  -10.18043 -10.17005  -1.06209  -0.99105  -0.87886
 Alpha  occ. eigenvalues --   -0.75187  -0.72054  -0.64328  -0.56866  -0.54157
 Alpha  occ. eigenvalues --   -0.48433  -0.47556  -0.44664  -0.42618  -0.41258
 Alpha  occ. eigenvalues --   -0.39352  -0.38821  -0.37186  -0.36213  -0.33980
 Alpha  occ. eigenvalues --   -0.32575  -0.30523  -0.27530  -0.23101
 Alpha virt. eigenvalues --    0.06664   0.08920   0.09988   0.12492   0.13688
 Alpha virt. eigenvalues --    0.15450   0.15997   0.17621   0.19131   0.19309
 Alpha virt. eigenvalues --    0.20686   0.22644   0.24744   0.25155   0.26371

 Mulliken charges:
               1
     1  C   -0.321015
     2  C    0.047138
     3  N   -0.589395
     4  C    0.443166
     5  C   -0.323106
     6  O   -0.546309
     7  O   -0.540138
     8  H    0.116852
     9  H    0.126061
    10  H    0.091868
    11  H    0.089996
    12  H    0.230057
    13  H    0.239643
    14  H    0.118070
    15  H    0.107019
    16  H    0.105723
    17  H    0.301577
    18  H    0.302794
 Sum of Mulliken charges =  -0.00000

 Dipole moment (field-independent basis, Debye):
    X=              1.3791    Y=             -0.3638    Z=              0.6793  Tot=              1.5797
 Quadrupole moment (field-independent basis, Debye-Ang):
   XX=            -44.7150   YY=            -45.5052   ZZ=            -40.5576
   XY=             -0.3955   XZ=             -2.4427   YZ=             -1.1548

  Exact polarizability:  59.556  -0.283  56.545  -0.479  -0.011  55.591
 Approx polarizability:  77.480  -0.899  79.381  -1.953   1.033  78.369

                      1                      2                      3
                      A                      A                      A
 Frequencies --    100.8290               208.4407               245.3920
 Red. masses --      3.0722                 1.0728                 1.7500
 Frc consts  --      0.0184                 0.0275                 0.0621
 IR Inten    --      0.6345                 1.5140                 2.9441

                      4                      5                      6
                      A                      A                      A
 Frequencies --    252.6379               269.4149               320.5233
 Red. masses --      1.5532                 2.6854                 1.0746
 Frc consts  --      0.0584                 0.1148                 0.0650
 IR Inten    --      0.5565                 2.1744                35.8682

                      7                      8                      9
                      A                      A                      A
 Frequencies --    336.9960               349.2401               376.4980
 Red. masses --      1.3279                 2.0382                 2.7156
 Frc consts  --      0.0889                 0.1465                 0.2268
 IR Inten    --    106.7505                15.3870                 7.0986

                     10                     11                     12
                      A                      A                      A
 Frequencies --    417.8467               483.4793               508.6529
 Red. masses --      1.5447                 2.5909                 2.0840
 Frc consts  --      0.1589                 0.3568                 0.3177
 IR Inten    --     29.5517                10.8325                70.7734

                     13                     14                     15
                      A                      A                      A
 Frequencies --    515.7706               603.6380               728.2964
 Red. masses --      3.5456                 2.8574                 3.1656
 Frc consts  --      0.5557                 0.6134                 0.9893
 IR Inten    --      5.6433                27.9369                22.3857

                     16                     17                     18
                      A                      A                      A
 Frequencies --    898.1530               912.6314               940.9771
 Red. masses --      2.0904                 1.6200                 2.0610
 Frc consts  --      0.9935                 0.7950                 1.0752
 IR Inten    --    136.9624                34.9253                82.5043

                     19                     20                     21
                      A                      A                      A
 Frequencies --    946.1205              1020.4126              1038.3375
 Red. masses --      1.6997                 1.3989                 1.7504
 Frc consts  --      0.8964                 0.8582                 1.1119
 IR Inten    --     31.1475                 6.5526                43.0544

                     22                     23                     24
                      A                      A                      A
 Frequencies --   1103.8845              1126.8587              1162.4050
 Red. masses --      1.5090                 1.9861                 2.2539
 Frc consts  --      1.0834                 1.4859                 1.7943
 IR Inten    --     50.2580               127.3729                36.9966

                     25                     26                     27
                      A                      A                      A
 Frequencies --   1193.3449              1283.5399              1305.4286
 Red. masses --      2.7107                 1.6208                 1.3237
 Frc consts  --      2.2744                 1.5733                 1.3291
 IR Inten    --     69.0525                 2.2278                14.2650

                     28                     29                     30
                      A                      A                      A
 Frequencies --   1379.9857              1390.9947              1403.8071
 Red. masses --      1.5523                 1.2810                 1.3945
 Frc consts  --      1.7417                 1.4604                 1.6192
 IR Inten    --     25.9129                 5.7628                11.4229

                     31                     32                     33
                      A                      A                      A
 Frequencies --   1424.2391              1451.0296              1496.1759
 Red. masses --      1.3653                 1.6969                 1.0529
 Frc consts  --      1.6318                 2.1051                 1.3887
 IR Inten    --     10.8584                55.7751                 4.7914

                     34                     35                     36
                      A                      A                      A
 Frequencies --   1508.6809              1513.2908              1516.8395
 Red. masses --      1.0568                 1.0527                 1.0556
 Frc consts  --      1.4172                 1.4203                 1.4309
 IR Inten    --      2.9411                 4.0015                 0.4824

                     37                     38                     39
                      A                      A                      A
 Frequencies --   1674.3246              3000.8779              3046.8774
 Red. masses --      1.0931                 1.0840                 1.0415
 Frc consts  --      1.8055                 5.7514                 5.6964
 IR Inten    --     24.2042                35.4836                22.9325

                     40                     41                     42
                      A                      A                      A
 Frequencies --   3060.0855              3117.4811              3129.7499
 Red. masses --      1.0368                 1.0956                 1.1006
 Frc consts  --      5.7203                 6.2734                 6.3518
 IR Inten    --     11.6302                32.1242                20.5404

                     43                     44                     45
                      A                      A                      A
 Frequencies --   3153.3475              3153.9248              3479.8757
 Red. masses --      1.1033                 1.1025                 1.0489
 Frc consts  --      6.4636                 6.4617                 7.4833
 IR Inten    --     14.8805                14.5602                 1.8682

                     46                     47                     48
                      A                      A                      A
 Frequencies --   3567.5230              3777.8967              3791.4587
 Red. masses --      1.0922                 1.0653                 1.0658
 Frc consts  --      8.1897                 8.9586                 9.0267
 IR Inten    --      1.3258                13.8873                12.5286

 - Thermochemistry -
 -------------------
 Temperature   298.150 Kelvin.  Pressure   1.00000 Atm.
 Atom     1 has atomic number  6 and mass  12.00000

 Molecular mass:   105.07898 amu.
 Principal axes and moments of inertia in atomic units:
                           1         2         3
     Eigenvalues --   559.72031 794.12701 944.95817
           X            0.99941   0.03192   0.01278
           Y           -0.03163   0.99925  -0.02252
           Z           -0.01349   0.02211   0.99966
 This molecule is an asymmetric top.
 Rotational symmetry number  1.
 Warning -- assumption of classical behavior for rotation
           may cause significant error
 Rotational temperatures (Kelvin)      0.15474     0.10907     0.09166
 Rotational constants (GHZ):           3.22436     2.27261     1.90986
 Zero-point vibrational energy     416828.1 (Joules/Mol)
                                   99.62431 (Kcal/Mol)
 Warning -- explicit consideration of  14 degrees of freedom as
           vibrations may cause significant error
 Vibrational temperatures:    145.07   299.90   353.06   363.49   387.63
          (Kelvin)            461.16   484.86   502.48   541.70   601.19
                              695.62   731.84   742.08   868.50  1047.85
                             1292.24  1313.07  1353.85  1361.25  1468.14
                             1493.93  1588.24  1621.30  1672.44  1716.96
                             1846.73  1878.22  1985.49  2001.33  2019.76
                             2049.16  2087.71  2152.66  2170.65  2177.29
                             2182.39  2408.98  4317.59  4383.77  4402.77
                             4485.35  4503.01  4536.96  4537.79  5006.76
                             5132.86  5435.54  5455.06

 Zero-point correction=                           0.158761 (Hartree/Particle)
 Thermal correction to Energy=                    0.167423
 Thermal correction to Enthalpy=                  0.168367
 Thermal correction to Gibbs Free Energy=         0.126852
 Sum of electronic and zero-point Energies=           -364.104984
 Sum of electronic and thermal Energies=              -364.096323
 Sum of electronic and thermal Enthalpies=            -364.095379
 Sum of electronic and thermal Free Energies=         -364.136894

                     E (Thermal)             CV                S
                      KCal/Mol        Cal/Mol-Kelvin    Cal/Mol-Kelvin
 Total                  105.059             32.979             87.376
 Electronic               0.000              0.000              0.000
 Translational            0.889              2.981             39.866
 Rotational               0.889              2.981             27.532
 Vibrational            103.282             27.017             19.978
 Vibration     1          0.604              1.948              3.438
 Vibration     2          0.642              1.828              2.057
 Vibration     3          0.660              1.770              1.763
 Vibration     4          0.664              1.758              1.712
 Vibration     5          0.674              1.729              1.600
 Vibration     6          0.706              1.634              1.307
 Vibration     7          0.718              1.602              1.226
 Vibration     8          0.727              1.577              1.170
 Vibration     9          0.747              1.520              1.053
 Vibration    10          0.781              1.431              0.899
 Vibration    11          0.840              1.287              0.701
 Vibration    12          0.864              1.231              0.637
 Vibration    13          0.871              1.215              0.620
 Vibration    14          0.962              1.024              0.443

 Optimization completed.
    -- Stationary point found.
 Normal termination of Gaussian 09 at Thu Sep  8 15:09:48 2022.
