 Gaussian 09, Revision E.01,
 Gaussian 09:  ES64L-G09RevE.01 30-Nov-2015

 ----------------------------
 #P OPT Freq B3LYP/6-31G(d,p)
 ----------------------------

 ---------
 Frag_1010
 ---------
 Symbolic Z-matrix:
 Charge =  0 Multiplicity = 1

 SCF Done:  E(RB3LYP) =  -304.983008970     A.U. after   14 cycles
 SCF Done:  E(RB3LYP) =  -304.983011303     A.U. after   11 cycles
 SCF Done:  E(RB3LYP) =  -304.983038219     A.U. after   11 cycles
 SCF Done:  E(RB3LYP) =  -304.983070950     A.U. after    9 cycles
 SCF Done:  E(RB3LYP) =  -304.983071834     A.U. after    7 cycles
 Optimization completed.
    -- Stationary point found.
 Normal termination of Gaussian 09 at Thu Sep  8 14:50:48 2022.

 ----------------------------------------------------------------------
 #P Geom=AllCheck Guess=TCheck SCRF=Check GenChk RB3LYP/6-31G(d,p) Freq
 ----------------------------------------------------------------------

 Structure from the checkpoint file:  "B3LYP6-31Gdp.Frag_1010.chk"
 ---------
 Frag_1010
 ---------
 Charge =  0 Multiplicity = 1

                         Standard orientation:
 ---------------------------------------------------------------------
 Center     Atomic      Atomic             Coordinates (Angstroms)
 Number     Number       Type             X           Y           Z
 ---------------------------------------------------------------------
      1          6           0       -0.552234    1.408409   -0.446344
      2          7           0       -0.394322    0.002875    0.068779
      3          6           0       -1.605045   -0.803593   -0.283817
      4          8           0       -0.242110    0.019786    1.423042
      5          6           0        0.837276   -0.650448   -0.551972
      6          7           0        1.977202    0.072160   -0.049021
      7          1           0       -1.369199    1.847768    0.123336
      8          1           0       -0.767474    1.415458   -1.519660
      9          1           0        0.381394    1.925121   -0.238380
     10          1           0       -1.735052   -0.881432   -1.368516
     11          1           0       -1.473261   -1.784674    0.169929
     12          1           0       -2.459061   -0.308070    0.176059
     13          1           0        0.775477   -0.590553   -1.645535
     14          1           0        0.759084   -1.701015   -0.236705
     15          1           0        1.830609    0.099693    0.964344
     16          1           0        2.834216   -0.432035   -0.254715
 ---------------------------------------------------------------------

 SCF Done:  E(RB3LYP) =  -304.983071834     A.U. after    1 cycles

 The electronic state is 1-A.
 Alpha  occ. eigenvalues --  -19.05196 -14.46161 -14.31216 -10.24879 -10.22215
 Alpha  occ. eigenvalues --  -10.21230  -1.04499  -0.88387  -0.81333  -0.72988
 Alpha  occ. eigenvalues --   -0.69554  -0.59467  -0.52465  -0.50269  -0.47309
 Alpha  occ. eigenvalues --   -0.45278  -0.44034  -0.41113  -0.40643  -0.38789
 Alpha  occ. eigenvalues --   -0.38293  -0.36272  -0.24434  -0.19373  -0.19006
 Alpha virt. eigenvalues --    0.06914   0.10165   0.11587   0.12595   0.13272
 Alpha virt. eigenvalues --    0.14847   0.15363   0.16747   0.17882   0.18213
 Alpha virt. eigenvalues --    0.18892   0.20796   0.21258   0.23720   0.26981

 Mulliken charges:
               1
     1  C   -0.147636
     2  N   -0.119458
     3  C   -0.141395
     4  O   -0.578844
     5  C    0.118916
     6  N   -0.615369
     7  H    0.135242
     8  H    0.095696
     9  H    0.163964
    10  H    0.099867
    11  H    0.140013
    12  H    0.138939
    13  H    0.098202
    14  H    0.099216
    15  H    0.270162
    16  H    0.242486
 Sum of Mulliken charges =  -0.00000

 Dipole moment (field-independent basis, Debye):
    X=             -0.3875    Y=             -1.1750    Z=             -3.5600  Tot=              3.7689
 Quadrupole moment (field-independent basis, Debye-Ang):
   XX=            -32.9568   YY=            -35.9888   ZZ=            -42.6733
   XY=             -2.7827   XZ=              2.1912   YZ=              0.5234

  Exact polarizability:  57.756  -0.457  48.978   1.263   0.984  51.272
 Approx polarizability:  73.398  -0.120  65.446   1.275   2.152  81.885

                      1                      2                      3
                      A                      A                      A
 Frequencies --    162.7300               236.7908               260.3022
 Red. masses --      2.0786                 1.0701                 1.2570
 Frc consts  --      0.0324                 0.0354                 0.0502
 IR Inten    --     22.0995                 1.5510                 0.7905

                      4                      5                      6
                      A                      A                      A
 Frequencies --    283.1914               313.0313               372.9214
 Red. masses --      1.3338                 1.6197                 2.6640
 Frc consts  --      0.0630                 0.0935                 0.2183
 IR Inten    --     55.7422                31.0004                 8.9907

                      7                      8                      9
                      A                      A                      A
 Frequencies --    411.5175               436.2497               491.0691
 Red. masses --      3.2582                 2.7778                 3.3860
 Frc consts  --      0.3251                 0.3115                 0.4811
 IR Inten    --      1.0636                 9.7600                15.3074

                     10                     11                     12
                      A                      A                      A
 Frequencies --    569.2718               722.2769               866.0416
 Red. masses --      3.5687                 3.3225                 2.2793
 Frc consts  --      0.6814                 1.0212                 1.0072
 IR Inten    --     32.9634                 7.8398                 0.9059

                     13                     14                     15
                      A                      A                      A
 Frequencies --    933.9551               935.4102               977.1989
 Red. masses --      1.4988                 2.1785                 2.5410
 Frc consts  --      0.7703                 1.1231                 1.4296
 IR Inten    --     76.7886                45.7961                25.0580

                     16                     17                     18
                      A                      A                      A
 Frequencies --   1060.5693              1111.8950              1116.5173
 Red. masses --      1.4780                 1.7163                 1.3998
 Frc consts  --      0.9795                 1.2502                 1.0282
 IR Inten    --     10.5751                 7.0313                 2.6595

                     19                     20                     21
                      A                      A                      A
 Frequencies --   1172.7578              1227.7769              1256.2119
 Red. masses --      1.5178                 2.1168                 1.7452
 Frc consts  --      1.2299                 1.8801                 1.6227
 IR Inten    --      7.4874                 6.9013                 3.3427

                     22                     23                     24
                      A                      A                      A
 Frequencies --   1274.4765              1351.8976              1413.9944
 Red. masses --      2.0481                 1.3280                 1.1682
 Frc consts  --      1.9600                 1.4300                 1.3762
 IR Inten    --      1.8614                 2.1351                 2.5286

                     25                     26                     27
                      A                      A                      A
 Frequencies --   1419.5566              1459.8299              1478.4255
 Red. masses --      1.2386                 1.2421                 1.0574
 Frc consts  --      1.4706                 1.5596                 1.3618
 IR Inten    --      3.9131                 8.3438                 6.4713

                     28                     29                     30
                      A                      A                      A
 Frequencies --   1487.6799              1499.4326              1515.3386
 Red. masses --      1.0499                 1.0500                 1.0519
 Frc consts  --      1.3690                 1.3909                 1.4231
 IR Inten    --      6.2056                 4.1702                15.0242

                     31                     32                     33
                      A                      A                      A
 Frequencies --   1524.3984              1607.3423              3002.3581
 Red. masses --      1.0963                 1.1005                 1.0602
 Frc consts  --      1.5010                 1.6752                 5.6309
 IR Inten    --      2.6002                91.0031                55.9729

                     34                     35                     36
                      A                      A                      A
 Frequencies --   3051.0577              3059.2093              3069.3706
 Red. masses --      1.0401                 1.0591                 1.0827
 Frc consts  --      5.7047                 5.8396                 6.0098
 IR Inten    --     15.4588                11.7697                69.4807

                     37                     38                     39
                      A                      A                      A
 Frequencies --   3160.8933              3170.6596              3192.9099
 Red. masses --      1.0955                 1.0953                 1.1067
 Frc consts  --      6.4487                 6.4877                 6.6473
 IR Inten    --      6.6412                16.5500                 7.1909

                     40                     41                     42
                      A                      A                      A
 Frequencies --   3214.4244              3431.4450              3581.9702
 Red. masses --      1.1066                 1.0553                 1.0855
 Frc consts  --      6.7370                 7.3213                 8.2061
 IR Inten    --      0.8371                33.4875                 9.2222

 - Thermochemistry -
 -------------------
 Temperature   298.150 Kelvin.  Pressure   1.00000 Atm.
 Atom     1 has atomic number  6 and mass  12.00000

 Molecular mass:    90.07931 amu.
 Principal axes and moments of inertia in atomic units:
                           1         2         3
     Eigenvalues --   360.20436 624.64817 646.18587
           X            0.99956  -0.01029   0.02764
           Y            0.01010   0.99992   0.00722
           Z           -0.02772  -0.00693   0.99959
 This molecule is an asymmetric top.
 Rotational symmetry number  1.
 Rotational temperatures (Kelvin)      0.24046     0.13866     0.13404
 Rotational constants (GHZ):           5.01033     2.88921     2.79291
 Zero-point vibrational energy     376132.0 (Joules/Mol)
                                   89.89770 (Kcal/Mol)
 Warning -- explicit consideration of  10 degrees of freedom as
           vibrations may cause significant error
 Vibrational temperatures:    234.13   340.69   374.52   407.45   450.38
          (Kelvin)            536.55   592.08   627.67   706.54   819.05
                             1039.19  1246.04  1343.75  1345.84  1405.97
                             1525.92  1599.77  1606.42  1687.33  1766.49
                             1807.41  1833.69  1945.08  2034.42  2042.42
                             2100.37  2127.12  2140.44  2157.35  2180.23
                             2193.27  2312.60  4319.72  4389.79  4401.51
                             4416.13  4547.81  4561.87  4593.88  4624.83
                             4937.08  5153.65

 Zero-point correction=                           0.143261 (Hartree/Particle)
 Thermal correction to Energy=                    0.150350
 Thermal correction to Enthalpy=                  0.151294
 Thermal correction to Gibbs Free Energy=         0.113273
 Sum of electronic and zero-point Energies=           -304.839811
 Sum of electronic and thermal Energies=              -304.832722
 Sum of electronic and thermal Enthalpies=            -304.831778
 Sum of electronic and thermal Free Energies=         -304.869799

                     E (Thermal)             CV                S
                      KCal/Mol        Cal/Mol-Kelvin    Cal/Mol-Kelvin
 Total                   94.346             26.543             80.022
 Electronic               0.000              0.000              0.000
 Translational            0.889              2.981             39.407
 Rotational               0.889              2.981             26.478
 Vibrational             92.569             20.581             14.138
 Vibration     1          0.623              1.888              2.518
 Vibration     2          0.656              1.784              1.827
 Vibration     3          0.668              1.745              1.660
 Vibration     4          0.682              1.705              1.514
 Vibration     5          0.701              1.649              1.346
 Vibration     6          0.744              1.528              1.068
 Vibration     7          0.775              1.445              0.921
 Vibration     8          0.797              1.391              0.838
 Vibration     9          0.847              1.270              0.681
 Vibration    10          0.925              1.098              0.506

 Normal termination of Gaussian 09 at Thu Sep  8 14:51:01 2022.
