 Gaussian 09, Revision E.01,
 Gaussian 09:  ES64L-G09RevE.01 30-Nov-2015

 ----------------------------
 #P OPT Freq B3LYP/6-31G(d,p)
 ----------------------------

 ---------
 Frag_1084
 ---------
 Symbolic Z-matrix:
 Charge =  0 Multiplicity = 1

 SCF Done:  E(RB3LYP) =  -305.001055498     A.U. after   13 cycles
 SCF Done:  E(RB3LYP) =  -305.001108606     A.U. after    9 cycles
 SCF Done:  E(RB3LYP) =  -305.001117653     A.U. after    8 cycles
 SCF Done:  E(RB3LYP) =  -305.001120055     A.U. after    8 cycles
 SCF Done:  E(RB3LYP) =  -305.001120549     A.U. after    7 cycles
 Optimization completed.
    -- Stationary point found.
 Normal termination of Gaussian 09 at Thu Sep  8 14:48:30 2022.

 ----------------------------------------------------------------------
 #P Geom=AllCheck Guess=TCheck SCRF=Check GenChk RB3LYP/6-31G(d,p) Freq
 ----------------------------------------------------------------------

 Structure from the checkpoint file:  "B3LYP6-31Gdp.Frag_1084.chk"
 ---------
 Frag_1084
 ---------
 Charge =  0 Multiplicity = 1

                         Standard orientation:
 ---------------------------------------------------------------------
 Center     Atomic      Atomic             Coordinates (Angstroms)
 Number     Number       Type             X           Y           Z
 ---------------------------------------------------------------------
      1          6           0       -1.743804   -0.845195   -0.382227
      2          6           0       -0.655454    0.229147   -0.412751
      3          6           0       -0.875953    1.320027    0.643658
      4          7           0        0.670061   -0.438228   -0.339722
      5          7           0        0.889241   -0.965264    0.945051
      6          8           0        1.660016    0.621965   -0.584108
      7          1           0       -2.724843   -0.390782   -0.554456
      8          1           0       -1.758571   -1.352003    0.585996
      9          1           0       -1.567851   -1.595696   -1.158100
     10          1           0       -0.650005    0.700552   -1.401211
     11          1           0       -0.055869    2.042899    0.633753
     12          1           0       -0.964299    0.892435    1.647867
     13          1           0       -1.805501    1.858533    0.434438
     14          1           0        1.699610   -1.575559    0.883527
     15          1           0        1.123828   -0.215443    1.600868
     16          1           0        2.159528    0.259912   -1.329202
 ---------------------------------------------------------------------

 SCF Done:  E(RB3LYP) =  -305.001120549     A.U. after    1 cycles

 The electronic state is 1-A.
 Alpha  occ. eigenvalues --  -19.15829 -14.39282 -14.34362 -10.20889 -10.16788
 Alpha  occ. eigenvalues --  -10.16536  -1.05309  -0.91673  -0.79917  -0.70000
 Alpha  occ. eigenvalues --   -0.67841  -0.56600  -0.51888  -0.50236  -0.45516
 Alpha  occ. eigenvalues --   -0.42893  -0.42372  -0.39138  -0.37700  -0.36953
 Alpha  occ. eigenvalues --   -0.33873  -0.33025  -0.29444  -0.25429  -0.23289
 Alpha virt. eigenvalues --    0.07479   0.08642   0.12159   0.13375   0.14700
 Alpha virt. eigenvalues --    0.15691   0.16527   0.18342   0.18866   0.19745
 Alpha virt. eigenvalues --    0.20157   0.21593   0.23526   0.26559   0.28413

 Mulliken charges:
               1
     1  C   -0.309226
     2  C    0.115574
     3  C   -0.342045
     4  N   -0.165197
     5  N   -0.412307
     6  O   -0.454390
     7  H    0.095439
     8  H    0.123571
     9  H    0.107401
    10  H    0.096335
    11  H    0.123972
    12  H    0.106976
    13  H    0.103499
    14  H    0.252762
    15  H    0.239829
    16  H    0.317808
 Sum of Mulliken charges =  -0.00000

 Dipole moment (field-independent basis, Debye):
    X=              0.8166    Y=             -0.0413    Z=             -0.1737  Tot=              0.8359
 Quadrupole moment (field-independent basis, Debye-Ang):
   XX=            -33.7612   YY=            -39.8605   ZZ=            -35.5146
   XY=             -3.1699   XZ=             -0.0757   YZ=              0.1171

  Exact polarizability:  56.828  -0.670  50.251  -0.642  -1.334  50.292
 Approx polarizability:  72.501   0.734  69.283  -2.480  -3.759  71.847

                      1                      2                      3
                      A                      A                      A
 Frequencies --    110.0831               218.4638               242.1035
 Red. masses --      3.1744                 1.0687                 1.0581
 Frc consts  --      0.0227                 0.0301                 0.0365
 IR Inten    --      0.2297                 0.8584                13.3040

                      4                      5                      6
                      A                      A                      A
 Frequencies --    255.5617               280.8560               303.0117
 Red. masses --      1.5667                 1.7236                 2.7275
 Frc consts  --      0.0603                 0.0801                 0.1475
 IR Inten    --     64.4670                26.8490                 2.9157

                      7                      8                      9
                      A                      A                      A
 Frequencies --    349.2701               398.0065               470.3677
 Red. masses --      2.2026                 1.2107                 2.8386
 Frc consts  --      0.1583                 0.1130                 0.3700
 IR Inten    --      5.2707                33.1969                 7.0274

                     10                     11                     12
                      A                      A                      A
 Frequencies --    525.7031               592.4698               761.0874
 Red. masses --      3.3318                 2.3580                 3.6482
 Frc consts  --      0.5425                 0.4877                 1.2451
 IR Inten    --     45.8088                 1.6827                 8.6327

                     13                     14                     15
                      A                      A                      A
 Frequencies --    849.6825               880.0761               928.0482
 Red. masses --      4.4044                 2.8775                 1.8583
 Frc consts  --      1.8735                 1.3131                 0.9430
 IR Inten    --     26.5800               137.1520                 4.1814

                     16                     17                     18
                      A                      A                      A
 Frequencies --    937.9028               956.8519              1125.5186
 Red. masses --      1.3091                 1.4332                 1.5553
 Frc consts  --      0.6785                 0.7731                 1.1608
 IR Inten    --      2.8986                 2.5903                42.4272

                     19                     20                     21
                      A                      A                      A
 Frequencies --   1146.5553              1200.9140              1248.6891
 Red. masses --      2.0756                 1.9566                 2.5122
 Frc consts  --      1.6077                 1.6625                 2.3078
 IR Inten    --      9.1189                 2.1125                 5.4000

                     22                     23                     24
                      A                      A                      A
 Frequencies --   1281.9730              1352.8399              1356.7863
 Red. masses --      1.1993                 1.2858                 1.3501
 Frc consts  --      1.1613                 1.3865                 1.4644
 IR Inten    --     50.3272                 6.8175                 2.1398

                     25                     26                     27
                      A                      A                      A
 Frequencies --   1390.5738              1410.0156              1423.5405
 Red. masses --      1.2562                 1.3487                 1.2516
 Frc consts  --      1.4312                 1.5799                 1.4944
 IR Inten    --      8.6000                16.8253                 9.4510

                     28                     29                     30
                      A                      A                      A
 Frequencies --   1495.1552              1510.1261              1513.4273
 Red. masses --      1.0464                 1.0471                 1.0454
 Frc consts  --      1.3783                 1.4069                 1.4108
 IR Inten    --      1.6197                 0.0912                 5.1869

                     31                     32                     33
                      A                      A                      A
 Frequencies --   1530.3964              1687.4341              3049.0978
 Red. masses --      1.0532                 1.0780                 1.0359
 Frc consts  --      1.4534                 1.8084                 5.6741
 IR Inten    --      5.4635                18.8160                17.6988

                     34                     35                     36
                      A                      A                      A
 Frequencies --   3054.0703              3069.3714              3117.2881
 Red. masses --      1.0360                 1.0854                 1.1015
 Frc consts  --      5.6932                 6.0246                 6.3067
 IR Inten    --     18.7496                15.5646                18.0745

                     37                     38                     39
                      A                      A                      A
 Frequencies --   3125.1338              3136.1124              3141.0138
 Red. masses --      1.1021                 1.1025                 1.1022
 Frc consts  --      6.3416                 6.3888                 6.4069
 IR Inten    --     34.8993                16.5818                28.1298

                     40                     41                     42
                      A                      A                      A
 Frequencies --   3417.8563              3554.2099              3802.0772
 Red. masses --      1.0540                 1.0870                 1.0681
 Frc consts  --      7.2543                 8.0906                 9.0974
 IR Inten    --      6.1159                 0.2732                29.9271

 - Thermochemistry -
 -------------------
 Temperature   298.150 Kelvin.  Pressure   1.00000 Atm.
 Atom     1 has atomic number  6 and mass  12.00000

 Molecular mass:    90.07931 amu.
 Principal axes and moments of inertia in atomic units:
                           1         2         3
     Eigenvalues --   389.09413 640.58915 739.20481
           X            0.99977  -0.01824   0.01087
           Y            0.01750   0.99780   0.06394
           Z           -0.01201  -0.06374   0.99789
 This molecule is an asymmetric top.
 Rotational symmetry number  1.
 Rotational temperatures (Kelvin)      0.22260     0.13521     0.11717
 Rotational constants (GHZ):           4.63832     2.81731     2.44146
 Zero-point vibrational energy     372037.0 (Joules/Mol)
                                   88.91897 (Kcal/Mol)
 Warning -- explicit consideration of  11 degrees of freedom as
           vibrations may cause significant error
 Vibrational temperatures:    158.38   314.32   348.33   367.70   404.09
          (Kelvin)            435.97   502.52   572.64   676.75   756.37
                              852.43  1095.03  1222.50  1266.23  1335.25
                             1349.43  1376.69  1619.37  1649.64  1727.85
                             1796.58  1844.47  1946.43  1952.11  2000.72
                             2028.70  2048.15  2151.19  2172.73  2177.48
                             2201.90  2427.84  4386.97  4394.12  4416.14
                             4485.08  4496.36  4512.16  4519.21  4917.53
                             5113.71  5470.33

 Zero-point correction=                           0.141701 (Hartree/Particle)
 Thermal correction to Energy=                    0.149408
 Thermal correction to Enthalpy=                  0.150353
 Thermal correction to Gibbs Free Energy=         0.110926
 Sum of electronic and zero-point Energies=           -304.859419
 Sum of electronic and thermal Energies=              -304.851712
 Sum of electronic and thermal Enthalpies=            -304.850768
 Sum of electronic and thermal Free Energies=         -304.890194

                     E (Thermal)             CV                S
                      KCal/Mol        Cal/Mol-Kelvin    Cal/Mol-Kelvin
 Total                   93.755             28.307             82.979
 Electronic               0.000              0.000              0.000
 Translational            0.889              2.981             39.407
 Rotational               0.889              2.981             26.713
 Vibrational             91.978             22.346             16.860
 Vibration     1          0.606              1.941              3.267
 Vibration     2          0.646              1.813              1.972
 Vibration     3          0.658              1.776              1.787
 Vibration     4          0.666              1.753              1.692
 Vibration     5          0.681              1.709              1.528
 Vibration     6          0.694              1.668              1.400
 Vibration     7          0.727              1.577              1.169
 Vibration     8          0.764              1.474              0.970
 Vibration     9          0.827              1.316              0.737
 Vibration    10          0.881              1.193              0.597
 Vibration    11          0.950              1.048              0.463

 Optimization completed.
    -- Stationary point found.
 Normal termination of Gaussian 09 at Thu Sep  8 14:48:43 2022.
