 Gaussian 09, Revision E.01,
 Gaussian 09:  ES64L-G09RevE.01 30-Nov-2015

 ----------------------------
 #P OPT Freq B3LYP/6-31G(d,p)
 ----------------------------

 --------
 Frag_913
 --------
 Symbolic Z-matrix:
 Charge =  0 Multiplicity = 1

 SCF Done:  E(RB3LYP) =  -303.864703101     A.U. after   14 cycles
 SCF Done:  E(RB3LYP) =  -303.864789135     A.U. after   11 cycles
 SCF Done:  E(RB3LYP) =  -303.864505939     A.U. after   11 cycles
 SCF Done:  E(RB3LYP) =  -303.864806937     A.U. after    8 cycles
 SCF Done:  E(RB3LYP) =  -303.864811626     A.U. after    9 cycles
 SCF Done:  E(RB3LYP) =  -303.864812317     A.U. after    9 cycles
 SCF Done:  E(RB3LYP) =  -303.864812653     A.U. after    8 cycles
 SCF Done:  E(RB3LYP) =  -303.864812870     A.U. after    7 cycles
 SCF Done:  E(RB3LYP) =  -303.864812948     A.U. after    7 cycles
 Optimization completed.
    -- Stationary point found.
 Normal termination of Gaussian 09 at Thu Sep  8 15:26:00 2022.

 ----------------------------------------------------------------------
 #P Geom=AllCheck Guess=TCheck SCRF=Check GenChk RB3LYP/6-31G(d,p) Freq
 ----------------------------------------------------------------------

 Structure from the checkpoint file:  "B3LYP6-31Gdp.Frag_913.chk"
 --------
 Frag_913
 --------
 Charge =  0 Multiplicity = 1

                         Standard orientation:
 ---------------------------------------------------------------------
 Center     Atomic      Atomic             Coordinates (Angstroms)
 Number     Number       Type             X           Y           Z
 ---------------------------------------------------------------------
      1          6           0       -1.921239    0.579211    0.357006
      2          6           0       -0.730046   -0.272898   -0.013922
      3          8           0       -0.831136   -1.320840   -0.625816
      4          6           0        0.671833    0.257747    0.377785
      5          7           0        1.701899   -0.774211    0.376272
      6          7           0        0.943419    1.364660   -0.541141
      7          1           0       -2.827165    0.183126   -0.103976
      8          1           0       -2.043823    0.586256    1.447282
      9          1           0       -1.745693    1.612598    0.045076
     10          1           0        0.613521    0.685752    1.386575
     11          1           0        1.639761   -1.322264    1.232868
     12          1           0        1.479712   -1.428529   -0.375889
     13          1           0        1.031857    0.989010   -1.484967
     14          1           0        1.860401    1.743270   -0.311572
 ---------------------------------------------------------------------

 SCF Done:  E(RB3LYP) =  -303.864812948     A.U. after    1 cycles

 The electronic state is 1-A.
 Alpha  occ. eigenvalues --  -19.14653 -14.32272 -14.31406 -10.27641 -10.24601
 Alpha  occ. eigenvalues --  -10.18891  -1.04570  -0.91873  -0.84222  -0.74995
 Alpha  occ. eigenvalues --   -0.65677  -0.54818  -0.50654  -0.47163  -0.46273
 Alpha  occ. eigenvalues --   -0.45646  -0.43046  -0.41772  -0.39619  -0.37318
 Alpha  occ. eigenvalues --   -0.35592  -0.27494  -0.25058  -0.23862
 Alpha virt. eigenvalues --   -0.01937   0.07932   0.10719   0.11803   0.13908
 Alpha virt. eigenvalues --    0.15333   0.16759   0.17647   0.19049   0.21779
 Alpha virt. eigenvalues --    0.25166   0.25437   0.30502   0.34935   0.52154

 Mulliken charges:
               1
     1  C   -0.387315
     2  C    0.419629
     3  O   -0.443132
     4  C    0.073780
     5  N   -0.578993
     6  N   -0.578262
     7  H    0.133791
     8  H    0.127161
     9  H    0.154723
    10  H    0.101942
    11  H    0.236284
    12  H    0.247472
    13  H    0.241649
    14  H    0.251271
 Sum of Mulliken charges =  -0.00000

 Dipole moment (field-independent basis, Debye):
    X=              0.0840    Y=              0.8686    Z=              1.2799  Tot=              1.5491
 Quadrupole moment (field-independent basis, Debye-Ang):
   XX=            -37.4255   YY=            -39.2930   ZZ=            -33.3073
   XY=             -1.2627   XZ=             -2.1311   YZ=             -1.8003

  Exact polarizability:  50.623  -1.158  49.774  -0.092   2.055  43.570
 Approx polarizability:  61.793   0.071  75.050   1.199   7.873  65.189

                      1                      2                      3
                      A                      A                      A
 Frequencies --     57.6427               125.2072               236.9066
 Red. masses --      3.8606                 1.0691                 1.2560
 Frc consts  --      0.0076                 0.0099                 0.0415
 IR Inten    --      3.4125                 0.0395                50.2116

                      4                      5                      6
                      A                      A                      A
 Frequencies --    247.5870               277.6832               331.6162
 Red. masses --      2.8157                 1.8260                 1.3634
 Frc consts  --      0.1017                 0.0830                 0.0883
 IR Inten    --      9.1135                29.9055                22.9451

                      7                      8                      9
                      A                      A                      A
 Frequencies --    371.2232               483.0693               597.7773
 Red. masses --      3.0232                 2.5557                 3.0778
 Frc consts  --      0.2455                 0.3514                 0.6480
 IR Inten    --     19.1567                27.3653                 1.5822

                     10                     11                     12
                      A                      A                      A
 Frequencies --    631.0287               758.1913               884.0240
 Red. masses --      2.8712                 2.5805                 2.2418
 Frc consts  --      0.6736                 0.8740                 1.0322
 IR Inten    --      6.9565                21.7324               139.5557

                     13                     14                     15
                      A                      A                      A
 Frequencies --    929.6230               964.6832              1020.0570
 Red. masses --      1.4976                 2.0481                 1.5811
 Frc consts  --      0.7626                 1.1230                 0.9693
 IR Inten    --    176.7679                20.2964                 5.4785

                     16                     17                     18
                      A                      A                      A
 Frequencies --   1050.6707              1147.8830              1157.5539
 Red. masses --      1.5505                 1.8685                 1.6244
 Frc consts  --      1.0084                 1.4506                 1.2824
 IR Inten    --     70.9046                32.2773                22.8002

                     19                     20                     21
                      A                      A                      A
 Frequencies --   1192.9961              1282.5947              1388.8057
 Red. masses --      2.0073                 1.9778                 1.3081
 Frc consts  --      1.6833                 1.9169                 1.4865
 IR Inten    --     38.6272                 5.5554                40.6278

                     22                     23                     24
                      A                      A                      A
 Frequencies --   1403.9874              1423.7923              1478.4392
 Red. masses --      1.3771                 1.2966                 1.0529
 Frc consts  --      1.5994                 1.5486                 1.3560
 IR Inten    --      3.5931                 8.3901                 9.9960

                     25                     26                     27
                      A                      A                      A
 Frequencies --   1488.2169              1673.8292              1679.2157
 Red. masses --      1.0520                 1.0879                 1.0984
 Frc consts  --      1.3727                 1.7958                 1.8249
 IR Inten    --     11.7266                33.9378                24.8553

                     28                     29                     30
                      A                      A                      A
 Frequencies --   1811.8288              3045.1626              3053.3425
 Red. masses --     10.2373                 1.0481                 1.0764
 Frc consts  --     19.8002                 5.7266                 5.9128
 IR Inten    --    120.9767                 0.8198                29.3400

                     31                     32                     33
                      A                      A                      A
 Frequencies --   3119.4674              3167.3408              3460.3961
 Red. masses --      1.0934                 1.1053                 1.0503
 Frc consts  --      6.2689                 6.5331                 7.4100
 IR Inten    --      5.6384                 9.1440                 3.8254

                     34                     35                     36
                      A                      A                      A
 Frequencies --   3475.5546              3545.0455              3558.5552
 Red. masses --      1.0502                 1.0902                 1.0912
 Frc consts  --      7.4740                 8.0722                 8.1417
 IR Inten    --      0.1984                 3.1720                 1.1971

 - Thermochemistry -
 -------------------
 Temperature   298.150 Kelvin.  Pressure   1.00000 Atm.
 Atom     1 has atomic number  6 and mass  12.00000

 Molecular mass:    88.06366 amu.
 Principal axes and moments of inertia in atomic units:
                           1         2         3
     Eigenvalues --   366.51714 604.27972 802.69145
           X            0.99786  -0.06229  -0.01999
           Y            0.06190   0.99789  -0.01954
           Z            0.02117   0.01826   0.99961
 This molecule is an asymmetric top.
 Rotational symmetry number  1.
 Rotational temperatures (Kelvin)      0.23632     0.14333     0.10790
 Rotational constants (GHZ):           4.92403     2.98660     2.24836
 Zero-point vibrational energy     314145.3 (Joules/Mol)
                                   75.08254 (Kcal/Mol)
 Warning -- explicit consideration of   9 degrees of freedom as
           vibrations may cause significant error
 Vibrational temperatures:     82.93   180.14   340.86   356.22   399.52
          (Kelvin)            477.12   534.11   695.03   860.07   907.91
                             1090.87  1271.91  1337.52  1387.96  1467.63
                             1511.68  1651.55  1665.46  1716.45  1845.37
                             1998.18  2020.02  2048.52  2127.14  2141.21
                             2408.26  2416.01  2606.81  4381.30  4393.07
                             4488.21  4557.09  4978.73  5000.54  5100.52
                             5119.96

 Zero-point correction=                           0.119652 (Hartree/Particle)
 Thermal correction to Energy=                    0.127108
 Thermal correction to Enthalpy=                  0.128053
 Thermal correction to Gibbs Free Energy=         0.088319
 Sum of electronic and zero-point Energies=           -303.745161
 Sum of electronic and thermal Energies=              -303.737705
 Sum of electronic and thermal Enthalpies=            -303.736760
 Sum of electronic and thermal Free Energies=         -303.776494

                     E (Thermal)             CV                S
                      KCal/Mol        Cal/Mol-Kelvin    Cal/Mol-Kelvin
 Total                   79.762             25.785             83.626
 Electronic               0.000              0.000              0.000
 Translational            0.889              2.981             39.339
 Rotational               0.889              2.981             26.677
 Vibrational             77.984             19.823             17.610
 Vibration     1          0.596              1.974              4.536
 Vibration     2          0.610              1.928              3.018
 Vibration     3          0.656              1.784              1.826
 Vibration     4          0.661              1.767              1.748
 Vibration     5          0.679              1.715              1.548
 Vibration     6          0.714              1.612              1.252
 Vibration     7          0.743              1.531              1.075
 Vibration     8          0.839              1.288              0.702
 Vibration     9          0.956              1.037              0.453

 Normal termination of Gaussian 09 at Thu Sep  8 15:26:11 2022.
