 Gaussian 09, Revision D.01,
 Gaussian 09:  ES64L-G09RevD.01 24-Apr-2013

 -------------------------
 #P OPT Freq B3LYP/6-31G**
 -------------------------

 -------
 Frag_31
 -------
 Symbolic Z-matrix:
 Charge =  0 Multiplicity = 1

 SCF Done:  E(RB3LYP) =  -135.184071388     A.U. after   12 cycles
 Optimization completed.
    -- Stationary point found.
 Normal termination of Gaussian 09 at Thu Jul 22 23:18:59 2021.

 ----------------------------------------------------------------------
 #P Geom=AllCheck Guess=TCheck SCRF=Check GenChk RB3LYP/6-31G(d,p) Freq
 ----------------------------------------------------------------------

 Structure from the checkpoint file:  "/vol2/users/liuj201281/HOFBenchmark/IsodesmicSplit/Sample60/Ring26/Running/Gau-294375.chk"
 -------
 Frag_31
 -------
 Charge =  0 Multiplicity = 1

                         Standard orientation:
 ---------------------------------------------------------------------
 Center     Atomic      Atomic             Coordinates (Angstroms)
 Number     Number       Type             X           Y           Z
 ---------------------------------------------------------------------
      1          6           0       -1.215681   -0.362128    0.000000
      2          6           0        0.000000    0.573796    0.000000
      3          7           0        1.312713   -0.077477    0.000000
      4          1           0       -2.156592    0.200153    0.000000
      5          1           0       -1.213468   -1.009128    0.885200
      6          1           0       -1.213468   -1.009128   -0.885200
      7          1           0       -0.045113    1.232895    0.875900
      8          1           0       -0.045113    1.232895   -0.875900
      9          1           0        1.389425   -0.687676   -0.811800
     10          1           0        1.389425   -0.687676    0.811800
 ---------------------------------------------------------------------

 SCF Done:  E(RB3LYP) =  -135.184071388     A.U. after    1 cycles

 The electronic state is 1-A'.
 Alpha  occ. eigenvalues --  -14.30720 -10.20352 -10.17373  -0.87333  -0.72353
 Alpha  occ. eigenvalues --   -0.60551  -0.49001  -0.43226  -0.40701  -0.40118
 Alpha  occ. eigenvalues --   -0.35665  -0.33543  -0.22977
 Alpha virt. eigenvalues --    0.08211   0.13303   0.13770   0.15421   0.17166
 Alpha virt. eigenvalues --    0.18879   0.18967   0.23074   0.27224   0.53385
 Alpha virt. eigenvalues --    0.54813   0.55662   0.56987   0.62998   0.66883

 Mulliken charges:
               1
     1  C   -0.320308
     2  C   -0.058216
     3  N   -0.587583
     4  H    0.100148
     5  H    0.097631
     6  H    0.097631
     7  H    0.104100
     8  H    0.104100
     9  H    0.231249
    10  H    0.231249
 Sum of Mulliken charges =   0.00000

 Dipole moment (field-independent basis, Debye):
    X=             -0.9355    Y=             -1.0315    Z=              0.0000  Tot=              1.3925
 Quadrupole moment (field-independent basis, Debye-Ang):
   XX=            -23.7076   YY=            -20.0457   ZZ=            -19.0569
   XY=             -2.5785   XZ=              0.0000   YZ=              0.0000

  Exact polarizability:  32.228  -1.787  29.171   0.000   0.000  29.600
 Approx polarizability:  39.418  -3.008  37.870   0.000   0.000  40.611

                      1                      2                      3
                     A"                     A"                     A'
 Frequencies --    256.5861               304.6103               401.2113
 Red. masses --      1.0286                 1.1560                 2.1447
 Frc consts  --      0.0399                 0.0632                 0.2034
 IR Inten    --     10.2040                42.6150                 6.1232

                      4                      5                      6
                     A"                     A'                     A'
 Frequencies --    781.4555               864.6656               903.7737
 Red. masses --      1.0922                 2.2691                 1.2937
 Frc consts  --      0.3930                 0.9996                 0.6226
 IR Inten    --      1.1750               104.7528                78.5291

                      7                      8                      9
                     A"                     A'                     A'
 Frequencies --   1011.3647              1064.3810              1159.5018
 Red. masses --      1.1143                 3.1496                 2.0805
 Frc consts  --      0.6715                 2.1023                 1.6481
 IR Inten    --      1.3189                26.3929                 9.9197

                     10                     11                     12
                     A"                     A'                     A"
 Frequencies --   1277.4120              1389.8605              1398.1511
 Red. masses --      1.3976                 1.2799                 1.1575
 Frc consts  --      1.3437                 1.4567                 1.3331
 IR Inten    --      0.0297                17.0981                 0.0009

                     13                     14                     15
                     A'                     A'                     A"
 Frequencies --   1423.0601              1499.7620              1509.6779
 Red. masses --      1.2600                 1.0519                 1.0449
 Frc consts  --      1.5034                 1.3940                 1.4031
 IR Inten    --      5.5125                 0.0120                 5.8115

                     16                     17                     18
                     A'                     A'                     A'
 Frequencies --   1519.6477              1673.6854              3029.1808
 Red. masses --      1.0801                 1.0882                 1.0355
 Frc consts  --      1.4696                 1.7959                 5.5982
 IR Inten    --      1.1611                18.6643                22.4424

                     19                     20                     21
                     A'                     A"                     A'
 Frequencies --   3038.1452              3069.7782              3103.0515
 Red. masses --      1.0607                 1.1041                 1.1014
 Frc consts  --      5.7685                 6.1301                 6.2483
 IR Inten    --     39.9051                 8.8720                47.0624

                     22                     23                     24
                     A"                     A'                     A"
 Frequencies --   3104.6658              3475.2640              3557.9305
 Red. masses --      1.1041                 1.0491                 1.0921
 Frc consts  --      6.2704                 7.4653                 8.1457
 IR Inten    --     63.5109                 2.2438                 0.8777

 - Thermochemistry -
 -------------------
 Temperature   298.150 Kelvin.  Pressure   1.00000 Atm.
 Atom     1 has atomic number  6 and mass  12.00000

 Molecular mass:    45.05785 amu.
 Principal axes and moments of inertia in atomic units:
                           1         2         3
     Eigenvalues --    56.46918 207.61894 232.27578
           X            0.99588  -0.09071   0.00000
           Y            0.09071   0.99588   0.00000
           Z            0.00000   0.00000   1.00000
 This molecule is an asymmetric top.
 Rotational symmetry number  1.
 Rotational temperatures (Kelvin)      1.53382     0.41718     0.37289
 Rotational constants (GHZ):          31.95975     8.69257     7.76982
 Zero-point vibrational energy     244138.8 (Joules/Mol)
                                   58.35058 (Kcal/Mol)
 Warning -- explicit consideration of   3 degrees of freedom as
           vibrations may cause significant error
 Vibrational temperatures:    369.17   438.27   577.25  1124.34  1244.06
          (Kelvin)           1300.33  1455.13  1531.40  1668.26  1837.91
                             1999.70  2011.63  2047.46  2157.82  2172.09
                             2186.43  2408.06  4358.31  4371.21  4416.72
                             4464.59  4466.92  5000.12  5119.06

 Zero-point correction=                           0.092988 (Hartree/Particle)
 Thermal correction to Energy=                    0.097353
 Thermal correction to Enthalpy=                  0.098297
 Thermal correction to Gibbs Free Energy=         0.067530
 Sum of electronic and zero-point Energies=           -135.091084
 Sum of electronic and thermal Energies=              -135.086718
 Sum of electronic and thermal Enthalpies=            -135.085774
 Sum of electronic and thermal Free Energies=         -135.116541

                     E (Thermal)             CV                S
                      KCal/Mol        Cal/Mol-Kelvin    Cal/Mol-Kelvin
 Total                   61.090             14.214             64.756
 Electronic               0.000              0.000              0.000
 Translational            0.889              2.981             37.342
 Rotational               0.889              2.981             22.525
 Vibrational             59.313              8.252              4.889
 Vibration     1          0.666              1.752              1.685
 Vibration     2          0.696              1.665              1.391
 Vibration     3          0.767              1.468              0.958

 Optimization completed.
    -- Stationary point found.
 Normal termination of Gaussian 09 at Thu Jul 22 23:19:13 2021.
