 Gaussian 09, Revision E.01,
 Gaussian 09:  ES64L-G09RevE.01 30-Nov-2015

 ----------------------------
 #P OPT Freq B3LYP/6-31G(d,p)
 ----------------------------

 --------
 Frag_757
 --------
 Symbolic Z-matrix:
 Charge =  0 Multiplicity = 1

 SCF Done:  E(RB3LYP) =  -132.718254305     A.U. after   13 cycles
 SCF Done:  E(RB3LYP) =  -132.718336447     A.U. after    9 cycles
 SCF Done:  E(RB3LYP) =  -132.718318286     A.U. after   10 cycles
 SCF Done:  E(RB3LYP) =  -132.718334820     A.U. after    9 cycles
 SCF Done:  E(RB3LYP) =  -132.718325644     A.U. after    9 cycles
 SCF Done:  E(RB3LYP) =  -132.718342697     A.U. after    9 cycles
 SCF Done:  E(RB3LYP) =  -132.718342911     A.U. after    8 cycles
 Optimization completed.
    -- Stationary point found.
 Normal termination of Gaussian 09 at Thu Sep  8 15:19:38 2022.

 ----------------------------------------------------------------------
 #P Geom=AllCheck Guess=TCheck SCRF=Check GenChk RB3LYP/6-31G(d,p) Freq
 ----------------------------------------------------------------------

 Structure from the checkpoint file:  "B3LYP6-31Gdp.Frag_757.chk"
 --------
 Frag_757
 --------
 Charge =  0 Multiplicity = 1

                         Standard orientation:
 ---------------------------------------------------------------------
 Center     Atomic      Atomic             Coordinates (Angstroms)
 Number     Number       Type             X           Y           Z
 ---------------------------------------------------------------------
      1          6           0       -1.254205    0.000050    0.014895
      2          6           0        0.058605   -0.000179    0.000762
      3          7           0        1.281101    0.000082   -0.127685
      4          1           0       -1.803207   -0.933815    0.026572
      5          1           0       -1.802950    0.934063    0.026678
      6          1           0        1.812049   -0.000048    0.746600
 ---------------------------------------------------------------------

 SCF Done:  E(RB3LYP) =  -132.718342911     A.U. after    1 cycles

 The electronic state is 1-A.
 Alpha  occ. eigenvalues --  -14.35240 -10.25663 -10.18803  -0.93038  -0.74869
 Alpha  occ. eigenvalues --   -0.56344  -0.48409  -0.45255  -0.37736  -0.33207
 Alpha  occ. eigenvalues --   -0.23484
 Alpha virt. eigenvalues --   -0.00163   0.03723   0.10449   0.13532   0.20965
 Alpha virt. eigenvalues --    0.28695   0.31673   0.53631   0.55110   0.59268
 Alpha virt. eigenvalues --    0.60295   0.65312   0.67111   0.73252   0.83672

 Mulliken charges:
               1
     1  C   -0.366945
     2  C    0.427443
     3  N   -0.604122
     4  H    0.138326
     5  H    0.138362
     6  H    0.266937
 Sum of Mulliken charges =  -0.00000

 Dipole moment (field-independent basis, Debye):
    X=             -0.4424    Y=             -0.0003    Z=              1.5328  Tot=              1.5954
 Quadrupole moment (field-independent basis, Debye-Ang):
   XX=            -16.1670   YY=            -16.8942   ZZ=            -18.8586
   XY=             -0.0006   XZ=              2.9288   YZ=              0.0001

  Exact polarizability:  48.370   0.001  16.685   1.058  -0.000  13.676
 Approx polarizability:  86.541   0.002  21.668  -1.136  -0.001  18.214

                      1                      2                      3
                      A                      A                      A
 Frequencies --    417.9128               473.4276               708.1516
 Red. masses --      2.4235                 3.6053                 1.2727
 Frc consts  --      0.2494                 0.4761                 0.3760
 IR Inten    --      0.0622                19.5913                92.2407

                      4                      5                      6
                      A                      A                      A
 Frequencies --    907.1528              1003.7778              1044.3667
 Red. masses --      1.0931                 1.6617                 1.2956
 Frc consts  --      0.5300                 0.9865                 0.8326
 IR Inten    --     55.5189                 0.6163               193.9523

                      7                      8                      9
                      A                      A                      A
 Frequencies --   1174.1924              1451.6906              2142.3939
 Red. masses --      2.8993                 1.3828                 9.5054
 Frc consts  --      2.3551                 1.7170                25.7050
 IR Inten    --     24.8807                 3.2000               322.6157

                     10                     11                     12
                      A                      A                      A
 Frequencies --   3184.6162              3272.6026              3465.3201
 Red. masses --      1.0573                 1.1169                 1.0771
 Frc consts  --      6.3180                 7.0477                 7.6206
 IR Inten    --      6.9641                 0.1506                 6.2398

 - Thermochemistry -
 -------------------
 Temperature   298.150 Kelvin.  Pressure   1.00000 Atm.
 Atom     1 has atomic number  6 and mass  12.00000

 Molecular mass:    41.02655 amu.
 Principal axes and moments of inertia in atomic units:
                           1         2         3
     Eigenvalues --     8.95641 187.34955 190.94997
           X            0.99972  -0.00001   0.02381
           Y            0.00001   1.00000   0.00007
           Z           -0.02381  -0.00007   0.99972
 This molecule is an asymmetric top.
 Rotational symmetry number  1.
 Rotational temperatures (Kelvin)      9.67059     0.46231     0.45359
 Rotational constants (GHZ):         201.50263     9.63302     9.45138
 Zero-point vibrational energy     115114.3 (Joules/Mol)
                                   27.51297 (Kcal/Mol)
 Warning -- explicit consideration of   2 degrees of freedom as
           vibrations may cause significant error
 Vibrational temperatures:    601.28   681.16  1018.87  1305.19  1444.21
          (Kelvin)           1502.61  1689.40  2088.66  3082.42  4581.95
                             4708.54  4985.82

 Zero-point correction=                           0.043845 (Hartree/Particle)
 Thermal correction to Energy=                    0.047468
 Thermal correction to Enthalpy=                  0.048413
 Thermal correction to Gibbs Free Energy=         0.020022
 Sum of electronic and zero-point Energies=           -132.674498
 Sum of electronic and thermal Energies=              -132.670875
 Sum of electronic and thermal Enthalpies=            -132.669930
 Sum of electronic and thermal Free Energies=         -132.698321

                     E (Thermal)             CV                S
                      KCal/Mol        Cal/Mol-Kelvin    Cal/Mol-Kelvin
 Total                   29.787             11.028             59.752
 Electronic               0.000              0.000              0.000
 Translational            0.889              2.981             37.062
 Rotational               0.889              2.981             20.399
 Vibrational             28.009              5.067              2.291
 Vibration     1          0.781              1.431              0.899
 Vibration     2          0.830              1.309              0.728

 Optimization completed.
    -- Stationary point found.
 Normal termination of Gaussian 09 at Thu Sep  8 15:19:43 2022.
