 Gaussian 09, Revision E.01,
 Gaussian 09:  ES64L-G09RevE.01 30-Nov-2015

 ----------------------------
 #P OPT Freq B3LYP/6-31G(d,p)
 ----------------------------

 ---------
 Frag_1088
 ---------
 Symbolic Z-matrix:
 Charge =  0 Multiplicity = 1

 SCF Done:  E(RB3LYP) =  -319.888619022     A.U. after   13 cycles
 SCF Done:  E(RB3LYP) =  -319.888672973     A.U. after   11 cycles
 SCF Done:  E(RB3LYP) =  -319.888680281     A.U. after   10 cycles
 SCF Done:  E(RB3LYP) =  -319.888679952     A.U. after    8 cycles
 SCF Done:  E(RB3LYP) =  -319.888680206     A.U. after    7 cycles
 Optimization completed.
    -- Stationary point found.
 Normal termination of Gaussian 09 at Thu Sep  8 14:51:06 2022.

 ----------------------------------------------------------------------
 #P Geom=AllCheck Guess=TCheck SCRF=Check GenChk RB3LYP/6-31G(d,p) Freq
 ----------------------------------------------------------------------

 Structure from the checkpoint file:  "B3LYP6-31Gdp.Frag_1088.chk"
 ---------
 Frag_1088
 ---------
 Charge =  0 Multiplicity = 1

                         Standard orientation:
 ---------------------------------------------------------------------
 Center     Atomic      Atomic             Coordinates (Angstroms)
 Number     Number       Type             X           Y           Z
 ---------------------------------------------------------------------
      1          6           0       -2.010052   -0.032727   -0.056342
      2          7           0       -0.933659   -0.117283   -0.720794
      3          6           0        0.350945    0.001434    0.002425
      4          7           0        1.069112   -1.229126   -0.263241
      5          7           0        1.059997    1.182871   -0.470540
      6          8           0        0.230684    0.166762    1.397723
      7          1           0       -2.035334    0.103689    1.029740
      8          1           0       -2.961360   -0.087784   -0.588479
      9          1           0        0.810216   -1.582286   -1.179766
     10          1           0        2.064408   -1.018248   -0.268654
     11          1           0        0.705233    1.995336    0.029599
     12          1           0        0.841937    1.315437   -1.456007
     13          1           0        0.315923   -0.727711    1.757303
 ---------------------------------------------------------------------

 SCF Done:  E(RB3LYP) =  -319.888680206     A.U. after    1 cycles

 The electronic state is 1-A.
 Alpha  occ. eigenvalues --  -19.14917 -14.33238 -14.31884 -14.31709 -10.31439
 Alpha  occ. eigenvalues --  -10.22640  -1.05096  -0.92605  -0.87643  -0.84896
 Alpha  occ. eigenvalues --   -0.65579  -0.58388  -0.53083  -0.51200  -0.47977
 Alpha  occ. eigenvalues --   -0.46649  -0.43902  -0.41280  -0.36955  -0.32910
 Alpha  occ. eigenvalues --   -0.30884  -0.27292  -0.25385  -0.24501
 Alpha virt. eigenvalues --   -0.00957   0.08243   0.11751   0.12801   0.13873
 Alpha virt. eigenvalues --    0.15027   0.16528   0.18659   0.24453   0.25638
 Alpha virt. eigenvalues --    0.27708   0.29138   0.32462   0.52680   0.59709

 Mulliken charges:
               1
     1  C   -0.024269
     2  N   -0.356027
     3  C    0.560604
     4  N   -0.605871
     5  N   -0.577454
     6  O   -0.537514
     7  H    0.111136
     8  H    0.104515
     9  H    0.253901
    10  H    0.256204
    11  H    0.252055
    12  H    0.245502
    13  H    0.317219
 Sum of Mulliken charges =  -0.00000

 Dipole moment (field-independent basis, Debye):
    X=             -0.7357    Y=             -0.1136    Z=             -0.4176  Tot=              0.8536
 Quadrupole moment (field-independent basis, Debye-Ang):
   XX=            -33.7656   YY=            -34.7032   ZZ=            -34.9074
   XY=             -1.9299   XZ=             -2.4803   YZ=             -1.5232

  Exact polarizability:  56.654  -0.055  38.094  -3.472   0.800  42.695
 Approx polarizability:  77.304   0.452  52.653  -8.424   2.674  63.990

                      1                      2                      3
                      A                      A                      A
 Frequencies --    121.8839               227.6734               264.4215
 Red. masses --      2.9900                 1.1945                 1.2269
 Frc consts  --      0.0262                 0.0365                 0.0505
 IR Inten    --      5.2387                 2.7593                37.7874

                      4                      5                      6
                      A                      A                      A
 Frequencies --    343.8052               370.7980               422.6519
 Red. masses --      2.8762                 2.1518                 2.3328
 Frc consts  --      0.2003                 0.1743                 0.2455
 IR Inten    --     20.9499                19.2820                28.0298

                      7                      8                      9
                      A                      A                      A
 Frequencies --    463.4907               512.0268               518.5318
 Red. masses --      1.2977                 3.5934                 2.3573
 Frc consts  --      0.1643                 0.5551                 0.3734
 IR Inten    --     87.6521                 5.3369                22.5698

                     10                     11                     12
                      A                      A                      A
 Frequencies --    622.1439               772.0278               786.3816
 Red. masses --      3.8136                 2.1160                 2.1853
 Frc consts  --      0.8697                 0.7431                 0.7962
 IR Inten    --      6.9501                11.5211                 6.9542

                     13                     14                     15
                      A                      A                      A
 Frequencies --    888.7725               904.5287               942.3614
 Red. masses --      1.4765                 1.6161                 2.6411
 Frc consts  --      0.6872                 0.7790                 1.3819
 IR Inten    --    158.0142               153.3651               160.0529

                     16                     17                     18
                      A                      A                      A
 Frequencies --   1084.4504              1089.4045              1113.4705
 Red. masses --      1.3563                 1.8205                 1.8696
 Frc consts  --      0.9398                 1.2730                 1.3657
 IR Inten    --     11.8370               159.0973                67.6322

                     19                     20                     21
                      A                      A                      A
 Frequencies --   1221.1612              1284.0673              1356.9210
 Red. masses --      1.4770                 1.7741                 1.9059
 Frc consts  --      1.2977                 1.7235                 2.0676
 IR Inten    --      6.9989                76.7800                40.8851

                     22                     23                     24
                      A                      A                      A
 Frequencies --   1393.1931              1485.8328              1648.0200
 Red. masses --      1.8479                 1.1441                 1.1099
 Frc consts  --      2.1133                 1.4882                 1.7761
 IR Inten    --    128.2021                16.2516                44.8905

                     25                     26                     27
                      A                      A                      A
 Frequencies --   1653.9198              1742.4633              3066.3800
 Red. masses --      1.1144                 6.8655                 1.0548
 Frc consts  --      1.7961                12.2815                 5.8434
 IR Inten    --     52.9961                29.8225                27.1188

                     28                     29                     30
                      A                      A                      A
 Frequencies --   3162.8008              3491.7643              3507.7765
 Red. masses --      1.1163                 1.0491                 1.0492
 Frc consts  --      6.5792                 7.5364                 7.6061
 IR Inten    --     25.1658                 0.9560                 3.6565

                     31                     32                     33
                      A                      A                      A
 Frequencies --   3583.9287              3604.4170              3806.6144
 Red. masses --      1.0928                 1.0931                 1.0652
 Frc consts  --      8.2698                 8.3672                 9.0937
 IR Inten    --      2.7502                 8.4112                48.7825

 - Thermochemistry -
 -------------------
 Temperature   298.150 Kelvin.  Pressure   1.00000 Atm.
 Atom     1 has atomic number  6 and mass  12.00000

 Molecular mass:    89.05891 amu.
 Principal axes and moments of inertia in atomic units:
                           1         2         3
     Eigenvalues --   363.99620 586.67641 592.66875
           X            0.99908  -0.03654  -0.02267
           Y            0.01708   0.82096  -0.57073
           Z            0.03947   0.56982   0.82082
 This molecule is an asymmetric top.
 Rotational symmetry number  1.
 Rotational temperatures (Kelvin)      0.23795     0.14763     0.14614
 Rotational constants (GHZ):           4.95813     3.07621     3.04511
 Zero-point vibrational energy     283862.4 (Joules/Mol)
                                   67.84474 (Kcal/Mol)
 Warning -- explicit consideration of   9 degrees of freedom as
           vibrations may cause significant error
 Vibrational temperatures:    175.36   327.57   380.44   494.66   533.49
          (Kelvin)            608.10   666.86   736.69   746.05   895.13
                             1110.77  1131.43  1278.74  1301.41  1355.85
                             1560.28  1567.41  1602.03  1756.98  1847.48
                             1952.30  2004.49  2137.78  2371.13  2379.62
                             2507.01  4411.83  4550.56  5023.86  5046.90
                             5156.47  5185.95  5476.86

 Zero-point correction=                           0.108117 (Hartree/Particle)
 Thermal correction to Energy=                    0.114908
 Thermal correction to Enthalpy=                  0.115852
 Thermal correction to Gibbs Free Energy=         0.078290
 Sum of electronic and zero-point Energies=           -319.780563
 Sum of electronic and thermal Energies=              -319.773773
 Sum of electronic and thermal Enthalpies=            -319.772828
 Sum of electronic and thermal Free Energies=         -319.810390

                     E (Thermal)             CV                S
                      KCal/Mol        Cal/Mol-Kelvin    Cal/Mol-Kelvin
 Total                   72.106             25.172             79.055
 Electronic               0.000              0.000              0.000
 Translational            0.889              2.981             39.373
 Rotational               0.889              2.981             26.340
 Vibrational             70.328             19.211             13.343
 Vibration     1          0.609              1.931              3.070
 Vibration     2          0.651              1.799              1.897
 Vibration     3          0.671              1.738              1.632
 Vibration     4          0.723              1.588              1.194
 Vibration     5          0.743              1.532              1.076
 Vibration     6          0.785              1.421              0.883
 Vibration     7          0.821              1.331              0.756
 Vibration     8          0.867              1.223              0.629
 Vibration     9          0.874              1.209              0.613

 Optimization completed.
    -- Stationary point found.
 Normal termination of Gaussian 09 at Thu Sep  8 14:51:17 2022.
