 Gaussian 09, Revision E.01,
 Gaussian 09:  ES64L-G09RevE.01 30-Nov-2015

 ----------------------------
 #P OPT Freq B3LYP/6-31G(d,p)
 ----------------------------

 --------
 Frag_436
 --------
 Symbolic Z-matrix:
 Charge =  0 Multiplicity = 1

 SCF Done:  E(RB3LYP) =  -212.594678438     A.U. after   12 cycles
 SCF Done:  E(RB3LYP) =  -212.594713271     A.U. after    8 cycles
 SCF Done:  E(RB3LYP) =  -212.594716937     A.U. after    7 cycles
 Optimization completed.
    -- Stationary point found.
 Normal termination of Gaussian 09 at Thu Sep  8 14:56:41 2022.

 ----------------------------------------------------------------------
 #P Geom=AllCheck Guess=TCheck SCRF=Check GenChk RB3LYP/6-31G(d,p) Freq
 ----------------------------------------------------------------------

 Structure from the checkpoint file:  "B3LYP6-31Gdp.Frag_436.chk"
 --------
 Frag_436
 --------
 Charge =  0 Multiplicity = 1

                         Standard orientation:
 ---------------------------------------------------------------------
 Center     Atomic      Atomic             Coordinates (Angstroms)
 Number     Number       Type             X           Y           Z
 ---------------------------------------------------------------------
      1          6           0       -1.934345   -0.226153    0.000008
      2          7           0       -0.606354   -0.827054   -0.000010
      3          6           0        0.413081   -0.057809   -0.000020
      4          6           0        0.359690    1.461014    0.000000
      5          6           0        1.784551   -0.686764    0.000008
      6          1           0       -2.687650   -1.018045    0.000045
      7          1           0       -2.108717    0.404008   -0.884457
      8          1           0       -2.108682    0.404059    0.884443
      9          1           0        1.357945    1.904158    0.000007
     10          1           0       -0.179862    1.832405    0.879586
     11          1           0       -0.179861    1.832426   -0.879577
     12          1           0        2.357869   -0.368648   -0.880146
     13          1           0        1.697727   -1.774093    0.000019
     14          1           0        2.357849   -0.368629    0.880169
 ---------------------------------------------------------------------

 SCF Done:  E(RB3LYP) =  -212.594716937     A.U. after    1 cycles

 The electronic state is 1-A.
 Alpha  occ. eigenvalues --  -14.30814 -10.22628 -10.19710 -10.18768 -10.17694
 Alpha  occ. eigenvalues --   -0.90695  -0.75582  -0.70218  -0.66459  -0.51169
 Alpha  occ. eigenvalues --   -0.46234  -0.44797  -0.44551  -0.40554  -0.39389
 Alpha  occ. eigenvalues --   -0.39266  -0.37137  -0.35383  -0.26948  -0.23204
 Alpha virt. eigenvalues --    0.01185   0.08883   0.12379   0.13315   0.14718
 Alpha virt. eigenvalues --    0.16767   0.17544   0.17666   0.19242   0.20710
 Alpha virt. eigenvalues --    0.23020   0.24932   0.29067   0.41212   0.49866

 Mulliken charges:
               1
     1  C   -0.189209
     2  N   -0.404587
     3  C    0.283881
     4  C   -0.379050
     5  C   -0.357273
     6  H    0.114688
     7  H    0.102198
     8  H    0.102196
     9  H    0.110389
    10  H    0.129378
    11  H    0.129377
    12  H    0.113373
    13  H    0.131265
    14  H    0.113374
 Sum of Mulliken charges =  -0.00000

 Dipole moment (field-independent basis, Debye):
    X=              0.4084    Y=              1.9350    Z=              0.0000  Tot=              1.9776
 Quadrupole moment (field-independent basis, Debye-Ang):
   XX=            -29.6819   YY=            -34.0822   ZZ=            -32.1852
   XY=             -0.8030   XZ=              0.0000   YZ=             -0.0000

  Exact polarizability:  64.352   3.179  48.739  -0.000  -0.000  37.737
 Approx polarizability:  84.371   9.621  68.533  -0.000  -0.000  53.943

                      1                      2                      3
                      A                      A                      A
 Frequencies --     73.4501               107.7359               194.6047
 Red. masses --      1.0447                 1.0350                 1.1183
 Frc consts  --      0.0033                 0.0071                 0.0250
 IR Inten    --      0.0222                 0.8426                 1.3755

                      4                      5                      6
                      A                      A                      A
 Frequencies --    276.9497               293.1746               383.6343
 Red. masses --      2.1803                 2.5794                 2.2144
 Frc consts  --      0.0985                 0.1306                 0.1920
 IR Inten    --      4.9683                 2.2935                 1.3812

                      7                      8                      9
                      A                      A                      A
 Frequencies --    507.0482               560.3063               777.0625
 Red. masses --      2.5120                 3.0663                 3.4500
 Frc consts  --      0.3805                 0.5672                 1.2274
 IR Inten    --      0.9235                 3.7697                 0.6985

                     10                     11                     12
                      A                      A                      A
 Frequencies --    932.6105               957.9341               993.4135
 Red. masses --      1.2190                 1.5259                 2.3484
 Frc consts  --      0.6247                 0.8250                 1.3655
 IR Inten    --      0.0359                 5.1773                 7.1146

                     13                     14                     15
                      A                      A                      A
 Frequencies --   1098.0539              1098.5516              1107.1213
 Red. masses --      1.8101                 1.5542                 1.5236
 Frc consts  --      1.2858                 1.1051                 1.1003
 IR Inten    --      2.6825                 2.4552                 0.4329

                     16                     17                     18
                      A                      A                      A
 Frequencies --   1178.5309              1266.2875              1403.6997
 Red. masses --      1.7113                 2.9943                 1.2653
 Frc consts  --      1.4004                 2.8289                 1.4689
 IR Inten    --      6.7256                26.7526                18.8498

                     19                     20                     21
                      A                      A                      A
 Frequencies --   1411.9240              1442.4538              1484.8252
 Red. masses --      1.3124                 1.1525                 1.0621
 Frc consts  --      1.5415                 1.4128                 1.3796
 IR Inten    --      4.3429                19.8444                11.4993

                     22                     23                     24
                      A                      A                      A
 Frequencies --   1493.0892              1495.4858              1497.5317
 Red. masses --      1.0670                 1.0478                 1.0451
 Frc consts  --      1.4015                 1.3807                 1.3808
 IR Inten    --      3.1266                 4.1400                 5.0662

                     25                     26                     27
                      A                      A                      A
 Frequencies --   1501.7453              1524.6555              1745.5015
 Red. masses --      1.0692                 1.0453                 8.4485
 Frc consts  --      1.4207                 1.4317                15.1659
 IR Inten    --      1.0100                10.2623                82.3010

                     28                     29                     30
                      A                      A                      A
 Frequencies --   2994.2655              3029.7079              3038.5720
 Red. masses --      1.0396                 1.0391                 1.0383
 Frc consts  --      5.4916                 5.6195                 5.6480
 IR Inten    --     46.1866                17.1332                 8.0330

                     31                     32                     33
                      A                      A                      A
 Frequencies --   3046.4163              3081.9677              3093.9636
 Red. masses --      1.1016                 1.0996                 1.0995
 Frc consts  --      6.0233                 6.1535                 6.2013
 IR Inten    --     43.1926                19.2230                11.6184

                     34                     35                     36
                      A                      A                      A
 Frequencies --   3113.9783              3136.0951              3158.8033
 Red. masses --      1.0965                 1.1012                 1.0997
 Frc consts  --      6.2646                 6.3809                 6.4652
 IR Inten    --     41.2167                17.5848                12.3578

 - Thermochemistry -
 -------------------
 Temperature   298.150 Kelvin.  Pressure   1.00000 Atm.
 Atom     1 has atomic number  6 and mass  12.00000

 Molecular mass:    71.07350 amu.
 Principal axes and moments of inertia in atomic units:
                           1         2         3
     Eigenvalues --   218.86258 460.24430 645.55560
           X            0.99966  -0.02603   0.00000
           Y            0.02603   0.99966  -0.00000
           Z           -0.00000   0.00000   1.00000
 This molecule is an asymmetric top.
 Rotational symmetry number  1.
 Rotational temperatures (Kelvin)      0.39575     0.18819     0.13417
 Rotational constants (GHZ):           8.24600     3.92127     2.79564
 Zero-point vibrational energy     325989.3 (Joules/Mol)
                                   77.91331 (Kcal/Mol)
 Warning -- explicit consideration of   8 degrees of freedom as
           vibrations may cause significant error
 Vibrational temperatures:    105.68   155.01   279.99   398.47   421.81
          (Kelvin)            551.96   729.53   806.15  1118.02  1341.82
                             1378.25  1429.30  1579.85  1580.57  1592.90
                             1695.64  1821.90  2019.61  2031.44  2075.37
                             2136.33  2148.22  2151.67  2154.61  2160.67
                             2193.64  2511.38  4308.07  4359.07  4371.82
                             4383.11  4434.26  4451.52  4480.31  4512.14
                             4544.81

 Zero-point correction=                           0.124163 (Hartree/Particle)
 Thermal correction to Energy=                    0.131049
 Thermal correction to Enthalpy=                  0.131993
 Thermal correction to Gibbs Free Energy=         0.093949
 Sum of electronic and zero-point Energies=           -212.470554
 Sum of electronic and thermal Energies=              -212.463668
 Sum of electronic and thermal Enthalpies=            -212.462724
 Sum of electronic and thermal Free Energies=         -212.500768

                     E (Thermal)             CV                S
                      KCal/Mol        Cal/Mol-Kelvin    Cal/Mol-Kelvin
 Total                   82.235             22.936             80.071
 Electronic               0.000              0.000              0.000
 Translational            0.889              2.981             38.700
 Rotational               0.889              2.981             25.678
 Vibrational             80.457             16.975             15.692
 Vibration     1          0.599              1.967              4.059
 Vibration     2          0.606              1.943              3.309
 Vibration     3          0.635              1.847              2.184
 Vibration     4          0.678              1.716              1.552
 Vibration     5          0.688              1.686              1.456
 Vibration     6          0.753              1.505              1.025
 Vibration     7          0.862              1.234              0.641
 Vibration     8          0.916              1.117              0.523

 Optimization completed.
    -- Stationary point found.
 Normal termination of Gaussian 09 at Thu Sep  8 14:56:51 2022.
