 Gaussian 09, Revision E.01,
 Gaussian 09:  ES64L-G09RevE.01 30-Nov-2015

 -------------------------
 #P OPT Freq B3LYP/6-31G**
 -------------------------

 --------
 Frag_147
 --------
 Symbolic Z-matrix:
 Charge =  0 Multiplicity = 1

 SCF Done:  E(RB3LYP) =  -78.5932980025     A.U. after    9 cycles
 SCF Done:  E(RB3LYP) =  -78.5937572052     A.U. after    8 cycles
 SCF Done:  E(RB3LYP) =  -78.5938096209     A.U. after    6 cycles
 Optimization completed.
    -- Stationary point found.
 Normal termination of Gaussian 09 at Sat Aug 21 01:35:28 2021.

 ----------------------------------------------------------------------
 #P Geom=AllCheck Guess=TCheck SCRF=Check GenChk RB3LYP/6-31G(d,p) Freq
 ----------------------------------------------------------------------

 Structure from the checkpoint file:  "/public/home/users/caep010/.cache/gau_scr/Gau-11210.chk"
 --------
 Frag_147
 --------
 Charge =  0 Multiplicity = 1

                         Standard orientation:
 ---------------------------------------------------------------------
 Center     Atomic      Atomic             Coordinates (Angstroms)
 Number     Number       Type             X           Y           Z
 ---------------------------------------------------------------------
      1          6           0        0.651176    0.094043    0.097113
      2          6           0       -0.651176   -0.094043   -0.097113
      3          1           0        1.151918    1.005098   -0.218958
      4          1           0        1.272440   -0.654953    0.580533
      5          1           0       -1.272440    0.654953   -0.580533
      6          1           0       -1.151918   -1.005098    0.218958
 ---------------------------------------------------------------------

 SCF Done:  E(RB3LYP) =  -78.5938096209     A.U. after    1 cycles

 The electronic state is 1-AG.
 Alpha  occ. eigenvalues --  -10.18438 -10.18349  -0.75519  -0.57657  -0.46399
 Alpha  occ. eigenvalues --   -0.41582  -0.35182  -0.26746
 Alpha virt. eigenvalues --    0.01741   0.12240   0.14057   0.15815   0.24449
 Alpha virt. eigenvalues --    0.33136   0.47288   0.54825   0.56348   0.63742
 Alpha virt. eigenvalues --    0.65374   0.69916   0.83104   0.84458   0.91325

 Mulliken charges:
               1
     1  C   -0.202427
     2  C   -0.202427
     3  H    0.101213
     4  H    0.101214
     5  H    0.101214
     6  H    0.101213
 Sum of Mulliken charges =  -0.00000

 Dipole moment (field-independent basis, Debye):
    X=              0.0000    Y=              0.0000    Z=              0.0000  Tot=              0.0000
 Quadrupole moment (field-independent basis, Debye-Ang):
   XX=            -12.1366   YY=            -12.6258   ZZ=            -14.3861
   XY=              0.2424   XZ=              0.5029   YZ=             -1.0452

  Exact polarizability:  30.205   2.378  18.874   3.503  -4.133  11.582
 Approx polarizability:  46.034   4.121  23.794   5.501  -4.723  15.134

                      1                      2                      3
                     AU                     AG                     AU
 Frequencies --    831.2189               961.1068               976.7744
 Red. masses --      1.0427                 1.5201                 1.1607
 Frc consts  --      0.4245                 0.8273                 0.6525
 IR Inten    --      0.6585                 0.0000                79.2338

                      4                      5                      6
                     AU                     AG                     AG
 Frequencies --   1069.3639              1241.4429              1388.5126
 Red. masses --      1.0078                 1.5260                 1.2138
 Frc consts  --      0.6790                 1.3857                 1.3788
 IR Inten    --      0.0000                 0.0000                 0.0000

                      7                      8                      9
                     AU                     AG                     AU
 Frequencies --   1483.1163              1715.2813              3146.2641
 Red. masses --      1.1120                 3.1900                 1.0477
 Frc consts  --      1.4411                 5.5299                 6.1105
 IR Inten    --      5.5662                 0.0000                17.0406

                     10                     11                     12
                     AG                     AG                     AU
 Frequencies --   3162.0102              3221.9870              3247.8964
 Red. masses --      1.0747                 1.1146                 1.1177
 Frc consts  --      6.3311                 6.8173                 6.9465
 IR Inten    --      0.0000                 0.0000                30.8830

 - Thermochemistry -
 -------------------
 Temperature   298.150 Kelvin.  Pressure   1.00000 Atm.
 Atom     1 has atomic number  6 and mass  12.00000

 Molecular mass:    28.03130 amu.
 Principal axes and moments of inertia in atomic units:
                           1         2         3
     Eigenvalues --    12.27075  59.97296  72.24371
           X            0.97912  -0.06527  -0.19251
           Y            0.14141   0.89904   0.41441
           Z            0.14602  -0.43298   0.88950
 This molecule is an asymmetric top.
 Rotational symmetry number  1.
 Rotational temperatures (Kelvin)      7.05856     1.44421     1.19891
 Rotational constants (GHZ):         147.07665    30.09258    24.98129
 Zero-point vibrational energy     134250.8 (Joules/Mol)
                                   32.08670 (Kcal/Mol)
 Vibrational temperatures:   1195.94  1382.82  1405.36  1538.57  1786.16
          (Kelvin)           1997.76  2133.87  2467.90  4526.77  4549.42
                             4635.71  4672.99

 Zero-point correction=                           0.051133 (Hartree/Particle)
 Thermal correction to Energy=                    0.054176
 Thermal correction to Enthalpy=                  0.055120
 Thermal correction to Gibbs Free Energy=         0.028951
 Sum of electronic and zero-point Energies=            -78.542676
 Sum of electronic and thermal Energies=               -78.539633
 Sum of electronic and thermal Enthalpies=             -78.538689
 Sum of electronic and thermal Free Energies=          -78.564859

                     E (Thermal)             CV                S
                      KCal/Mol        Cal/Mol-Kelvin    Cal/Mol-Kelvin
 Total                   33.996              8.098             55.079
 Electronic               0.000              0.000              0.000
 Translational            0.889              2.981             35.927
 Rotational               0.889              2.981             18.614
 Vibrational             32.219              2.137              0.537

 Optimization completed.
    -- Stationary point found.
 Normal termination of Gaussian 09 at Sat Aug 21 01:35:33 2021.
