 Gaussian 09, Revision E.01,
 Gaussian 09:  ES64L-G09RevE.01 30-Nov-2015

 ----------------------------
 #P OPT Freq B3LYP/6-31G(d,p)
 ----------------------------

 --------
 Frag_883
 --------
 Symbolic Z-matrix:
 Charge =  0 Multiplicity = 1

 SCF Done:  E(RB3LYP) =  -265.726847126     A.U. after   13 cycles
 SCF Done:  E(RB3LYP) =  -265.726879244     A.U. after    8 cycles
 SCF Done:  E(RB3LYP) =  -265.726882124     A.U. after    8 cycles
 SCF Done:  E(RB3LYP) =  -265.726882657     A.U. after    7 cycles
 SCF Done:  E(RB3LYP) =  -265.726882765     A.U. after    7 cycles
 Optimization completed.
    -- Stationary point found.
 Normal termination of Gaussian 09 at Thu Sep  8 15:11:04 2022.

 ----------------------------------------------------------------------
 #P Geom=AllCheck Guess=TCheck SCRF=Check GenChk RB3LYP/6-31G(d,p) Freq
 ----------------------------------------------------------------------

 Structure from the checkpoint file:  "B3LYP6-31Gdp.Frag_883.chk"
 --------
 Frag_883
 --------
 Charge =  0 Multiplicity = 1

                         Standard orientation:
 ---------------------------------------------------------------------
 Center     Atomic      Atomic             Coordinates (Angstroms)
 Number     Number       Type             X           Y           Z
 ---------------------------------------------------------------------
      1          6           0       -1.745943   -0.630374   -0.007601
      2          6           0       -0.418009    0.027569    0.347501
      3          8           0       -0.393316    1.409594   -0.048445
      4          7           0        0.680880   -0.752825   -0.182577
      5          7           0        1.969560   -0.149368   -0.028881
      6          1           0       -2.575117   -0.052960    0.407295
      7          1           0       -1.789403   -1.651600    0.379026
      8          1           0       -1.875200   -0.676431   -1.097253
      9          1           0       -0.293538    0.075861    1.435501
     10          1           0       -0.617117    1.446799   -0.990213
     11          1           0        0.546724   -0.922090   -1.177856
     12          1           0        2.324518   -0.430792    0.882399
     13          1           0        1.856298    0.866631   -0.010528
 ---------------------------------------------------------------------

 SCF Done:  E(RB3LYP) =  -265.726882765     A.U. after    1 cycles

 The electronic state is 1-A.
 Alpha  occ. eigenvalues --  -19.14865 -14.34109 -14.33115 -10.25978 -10.18562
 Alpha  occ. eigenvalues --   -1.02805  -0.94479  -0.78772  -0.71138  -0.62483
 Alpha  occ. eigenvalues --   -0.51001  -0.49472  -0.47092  -0.44545  -0.43408
 Alpha  occ. eigenvalues --   -0.39079  -0.37826  -0.34019  -0.29337  -0.24476
 Alpha  occ. eigenvalues --   -0.23755
 Alpha virt. eigenvalues --    0.06760   0.09912   0.11700   0.12897   0.14790
 Alpha virt. eigenvalues --    0.16394   0.17614   0.18399   0.21481   0.23543
 Alpha virt. eigenvalues --    0.26357   0.27896   0.52854   0.54975   0.56025

 Mulliken charges:
               1
     1  C   -0.337779
     2  C    0.255176
     3  O   -0.534312
     4  N   -0.383949
     5  N   -0.479224
     6  H    0.123767
     7  H    0.126964
     8  H    0.092458
     9  H    0.105478
    10  H    0.292781
    11  H    0.239867
    12  H    0.253946
    13  H    0.244827
 Sum of Mulliken charges =  -0.00000

 Dipole moment (field-independent basis, Debye):
    X=             -1.3577    Y=              0.1355    Z=             -0.4810  Tot=              1.4468
 Quadrupole moment (field-independent basis, Debye-Ang):
   XX=            -32.6919   YY=            -34.6042   ZZ=            -27.4940
   XY=              2.2403   XZ=              3.6512   YZ=             -1.7599

  Exact polarizability:  46.129   1.149  37.683   2.457  -0.511  38.168
 Approx polarizability:  55.449   0.264  53.276   3.470  -0.203  54.473

                      1                      2                      3
                      A                      A                      A
 Frequencies --    172.0568               234.4065               272.1076
 Red. masses --      2.6781                 1.0637                 3.2336
 Frc consts  --      0.0467                 0.0344                 0.1411
 IR Inten    --      3.0540                 1.7064                 5.9014

                      4                      5                      6
                      A                      A                      A
 Frequencies --    332.0258               382.3469               405.5710
 Red. masses --      1.1008                 2.0686                 1.3432
 Frc consts  --      0.0715                 0.1782                 0.1302
 IR Inten    --     91.5531                13.9281                55.6316

                      7                      8                      9
                      A                      A                      A
 Frequencies --    528.6126               577.9675               754.0918
 Red. masses --      2.2396                 3.1043                 2.1168
 Frc consts  --      0.3687                 0.6110                 0.7092
 IR Inten    --      3.5417                17.1804                88.3802

                     10                     11                     12
                      A                      A                      A
 Frequencies --    865.8999               934.8747               973.5206
 Red. masses --      2.4100                 1.4312                 1.8462
 Frc consts  --      1.0646                 0.7370                 1.0309
 IR Inten    --     75.6440                14.9521                83.5952

                     13                     14                     15
                      A                      A                      A
 Frequencies --   1054.0246              1106.4663              1172.4589
 Red. masses --      1.5106                 2.6457                 2.4948
 Frc consts  --      0.9888                 1.9084                 2.0206
 IR Inten    --    119.4067                16.0412                97.8266

                     16                     17                     18
                      A                      A                      A
 Frequencies --   1195.0697              1286.2272              1326.4950
 Red. masses --      2.0675                 1.3893                 1.2552
 Frc consts  --      1.7398                 1.3542                 1.3013
 IR Inten    --      2.1608                 8.0668                 3.6067

                     19                     20                     21
                      A                      A                      A
 Frequencies --   1366.0546              1418.2757              1432.1094
 Red. masses --      1.3254                 1.2501                 1.2130
 Frc consts  --      1.4572                 1.4816                 1.4657
 IR Inten    --     11.9386                12.5177                37.7895

                     22                     23                     24
                      A                      A                      A
 Frequencies --   1493.0137              1506.4444              1518.3015
 Red. masses --      1.0932                 1.0538                 1.1093
 Frc consts  --      1.4358                 1.4090                 1.5067
 IR Inten    --      5.4428                 3.9263                11.3009

                     25                     26                     27
                      A                      A                      A
 Frequencies --   1686.5035              3034.6975              3068.9568
 Red. masses --      1.0627                 1.0468                 1.0840
 Frc consts  --      1.7808                 5.6797                 6.0156
 IR Inten    --     16.2857                13.4570                28.2106

                     28                     29                     30
                      A                      A                      A
 Frequencies --   3117.1591              3150.8634              3426.6538
 Red. masses --      1.0909                 1.1042                 1.0505
 Frc consts  --      6.2454                 6.4590                 7.2673
 IR Inten    --     30.0542                15.3294                 9.4169

                     31                     32                     33
                      A                      A                      A
 Frequencies --   3490.9864              3540.1086              3776.9689
 Red. masses --      1.0748                 1.0907                 1.0658
 Frc consts  --      7.7177                 8.0537                 8.9580
 IR Inten    --      3.2704                 0.3148                 7.7467

 - Thermochemistry -
 -------------------
 Temperature   298.150 Kelvin.  Pressure   1.00000 Atm.
 Atom     1 has atomic number  6 and mass  12.00000

 Molecular mass:    76.06366 amu.
 Principal axes and moments of inertia in atomic units:
                           1         2         3
     Eigenvalues --   215.86224 478.30259 632.00907
           X            0.99868   0.04881   0.01599
           Y           -0.04864   0.99876  -0.01085
           Z           -0.01650   0.01006   0.99981
 This molecule is an asymmetric top.
 Rotational symmetry number  1.
 Rotational temperatures (Kelvin)      0.40125     0.18109     0.13705
 Rotational constants (GHZ):           8.36062     3.77322     2.85556
 Zero-point vibrational energy     302663.1 (Joules/Mol)
                                   72.33822 (Kcal/Mol)
 Warning -- explicit consideration of   8 degrees of freedom as
           vibrations may cause significant error
 Vibrational temperatures:    247.55   337.26   391.50   477.71   550.11
          (Kelvin)            583.53   760.55   831.57  1084.97  1245.84
                             1345.07  1400.68  1516.50  1591.96  1686.90
                             1719.44  1850.59  1908.53  1965.45  2040.58
                             2060.48  2148.11  2167.43  2184.49  2426.50
                             4366.25  4415.54  4484.89  4533.38  4930.18
                             5022.74  5093.42  5434.21

 Zero-point correction=                           0.115278 (Hartree/Particle)
 Thermal correction to Energy=                    0.121463
 Thermal correction to Enthalpy=                  0.122407
 Thermal correction to Gibbs Free Energy=         0.086425
 Sum of electronic and zero-point Energies=           -265.611604
 Sum of electronic and thermal Energies=              -265.605420
 Sum of electronic and thermal Enthalpies=            -265.604475
 Sum of electronic and thermal Free Energies=         -265.640458

                     E (Thermal)             CV                S
                      KCal/Mol        Cal/Mol-Kelvin    Cal/Mol-Kelvin
 Total                   76.219             22.224             75.731
 Electronic               0.000              0.000              0.000
 Translational            0.889              2.981             38.903
 Rotational               0.889              2.981             25.682
 Vibrational             74.442             16.262             11.147
 Vibration     1          0.626              1.877              2.413
 Vibration     2          0.654              1.788              1.845
 Vibration     3          0.675              1.725              1.583
 Vibration     4          0.714              1.612              1.250
 Vibration     5          0.752              1.508              1.030
 Vibration     6          0.771              1.458              0.942
 Vibration     7          0.884              1.187              0.590
 Vibration     8          0.934              1.079              0.489

 Optimization completed.
    -- Stationary point found.
 Normal termination of Gaussian 09 at Thu Sep  8 15:11:13 2022.
