 Gaussian 09, Revision E.01,
 Gaussian 09:  ES64L-G09RevE.01 30-Nov-2015

 ----------------------------
 #P OPT Freq B3LYP/6-31G(d,p)
 ----------------------------

 --------
 Frag_786
 --------
 Symbolic Z-matrix:
 Charge =  0 Multiplicity = 1

 SCF Done:  E(RB3LYP) =  -382.903985513     A.U. after   14 cycles
 SCF Done:  E(RB3LYP) =  -382.904066597     A.U. after   10 cycles
 SCF Done:  E(RB3LYP) =  -382.904072568     A.U. after    8 cycles
 SCF Done:  E(RB3LYP) =  -382.904074294     A.U. after    8 cycles
 SCF Done:  E(RB3LYP) =  -382.904075817     A.U. after    8 cycles
 SCF Done:  E(RB3LYP) =  -382.904076598     A.U. after    8 cycles
 SCF Done:  E(RB3LYP) =  -382.904077000     A.U. after    8 cycles
 Optimization completed.
    -- Stationary point found.
 Normal termination of Gaussian 09 at Thu Sep  8 15:05:12 2022.

 ----------------------------------------------------------------------
 #P Geom=AllCheck Guess=TCheck SCRF=Check GenChk RB3LYP/6-31G(d,p) Freq
 ----------------------------------------------------------------------

 Structure from the checkpoint file:  "B3LYP6-31Gdp.Frag_786.chk"
 --------
 Frag_786
 --------
 Charge =  0 Multiplicity = 1

                         Standard orientation:
 ---------------------------------------------------------------------
 Center     Atomic      Atomic             Coordinates (Angstroms)
 Number     Number       Type             X           Y           Z
 ---------------------------------------------------------------------
      1          6           0        1.433098    1.411178   -0.013631
      2          6           0        0.914637    0.181072   -0.030306
      3          6           0        1.745562   -1.072982    0.008861
      4          6           0       -0.599729   -0.034022   -0.013278
      5          8           0       -1.031760   -0.502971    1.240405
      6          8           0       -0.899590   -1.020052   -0.949553
      7          8           0       -1.338203    1.145721   -0.253035
      8          1           0        2.507280    1.566586    0.019464
      9          1           0        0.805483    2.295639   -0.016896
     10          1           0        1.592171   -1.669092   -0.895767
     11          1           0        1.445113   -1.700052    0.855229
     12          1           0        2.808757   -0.838756    0.104503
     13          1           0       -1.060774    0.262840    1.831158
     14          1           0       -1.820157   -1.272223   -0.779128
     15          1           0       -1.082860    1.461992   -1.130973
 ---------------------------------------------------------------------

 SCF Done:  E(RB3LYP) =  -382.904077000     A.U. after    1 cycles

 The electronic state is 1-A.
 Alpha  occ. eigenvalues --  -19.15920 -19.15799 -19.15748 -10.33930 -10.19773
 Alpha  occ. eigenvalues --  -10.17979 -10.17556  -1.10338  -1.00633  -1.00296
 Alpha  occ. eigenvalues --   -0.79778  -0.68419  -0.66200  -0.57377  -0.54525
 Alpha  occ. eigenvalues --   -0.52619  -0.48081  -0.43662  -0.41187  -0.40209
 Alpha  occ. eigenvalues --   -0.39958  -0.37607  -0.36462  -0.34644  -0.32167
 Alpha  occ. eigenvalues --   -0.29496  -0.28799  -0.25568
 Alpha virt. eigenvalues --    0.01307   0.07404   0.10380   0.11095   0.12792
 Alpha virt. eigenvalues --    0.15149   0.17167   0.17604   0.18575   0.24086
 Alpha virt. eigenvalues --    0.26570   0.26934   0.29045   0.32253   0.36267

 Mulliken charges:
               1
     1  C   -0.292951
     2  C    0.130472
     3  C   -0.358753
     4  C    0.635903
     5  O   -0.536265
     6  O   -0.527429
     7  O   -0.552798
     8  H    0.095371
     9  H    0.095566
    10  H    0.136425
    11  H    0.129297
    12  H    0.100425
    13  H    0.319237
    14  H    0.314476
    15  H    0.311025
 Sum of Mulliken charges =  -0.00000

 Dipole moment (field-independent basis, Debye):
    X=              0.1147    Y=              0.9744    Z=             -0.1854  Tot=              0.9985
 Quadrupole moment (field-independent basis, Debye-Ang):
   XX=            -39.4584   YY=            -40.9789   ZZ=            -40.0243
   XY=              0.9619   XZ=              1.4042   YZ=             -0.2432

  Exact polarizability:  54.968   4.964  61.414  -0.102   0.075  39.914
 Approx polarizability:  71.057  10.574  92.382  -1.598   0.277  57.799

                      1                      2                      3
                      A                      A                      A
 Frequencies --     77.2514               189.4438               230.9775
 Red. masses --      3.6505                 1.0497                 2.0304
 Frc consts  --      0.0128                 0.0222                 0.0638
 IR Inten    --      2.0484                 0.1797                10.0852

                      4                      5                      6
                      A                      A                      A
 Frequencies --    270.4142               290.5870               328.6150
 Red. masses --      3.3069                 1.3434                 1.2664
 Frc consts  --      0.1425                 0.0668                 0.0806
 IR Inten    --     12.8012                65.1151                62.9582

                      7                      8                      9
                      A                      A                      A
 Frequencies --    357.7108               379.8822               452.3159
 Red. masses --      1.4750                 2.9488                 2.5408
 Frc consts  --      0.1112                 0.2507                 0.3063
 IR Inten    --     87.5577                16.4392                30.0954

                     10                     11                     12
                      A                      A                      A
 Frequencies --    518.6714               552.5183               581.2262
 Red. masses --      2.9194                 3.0849                 4.4046
 Frc consts  --      0.4627                 0.5549                 0.8767
 IR Inten    --     44.7291                31.3941                 8.3310

                     13                     14                     15
                      A                      A                      A
 Frequencies --    601.9995               760.2615               770.6751
 Red. masses --      2.8176                 5.0726                 1.2035
 Frc consts  --      0.6016                 1.7275                 0.4212
 IR Inten    --     30.4764                12.0766                 0.7784

                     16                     17                     18
                      A                      A                      A
 Frequencies --    940.4349               949.8360              1014.8277
 Red. masses --      1.8613                 1.4703                 1.7811
 Frc consts  --      0.9699                 0.7815                 1.0807
 IR Inten    --      8.2810                30.4991                35.1332

                     19                     20                     21
                      A                      A                      A
 Frequencies --   1026.1393              1077.0668              1080.6210
 Red. masses --      1.8964                 2.0744                 1.6702
 Frc consts  --      1.1765                 1.4179                 1.1491
 IR Inten    --    115.4986                87.7215                53.4708

                     22                     23                     24
                      A                      A                      A
 Frequencies --   1106.8358              1260.4538              1307.8402
 Red. masses --      3.4377                 1.6159                 1.9090
 Frc consts  --      2.4814                 1.5126                 1.9238
 IR Inten    --    283.0924                28.6403                67.9831

                     25                     26                     27
                      A                      A                      A
 Frequencies --   1374.0473              1418.9515              1424.7112
 Red. masses --      1.7476                 1.2257                 1.8846
 Frc consts  --      1.9440                 1.4541                 2.2539
 IR Inten    --    134.6162                28.2472                68.7231

                     28                     29                     30
                      A                      A                      A
 Frequencies --   1456.0737              1487.4807              1510.4228
 Red. masses --      1.3002                 1.0479                 1.0605
 Frc consts  --      1.6241                 1.3660                 1.4255
 IR Inten    --     36.4051                 8.5219                19.9802

                     31                     32                     33
                      A                      A                      A
 Frequencies --   1735.4191              3050.5764              3114.2083
 Red. masses --      5.4917                 1.0354                 1.0997
 Frc consts  --      9.7446                 5.6771                 6.2836
 IR Inten    --      4.4779                16.1918                11.0505

                     34                     35                     36
                      A                      A                      A
 Frequencies --   3135.3768              3163.5513              3250.0646
 Red. masses --      1.1041                 1.0605                 1.1156
 Frc consts  --      6.3950                 6.2534                 6.9429
 IR Inten    --     19.1063                 6.9589                 9.8736

                     37                     38                     39
                      A                      A                      A
 Frequencies --   3782.6962              3812.6922              3815.8937
 Red. masses --      1.0647                 1.0660                 1.0646
 Frc consts  --      8.9761                 9.1302                 9.1332
 IR Inten    --     35.6920                17.7595                44.1574

 - Thermochemistry -
 -------------------
 Temperature   298.150 Kelvin.  Pressure   1.00000 Atm.
 Atom     1 has atomic number  6 and mass  12.00000

 Molecular mass:   104.04734 amu.
 Principal axes and moments of inertia in atomic units:
                           1         2         3
     Eigenvalues --   516.92412 736.04118 917.98123
           X            0.99977  -0.01991   0.00745
           Y            0.01994   0.99979  -0.00476
           Z           -0.00736   0.00491   0.99996
 This molecule is an asymmetric top.
 Rotational symmetry number  1.
 Warning -- assumption of classical behavior for rotation
           may cause significant error
 Rotational temperatures (Kelvin)      0.16756     0.11768     0.09435
 Rotational constants (GHZ):           3.49131     2.45196     1.96599
 Zero-point vibrational energy     320950.7 (Joules/Mol)
                                   76.70906 (Kcal/Mol)
 Warning -- explicit consideration of  13 degrees of freedom as
           vibrations may cause significant error
 Vibrational temperatures:    111.15   272.57   332.32   389.07   418.09
          (Kelvin)            472.80   514.67   546.57   650.78   746.25
                              794.95   836.25   866.14  1093.85  1108.83
                             1353.07  1366.60  1460.11  1476.38  1549.66
                             1554.77  1592.49  1813.51  1881.69  1976.95
                             2041.55  2049.84  2094.96  2140.15  2173.16
                             2496.88  4389.09  4480.65  4511.10  4551.64
                             4676.11  5442.45  5485.61  5490.21

 Zero-point correction=                           0.122244 (Hartree/Particle)
 Thermal correction to Energy=                    0.130374
 Thermal correction to Enthalpy=                  0.131318
 Thermal correction to Gibbs Free Energy=         0.090527
 Sum of electronic and zero-point Energies=           -382.781833
 Sum of electronic and thermal Energies=              -382.773703
 Sum of electronic and thermal Enthalpies=            -382.772759
 Sum of electronic and thermal Free Energies=         -382.813550

                     E (Thermal)             CV                S
                      KCal/Mol        Cal/Mol-Kelvin    Cal/Mol-Kelvin
 Total                   81.811             30.261             85.852
 Electronic               0.000              0.000              0.000
 Translational            0.889              2.981             39.836
 Rotational               0.889              2.981             27.348
 Vibrational             80.033             24.299             18.667
 Vibration     1          0.599              1.964              3.960
 Vibration     2          0.633              1.854              2.233
 Vibration     3          0.653              1.794              1.871
 Vibration     4          0.674              1.728              1.594
 Vibration     5          0.687              1.691              1.471
 Vibration     6          0.712              1.618              1.267
 Vibration     7          0.733              1.559              1.132
 Vibration     8          0.750              1.513              1.040
 Vibration     9          0.811              1.356              0.789
 Vibration    10          0.874              1.209              0.613
 Vibration    11          0.908              1.134              0.539
 Vibration    12          0.938              1.072              0.483
 Vibration    13          0.960              1.028              0.446

 Normal termination of Gaussian 09 at Thu Sep  8 15:05:26 2022.
