 Gaussian 09, Revision E.01,
 Gaussian 09:  ES64L-G09RevE.01 30-Nov-2015

 --------------------------------
 #P OPT=calcfc Freq B3LYP/6-31G**
 --------------------------------

 --------
 Frag_158
 --------
 Symbolic Z-matrix:
 Charge =  0 Multiplicity = 1

 SCF Done:  E(RB3LYP) =  -267.888816531     A.U. after   13 cycles
 SCF Done:  E(RB3LYP) =  -267.897534791     A.U. after   13 cycles
 SCF Done:  E(RB3LYP) =  -267.899398689     A.U. after   12 cycles
 SCF Done:  E(RB3LYP) =  -267.898529227     A.U. after   13 cycles
 SCF Done:  E(RB3LYP) =  -267.900097690     A.U. after   10 cycles
 SCF Done:  E(RB3LYP) =  -267.898218742     A.U. after   12 cycles
 SCF Done:  E(RB3LYP) =  -267.900389002     A.U. after   10 cycles
 SCF Done:  E(RB3LYP) =  -267.900936651     A.U. after   11 cycles
 SCF Done:  E(RB3LYP) =  -267.901419807     A.U. after   11 cycles
 SCF Done:  E(RB3LYP) =  -267.901626385     A.U. after   11 cycles
 SCF Done:  E(RB3LYP) =  -267.901635032     A.U. after   10 cycles
 SCF Done:  E(RB3LYP) =  -267.901643249     A.U. after    9 cycles
 SCF Done:  E(RB3LYP) =  -267.901643358     A.U. after    7 cycles
 Optimization completed.
    -- Stationary point found.
 Normal termination of Gaussian 09 at Sat Aug 21 02:19:30 2021.

 ----------------------------------------------------------------------
 #P Geom=AllCheck Guess=TCheck SCRF=Check GenChk RB3LYP/6-31G(d,p) Freq
 ----------------------------------------------------------------------

 Structure from the checkpoint file:  "/public/home/users/caep010/.cache/gau_scr/Gau-156331.chk"
 --------
 Frag_158
 --------
 Charge =  0 Multiplicity = 1

                         Standard orientation:
 ---------------------------------------------------------------------
 Center     Atomic      Atomic             Coordinates (Angstroms)
 Number     Number       Type             X           Y           Z
 ---------------------------------------------------------------------
      1          6           0       -1.235520   -1.409309    0.205033
      2          6           0       -0.738955   -0.185941   -0.037372
      3          6           0       -1.638177    1.024747   -0.124703
      4          7           0        0.630680    0.063201   -0.297539
      5          6           0        1.229691    1.277711    0.249582
      6          7           0        1.453226   -1.081926   -0.145353
      7          1           0       -0.602263   -2.283930    0.252971
      8          1           0       -2.305854   -1.542403    0.309253
      9          1           0       -1.455738    1.588814   -1.046763
     10          1           0       -1.498015    1.714901    0.715804
     11          1           0       -2.682772    0.709088   -0.119389
     12          1           0        2.210600    1.425021   -0.213108
     13          1           0        1.370578    1.228194    1.344719
     14          1           0        0.621174    2.153450    0.019893
     15          1           0        1.785344   -1.150891    0.822587
     16          1           0        2.267365   -0.954411   -0.740963
 ---------------------------------------------------------------------

 SCF Done:  E(RB3LYP) =  -267.901643358     A.U. after    1 cycles

 The electronic state is 1-A.
 Alpha  occ. eigenvalues --  -14.36276 -14.34507 -10.21338 -10.20721 -10.17877
 Alpha  occ. eigenvalues --  -10.14239  -0.98063  -0.81386  -0.75207  -0.68631
 Alpha  occ. eigenvalues --   -0.65132  -0.53567  -0.50153  -0.48193  -0.46750
 Alpha  occ. eigenvalues --   -0.42559  -0.40790  -0.40030  -0.38667  -0.37826
 Alpha  occ. eigenvalues --   -0.34290  -0.28423  -0.25391  -0.18989
 Alpha virt. eigenvalues --    0.05037   0.07553   0.11226   0.13344   0.13464
 Alpha virt. eigenvalues --    0.14794   0.17201   0.17366   0.17769   0.18872
 Alpha virt. eigenvalues --    0.20419   0.21883   0.24894   0.26647   0.34049

 Mulliken charges:
               1
     1  C   -0.313621
     2  C    0.342884
     3  C   -0.381672
     4  N   -0.364796
     5  C   -0.172108
     6  N   -0.439787
     7  H    0.104230
     8  H    0.072483
     9  H    0.119481
    10  H    0.113368
    11  H    0.116590
    12  H    0.104768
    13  H    0.091254
    14  H    0.120478
    15  H    0.232151
    16  H    0.254296
 Sum of Mulliken charges =  -0.00000

 Dipole moment (field-independent basis, Debye):
    X=              1.6417    Y=              1.7226    Z=              0.7794  Tot=              2.5040
 Quadrupole moment (field-independent basis, Debye-Ang):
   XX=            -32.5217   YY=            -39.0912   ZZ=            -39.5160
   XY=             -1.1827   XZ=              0.4289   YZ=             -0.8727

  Exact polarizability:  67.651   5.061  67.867  -0.981  -2.866  40.422
 Approx polarizability:  87.235  10.806  98.985  -3.760  -6.775  59.603

                      1                      2                      3
                      A                      A                      A
 Frequencies --     95.5900               193.8107               238.7418
 Red. masses --      2.9450                 1.2822                 1.2091
 Frc consts  --      0.0159                 0.0284                 0.0406
 IR Inten    --      1.3741                 9.0643                 8.3878

                      4                      5                      6
                      A                      A                      A
 Frequencies --    265.0853               333.5665               348.8706
 Red. masses --      1.3153                 1.8927                 1.6006
 Frc consts  --      0.0545                 0.1241                 0.1148
 IR Inten    --     18.5612                 1.5758                10.4643

                      7                      8                      9
                      A                      A                      A
 Frequencies --    431.0201               463.3641               529.8401
 Red. masses --      2.4732                 2.2463                 3.0651
 Frc consts  --      0.2707                 0.2842                 0.5070
 IR Inten    --      4.2823                 4.3791                 6.7842

                     10                     11                     12
                      A                      A                      A
 Frequencies --    538.3981               734.3794               756.0469
 Red. masses --      2.3348                 1.7796                 1.7251
 Frc consts  --      0.3988                 0.5655                 0.5810
 IR Inten    --      3.2025                 7.1107                 2.7563

                     13                     14                     15
                      A                      A                      A
 Frequencies --    852.0323               904.3524               945.4807
 Red. masses --      1.3532                 2.1673                 1.5750
 Frc consts  --      0.5788                 1.0444                 0.8295
 IR Inten    --     57.2091                75.5859                37.3745

                     16                     17                     18
                      A                      A                      A
 Frequencies --   1025.6632              1061.8946              1075.6009
 Red. masses --      1.3900                 1.4823                 1.4864
 Frc consts  --      0.8615                 0.9848                 1.0132
 IR Inten    --      6.3351                13.6536                 1.3342

                     19                     20                     21
                      A                      A                      A
 Frequencies --   1142.7357              1186.8672              1226.4591
 Red. masses --      1.3661                 4.5799                 2.0847
 Frc consts  --      1.0510                 3.8011                 1.8475
 IR Inten    --     23.8062                 8.7250                24.8848

                     22                     23                     24
                      A                      A                      A
 Frequencies --   1329.3791              1367.9243              1422.7558
 Red. masses --      1.2198                 2.5448                 1.3776
 Frc consts  --      1.2701                 2.8056                 1.6429
 IR Inten    --      4.6452                45.8134                23.0278

                     25                     26                     27
                      A                      A                      A
 Frequencies --   1444.9726              1466.6101              1493.3843
 Red. masses --      1.2464                 1.1681                 1.0469
 Frc consts  --      1.5334                 1.4804                 1.3757
 IR Inten    --      0.3864                 1.8165                17.3454

                     28                     29                     30
                      A                      A                      A
 Frequencies --   1504.3846              1517.4437              1520.0749
 Red. masses --      1.0522                 1.0540                 1.0712
 Frc consts  --      1.4030                 1.4299                 1.4583
 IR Inten    --     15.7035                 2.9861                 3.5186

                     31                     32                     33
                      A                      A                      A
 Frequencies --   1668.9344              1722.0631              2952.4584
 Red. masses --      1.2421                 3.3563                 1.0596
 Frc consts  --      2.0383                 5.8642                 5.4422
 IR Inten    --     12.6089                95.3879                92.0849

                     34                     35                     36
                      A                      A                      A
 Frequencies --   3036.9551              3082.6782              3089.9776
 Red. masses --      1.0401                 1.0792                 1.1002
 Frc consts  --      5.6519                 6.0422                 6.1892
 IR Inten    --     25.8033                40.0057                22.0132

                     37                     38                     39
                      A                      A                      A
 Frequencies --   3143.0047              3148.7110              3187.7677
 Red. masses --      1.0985                 1.0977                 1.0612
 Frc consts  --      6.3933                 6.4118                 6.3534
 IR Inten    --     23.4166                15.7629                 5.3218

                     40                     41                     42
                      A                      A                      A
 Frequencies --   3287.1710              3376.0117              3545.5461
 Red. masses --      1.1144                 1.0564                 1.0849
 Frc consts  --      7.0945                 7.0939                 8.0352
 IR Inten    --      7.0173                20.1331                 0.5250

 - Thermochemistry -
 -------------------
 Temperature   298.150 Kelvin.  Pressure   1.00000 Atm.
 Atom     1 has atomic number  6 and mass  12.00000

 Molecular mass:    86.08440 amu.
 Principal axes and moments of inertia in atomic units:
                           1         2         3
     Eigenvalues --   374.30685 539.96495 858.13530
           X            0.99997   0.00213   0.00788
           Y           -0.00210   0.99999  -0.00422
           Z           -0.00788   0.00420   0.99996
 This molecule is an asymmetric top.
 Rotational symmetry number  1.
 Rotational temperatures (Kelvin)      0.23140     0.16041     0.10093
 Rotational constants (GHZ):           4.82156     3.34233     2.10310
 Zero-point vibrational energy     374778.1 (Joules/Mol)
                                   89.57412 (Kcal/Mol)
 Warning -- explicit consideration of  10 degrees of freedom as
           vibrations may cause significant error
 Vibrational temperatures:    137.53   278.85   343.50   381.40   479.93
          (Kelvin)            501.95   620.14   666.68   762.32   774.63
                             1056.61  1087.78  1225.88  1301.16  1360.33
                             1475.70  1527.83  1547.55  1644.14  1707.63
                             1764.60  1912.68  1968.14  2047.03  2078.99
                             2110.12  2148.64  2164.47  2183.26  2187.05
                             2401.22  2477.66  4247.92  4369.50  4435.28
                             4445.78  4522.08  4530.29  4586.48  4729.50
                             4857.32  5101.24

 Zero-point correction=                           0.142745 (Hartree/Particle)
 Thermal correction to Energy=                    0.150094
 Thermal correction to Enthalpy=                  0.151038
 Thermal correction to Gibbs Free Energy=         0.112210
 Sum of electronic and zero-point Energies=           -267.758898
 Sum of electronic and thermal Energies=              -267.751549
 Sum of electronic and thermal Enthalpies=            -267.750605
 Sum of electronic and thermal Free Energies=         -267.789433

                     E (Thermal)             CV                S
                      KCal/Mol        Cal/Mol-Kelvin    Cal/Mol-Kelvin
 Total                   94.185             27.049             81.721
 Electronic               0.000              0.000              0.000
 Translational            0.889              2.981             39.271
 Rotational               0.889              2.981             26.653
 Vibrational             92.408             21.087             15.797
 Vibration     1          0.603              1.952              3.542
 Vibration     2          0.635              1.848              2.191
 Vibration     3          0.657              1.781              1.812
 Vibration     4          0.671              1.737              1.628
 Vibration     5          0.715              1.608              1.243
 Vibration     6          0.726              1.578              1.171
 Vibration     7          0.792              1.403              0.855
 Vibration     8          0.821              1.331              0.756
 Vibration     9          0.885              1.184              0.588
 Vibration    10          0.893              1.165              0.569

 Optimization completed.
    -- Stationary point found.
 Normal termination of Gaussian 09 at Sat Aug 21 02:19:42 2021.
