 Gaussian 09, Revision E.01,
 Gaussian 09:  ES64L-G09RevE.01 30-Nov-2015

 -------------------------
 #P OPT Freq B3LYP/6-31G**
 -------------------------

 --------
 Frag_264
 --------
 Symbolic Z-matrix:
 Charge =  0 Multiplicity = 1

 SCF Done:  E(RB3LYP) =  -360.382503363     A.U. after   18 cycles
 SCF Done:  E(RB3LYP) =  -360.432319193     A.U. after   14 cycles
 SCF Done:  E(RB3LYP) =  -360.444264530     A.U. after   15 cycles
 SCF Done:  E(RB3LYP) =  -360.443781025     A.U. after   16 cycles
 SCF Done:  E(RB3LYP) =  -360.447614038     A.U. after   11 cycles
 SCF Done:  E(RB3LYP) =  -360.448566240     A.U. after   14 cycles
 SCF Done:  E(RB3LYP) =  -360.448731756     A.U. after   13 cycles
 SCF Done:  E(RB3LYP) =  -360.448795048     A.U. after   12 cycles
 SCF Done:  E(RB3LYP) =  -360.448881337     A.U. after   13 cycles
 SCF Done:  E(RB3LYP) =  -360.448874430     A.U. after   13 cycles
 SCF Done:  E(RB3LYP) =  -360.452202789     A.U. after    9 cycles
 SCF Done:  E(RB3LYP) =  -360.453300413     A.U. after   14 cycles
 SCF Done:  E(RB3LYP) =  -360.454011899     A.U. after   15 cycles
 SCF Done:  E(RB3LYP) =  -360.454307294     A.U. after   15 cycles
 SCF Done:  E(RB3LYP) =  -360.454395637     A.U. after   13 cycles
 SCF Done:  E(RB3LYP) =  -360.454418528     A.U. after   13 cycles
 SCF Done:  E(RB3LYP) =  -360.454430245     A.U. after   12 cycles
 SCF Done:  E(RB3LYP) =  -360.454433773     A.U. after   12 cycles
 SCF Done:  E(RB3LYP) =  -360.454434258     A.U. after    9 cycles
 Optimization completed.
    -- Stationary point found.
 Normal termination of Gaussian 09 at Sat Aug 21 01:37:33 2021.

 ----------------------------------------------------------------------
 #P Geom=AllCheck Guess=TCheck SCRF=Check GenChk RB3LYP/6-31G(d,p) Freq
 ----------------------------------------------------------------------

 Structure from the checkpoint file:  "/public/home/users/caep010/.cache/gau_scr/Gau-116896.chk"
 --------
 Frag_264
 --------
 Charge =  0 Multiplicity = 1

                         Standard orientation:
 ---------------------------------------------------------------------
 Center     Atomic      Atomic             Coordinates (Angstroms)
 Number     Number       Type             X           Y           Z
 ---------------------------------------------------------------------
      1          6           0       -0.664612    1.740038    0.000177
      2          6           0       -0.526603    0.231692    0.000038
      3          7           0        0.944153   -0.203743    0.000053
      4          8           0        1.792009    0.684904   -0.000249
      5          8           0        1.182093   -1.407740    0.000299
      6          6           0       -1.458811   -0.731316    0.647545
      7          6           0       -1.458696   -0.731136   -0.647884
      8          1           0       -1.726851    1.995661    0.001351
      9          1           0       -0.196699    2.183436   -0.882129
     10          1           0       -0.194587    2.183459    0.881324
     11          1           0       -1.816346   -1.104505    1.593902
     12          1           0       -1.815074   -1.104833   -1.594476
 ---------------------------------------------------------------------

 SCF Done:  E(RB3LYP) =  -360.454434258     A.U. after    1 cycles

 The electronic state is 1-A.
 Alpha  occ. eigenvalues --  -19.17361 -19.17191 -14.55351 -10.27328 -10.24016
 Alpha  occ. eigenvalues --  -10.23896 -10.19454  -1.21256  -1.04257  -0.92679
 Alpha  occ. eigenvalues --   -0.75555  -0.69631  -0.60331  -0.57074  -0.54760
 Alpha  occ. eigenvalues --   -0.51701  -0.50128  -0.47787  -0.42461  -0.41379
 Alpha  occ. eigenvalues --   -0.38967  -0.32411  -0.32090  -0.30027  -0.28639
 Alpha  occ. eigenvalues --   -0.27236
 Alpha virt. eigenvalues --   -0.05668  -0.01807   0.10224   0.10720   0.12458
 Alpha virt. eigenvalues --    0.12992   0.14652   0.17043   0.18857   0.21240
 Alpha virt. eigenvalues --    0.23591   0.29210   0.32824   0.36572   0.44909

 Mulliken charges:
               1
     1  C   -0.326043
     2  C    0.144674
     3  N    0.449711
     4  O   -0.401564
     5  O   -0.389592
     6  C   -0.058105
     7  C   -0.058089
     8  H    0.107589
     9  H    0.133594
    10  H    0.133646
    11  H    0.132084
    12  H    0.132096
 Sum of Mulliken charges =  -0.00000

 Dipole moment (field-independent basis, Debye):
    X=             -4.1879    Y=              0.5547    Z=             -0.0001  Tot=              4.2245
 Quadrupole moment (field-independent basis, Debye-Ang):
   XX=            -42.6512   YY=            -41.4728   ZZ=            -35.3508
   XY=              1.8881   XZ=             -0.0008   YZ=              0.0022

  Exact polarizability:  53.467   7.489  55.463  -0.003  -0.003  43.806
 Approx polarizability:  77.482  17.951  97.404  -0.003  -0.015  73.673

                      1                      2                      3
                      A                      A                      A
 Frequencies --     33.2026               199.4351               284.3987
 Red. masses --      7.0295                 1.0281                 4.7060
 Frc consts  --      0.0046                 0.0241                 0.2243
 IR Inten    --      0.0243                 0.0302                 2.5137

                      4                      5                      6
                      A                      A                      A
 Frequencies --    294.9636               354.5217               360.0755
 Red. masses --      3.1348                 2.4410                 3.0225
 Frc consts  --      0.1607                 0.1808                 0.2309
 IR Inten    --      0.9316                 0.4341                 8.0868

                      7                      8                      9
                      A                      A                      A
 Frequencies --    494.8478               560.9168               678.0734
 Red. masses --      5.5642                 3.3376                 1.5201
 Frc consts  --      0.8028                 0.6187                 0.4118
 IR Inten    --      5.4876                 0.0299                66.6620

                     10                     11                     12
                      A                      A                      A
 Frequencies --    736.6746               827.3202               857.4923
 Red. masses --      6.7252                 4.1718                 1.4945
 Frc consts  --      2.1503                 1.6824                 0.6475
 IR Inten    --      7.9907                24.3510                 0.2352

                     13                     14                     15
                      A                      A                      A
 Frequencies --    884.7781               886.4149               985.4595
 Red. masses --      3.5670                 2.4149                 1.2746
 Frc consts  --      1.6452                 1.1179                 0.7293
 IR Inten    --     12.1344                 0.6132                 0.0010

                     16                     17                     18
                      A                      A                      A
 Frequencies --   1040.7785              1104.5302              1116.0991
 Red. masses --      1.6240                 1.8261                 1.8259
 Frc consts  --      1.0364                 1.3126                 1.3401
 IR Inten    --     23.8340                11.3883                 0.8187

                     19                     20                     21
                      A                      A                      A
 Frequencies --   1306.0403              1416.9015              1432.1820
 Red. masses --      6.2971                 6.2448                 1.4486
 Frc consts  --      6.3285                 7.3867                 1.7506
 IR Inten    --     30.3164                73.4333                36.5936

                     22                     23                     24
                      A                      A                      A
 Frequencies --   1496.4916              1503.4714              1659.4363
 Red. masses --      1.0445                 1.0469                13.8710
 Frc consts  --      1.3782                 1.3942                22.5050
 IR Inten    --      5.3811                 6.5126               228.4253

                     25                     26                     27
                      A                      A                      A
 Frequencies --   1749.8229              3065.8523              3141.7860
 Red. masses --      5.2214                 1.0351                 1.1028
 Frc consts  --      9.4194                 5.7322                 6.4137
 IR Inten    --      8.9652                12.0505                10.2002

                     28                     29                     30
                      A                      A                      A
 Frequencies --   3145.5722              3278.7028              3324.4876
 Red. masses --      1.1038                 1.0857                 1.1481
 Frc consts  --      6.4350                 6.8763                 7.4764
 IR Inten    --     13.6924                 4.2719                 2.3996

 - Thermochemistry -
 -------------------
 Temperature   298.150 Kelvin.  Pressure   1.00000 Atm.
 Atom     1 has atomic number  6 and mass  12.00000

 Molecular mass:    99.03203 amu.
 Principal axes and moments of inertia in atomic units:
                           1         2         3
     Eigenvalues --   436.58536 614.44231 931.33612
           X            0.99994  -0.01054  -0.00001
           Y            0.01054   0.99994   0.00002
           Z            0.00001  -0.00002   1.00000
 This molecule is an asymmetric top.
 Rotational symmetry number  1.
 Warning -- assumption of classical behavior for rotation
           may cause significant error
 Rotational temperatures (Kelvin)      0.19839     0.14096     0.09300
 Rotational constants (GHZ):           4.13376     2.93720     1.93780
 Zero-point vibrational energy     228610.7 (Joules/Mol)
                                   54.63928 (Kcal/Mol)
 Warning -- explicit consideration of   8 degrees of freedom as
           vibrations may cause significant error
 Vibrational temperatures:     47.77   286.94   409.19   424.39   510.08
          (Kelvin)            518.07   711.97   807.03   975.60  1059.91
                             1190.33  1233.74  1273.00  1275.35  1417.85
                             1497.45  1589.17  1605.82  1879.10  2038.60
                             2060.59  2153.11  2163.16  2387.56  2517.60
                             4411.07  4520.32  4525.77  4717.32  4783.19

 Zero-point correction=                           0.087073 (Hartree/Particle)
 Thermal correction to Energy=                    0.093947
 Thermal correction to Enthalpy=                  0.094892
 Thermal correction to Gibbs Free Energy=         0.055683
 Sum of electronic and zero-point Energies=           -360.367361
 Sum of electronic and thermal Energies=              -360.360487
 Sum of electronic and thermal Enthalpies=            -360.359543
 Sum of electronic and thermal Free Energies=         -360.398751

                     E (Thermal)             CV                S
                      KCal/Mol        Cal/Mol-Kelvin    Cal/Mol-Kelvin
 Total                   58.953             24.342             82.521
 Electronic               0.000              0.000              0.000
 Translational            0.889              2.981             39.689
 Rotational               0.889              2.981             27.016
 Vibrational             57.175             18.381             15.816
 Vibration     1          0.594              1.983              5.628
 Vibration     2          0.638              1.841              2.138
 Vibration     3          0.683              1.703              1.507
 Vibration     4          0.689              1.683              1.445
 Vibration     5          0.730              1.566              1.146
 Vibration     6          0.735              1.555              1.122
 Vibration     7          0.850              1.261              0.671
 Vibration     8          0.917              1.116              0.522

 Normal termination of Gaussian 09 at Sat Aug 21 01:37:44 2021.
