 Gaussian 09, Revision E.01,
 Gaussian 09:  ES64L-G09RevE.01 30-Nov-2015

 ----------------------------
 #P OPT Freq B3LYP/6-31G(d,p)
 ----------------------------

 ---------
 Frag_1159
 ---------
 Symbolic Z-matrix:
 Charge =  0 Multiplicity = 1

 SCF Done:  E(RB3LYP) =  -284.369298038     A.U. after   14 cycles
 SCF Done:  E(RB3LYP) =  -284.369426890     A.U. after    9 cycles
 SCF Done:  E(RB3LYP) =  -284.369451156     A.U. after    9 cycles
 SCF Done:  E(RB3LYP) =  -284.369462475     A.U. after   11 cycles
 SCF Done:  E(RB3LYP) =  -284.369475216     A.U. after    9 cycles
 SCF Done:  E(RB3LYP) =  -284.369484790     A.U. after    9 cycles
 SCF Done:  E(RB3LYP) =  -284.369486780     A.U. after    9 cycles
 SCF Done:  E(RB3LYP) =  -284.369487170     A.U. after    7 cycles
 SCF Done:  E(RB3LYP) =  -284.369487401     A.U. after    8 cycles
 Optimization completed.
    -- Stationary point found.
 Normal termination of Gaussian 09 at Thu Sep  8 14:52:39 2022.

 ----------------------------------------------------------------------
 #P Geom=AllCheck Guess=TCheck SCRF=Check GenChk RB3LYP/6-31G(d,p) Freq
 ----------------------------------------------------------------------

 Structure from the checkpoint file:  "B3LYP6-31Gdp.Frag_1159.chk"
 ---------
 Frag_1159
 ---------
 Charge =  0 Multiplicity = 1

                         Standard orientation:
 ---------------------------------------------------------------------
 Center     Atomic      Atomic             Coordinates (Angstroms)
 Number     Number       Type             X           Y           Z
 ---------------------------------------------------------------------
      1          6           0        0.617003    1.370854    0.033843
      2          7           0        0.357413   -0.040185   -0.185854
      3          8           0        1.430849   -0.887197    0.160296
      4          6           0       -0.886708   -0.595717    0.001620
      5          8           0       -1.924186    0.040085    0.018047
      6          1           0       -0.331174    1.892164   -0.102852
      7          1           0        1.349141    1.739837   -0.690159
      8          1           0        0.991969    1.544376    1.048597
      9          1           0        1.871604   -1.074385   -0.683304
     10          1           0       -0.818505   -1.694619    0.089170
 ---------------------------------------------------------------------

 SCF Done:  E(RB3LYP) =  -284.369487401     A.U. after    1 cycles

 The electronic state is 1-A.
 Alpha  occ. eigenvalues --  -19.20893 -19.12644 -14.41665 -10.28862 -10.22645
 Alpha  occ. eigenvalues --   -1.10451  -1.03177  -0.87482  -0.72605  -0.59508
 Alpha  occ. eigenvalues --   -0.55523  -0.50049  -0.47273  -0.42658  -0.42182
 Alpha  occ. eigenvalues --   -0.40559  -0.38147  -0.33138  -0.26372  -0.25212
 Alpha virt. eigenvalues --    0.01226   0.05245   0.09832   0.12989   0.13997
 Alpha virt. eigenvalues --    0.16410   0.17548   0.20172   0.29406   0.32893
 Alpha virt. eigenvalues --    0.49869   0.51136   0.53361   0.57747   0.63405

 Mulliken charges:
               1
     1  C   -0.169230
     2  N   -0.202208
     3  O   -0.420794
     4  C    0.422615
     5  O   -0.461236
     6  H    0.157907
     7  H    0.115712
     8  H    0.133610
     9  H    0.337613
    10  H    0.086010
 Sum of Mulliken charges =  -0.00000

 Dipole moment (field-independent basis, Debye):
    X=              3.2064    Y=             -0.0774    Z=             -1.1547  Tot=              3.4088
 Quadrupole moment (field-independent basis, Debye-Ang):
   XX=            -33.5794   YY=            -25.9291   ZZ=            -28.4941
   XY=              0.8670   XZ=             -2.8108   YZ=              1.6990

  Exact polarizability:  45.313  -0.390  37.762  -1.803   0.068  24.149
 Approx polarizability:  71.549  -6.260  48.962  -3.182  -0.548  34.124

                      1                      2                      3
                      A                      A                      A
 Frequencies --    150.9377               226.3595               293.8397
 Red. masses --      1.4453                 2.1172                 2.2300
 Frc consts  --      0.0194                 0.0639                 0.1134
 IR Inten    --      0.7074                 4.3483                24.1237

                      4                      5                      6
                      A                      A                      A
 Frequencies --    301.1749               397.5904               432.0256
 Red. masses --      3.8297                 1.1175                 4.7629
 Frc consts  --      0.2047                 0.1041                 0.5238
 IR Inten    --     17.8161                95.1413                20.0633

                      7                      8                      9
                      A                      A                      A
 Frequencies --    649.6443               854.1938              1023.1492
 Red. masses --      6.9863                 4.1214                 1.6131
 Frc consts  --      1.7372                 1.7718                 0.9949
 IR Inten    --      4.8900                21.2597                 2.2789

                     10                     11                     12
                      A                      A                      A
 Frequencies --   1066.7778              1155.1382              1188.6214
 Red. masses --      2.1906                 1.3102                 2.8761
 Frc consts  --      1.4688                 1.0300                 2.3941
 IR Inten    --     28.5283                 8.3966                77.1358

                     13                     14                     15
                      A                      A                      A
 Frequencies --   1367.8239              1385.7970              1429.2019
 Red. masses --      2.1435                 1.2570                 1.3886
 Frc consts  --      2.3628                 1.4223                 1.6711
 IR Inten    --     60.7461                64.3681                34.9770

                     16                     17                     18
                      A                      A                      A
 Frequencies --   1440.7991              1498.0744              1528.0843
 Red. masses --      1.2881                 1.0453                 1.1092
 Frc consts  --      1.5754                 1.3821                 1.5260
 IR Inten    --      8.1321                10.6495                 8.2983

                     19                     20                     21
                      A                      A                      A
 Frequencies --   1800.2890              3005.6275              3046.0619
 Red. masses --      8.7646                 1.0879                 1.0353
 Frc consts  --     16.7366                 5.7904                 5.6596
 IR Inten    --    278.3740                66.2823                32.5409

                     22                     23                     24
                      A                      A                      A
 Frequencies --   3113.2005              3169.7351              3750.1927
 Red. masses --      1.1052                 1.1009                 1.0685
 Frc consts  --      6.3112                 6.5170                 8.8539
 IR Inten    --     26.9997                 1.2860                28.7541

 - Thermochemistry -
 -------------------
 Temperature   298.150 Kelvin.  Pressure   1.00000 Atm.
 Atom     1 has atomic number  6 and mass  12.00000

 Molecular mass:    75.03203 amu.
 Principal axes and moments of inertia in atomic units:
                           1         2         3
     Eigenvalues --   197.66310 420.93814 597.42629
           X            0.99900   0.04348  -0.01046
           Y           -0.04332   0.99894   0.01537
           Z            0.01112  -0.01490   0.99983
 This molecule is an asymmetric top.
 Rotational symmetry number  1.
 Rotational temperatures (Kelvin)      0.43819     0.20576     0.14498
 Rotational constants (GHZ):           9.13039     4.28743     3.02086
 Zero-point vibrational energy     205006.1 (Joules/Mol)
                                   48.99763 (Kcal/Mol)
 Warning -- explicit consideration of   6 degrees of freedom as
           vibrations may cause significant error
 Vibrational temperatures:    217.17   325.68   422.77   433.32   572.04
          (Kelvin)            621.59   934.69  1228.99  1472.08  1534.85
                             1661.98  1710.16  1967.99  1993.85  2056.30
                             2072.99  2155.39  2198.57  2590.21  4324.42
                             4382.60  4479.20  4560.54  5395.68

 Zero-point correction=                           0.078083 (Hartree/Particle)
 Thermal correction to Energy=                    0.083854
 Thermal correction to Enthalpy=                  0.084798
 Thermal correction to Gibbs Free Energy=         0.049442
 Sum of electronic and zero-point Energies=           -284.291405
 Sum of electronic and thermal Energies=              -284.285634
 Sum of electronic and thermal Enthalpies=            -284.284690
 Sum of electronic and thermal Free Energies=         -284.320045

                     E (Thermal)             CV                S
                      KCal/Mol        Cal/Mol-Kelvin    Cal/Mol-Kelvin
 Total                   52.619             19.087             74.412
 Electronic               0.000              0.000              0.000
 Translational            0.889              2.981             38.862
 Rotational               0.889              2.981             25.411
 Vibrational             50.842             13.126             10.139
 Vibration     1          0.618              1.902              2.660
 Vibration     2          0.650              1.801              1.908
 Vibration     3          0.689              1.685              1.452
 Vibration     4          0.693              1.671              1.410
 Vibration     5          0.764              1.475              0.972
 Vibration     6          0.793              1.400              0.852

 Optimization completed.
    -- Stationary point found.
 Normal termination of Gaussian 09 at Thu Sep  8 14:52:46 2022.
