 Gaussian 09, Revision E.01,
 Gaussian 09:  ES64L-G09RevE.01 30-Nov-2015

 ----------------------------
 #P OPT Freq B3LYP/6-31G(d,p)
 ----------------------------

 --------
 Frag_460
 --------
 Symbolic Z-matrix:
 Charge =  0 Multiplicity = 1

 SCF Done:  E(RB3LYP) =  -229.807141123     A.U. after   12 cycles
 SCF Done:  E(RB3LYP) =  -229.807160705     A.U. after    8 cycles
 SCF Done:  E(RB3LYP) =  -229.807163073     A.U. after    7 cycles
 SCF Done:  E(RB3LYP) =  -229.807163518     A.U. after    7 cycles
 Optimization completed.
    -- Stationary point found.
 Normal termination of Gaussian 09 at Thu Sep  8 15:18:40 2022.

 ----------------------------------------------------------------------
 #P Geom=AllCheck Guess=TCheck SCRF=Check GenChk RB3LYP/6-31G(d,p) Freq
 ----------------------------------------------------------------------

 Structure from the checkpoint file:  "B3LYP6-31Gdp.Frag_460.chk"
 --------
 Frag_460
 --------
 Charge =  0 Multiplicity = 1

                         Standard orientation:
 ---------------------------------------------------------------------
 Center     Atomic      Atomic             Coordinates (Angstroms)
 Number     Number       Type             X           Y           Z
 ---------------------------------------------------------------------
      1          6           0       -1.976446   -0.085581   -0.206834
      2          7           0       -0.725796   -0.498359    0.417800
      3          7           0        0.411650   -0.016218   -0.298404
      4          6           0        1.527287   -0.927055   -0.077800
      5          6           0        0.755331    1.359006    0.048850
      6          1           0       -2.804830   -0.464659    0.400400
      7          1           0       -2.040020   -0.534462   -1.201216
      8          1           0       -2.107259    1.004287   -0.317263
      9          1           0       -0.693652   -0.165216    1.388161
     10          1           0        2.374139   -0.619757   -0.700096
     11          1           0        1.221959   -1.935661   -0.361153
     12          1           0        1.867068   -0.950001    0.975210
     13          1           0        1.037678    1.473869    1.114333
     14          1           0       -0.091190    2.019989   -0.156435
     15          1           0        1.598096    1.695435   -0.563002
 ---------------------------------------------------------------------

 SCF Done:  E(RB3LYP) =  -229.807163518     A.U. after    1 cycles

 The electronic state is 1-A.
 Alpha  occ. eigenvalues --  -14.34478 -14.33777 -10.20155 -10.19680 -10.19418
 Alpha  occ. eigenvalues --   -0.96891  -0.81356  -0.70239  -0.66329  -0.59643
 Alpha  occ. eigenvalues --   -0.49742  -0.46667  -0.45643  -0.42625  -0.39779
 Alpha  occ. eigenvalues --   -0.38955  -0.37988  -0.36192  -0.35966  -0.22614
 Alpha  occ. eigenvalues --   -0.21810
 Alpha virt. eigenvalues --    0.07987   0.12030   0.13367   0.14402   0.15159
 Alpha virt. eigenvalues --    0.16309   0.17860   0.17898   0.18587   0.19498
 Alpha virt. eigenvalues --    0.21639   0.23418   0.25740   0.27006   0.51126

 Mulliken charges:
               1
     1  C   -0.149143
     2  N   -0.366974
     3  N   -0.298114
     4  C   -0.133665
     5  C   -0.162681
     6  H    0.101406
     7  H    0.124860
     8  H    0.079610
     9  H    0.216274
    10  H    0.099542
    11  H    0.121722
    12  H    0.071536
    13  H    0.073293
    14  H    0.110763
    15  H    0.111573
 Sum of Mulliken charges =  -0.00000

 Dipole moment (field-independent basis, Debye):
    X=              0.1349    Y=              1.0563    Z=              0.7700  Tot=              1.3141
 Quadrupole moment (field-independent basis, Debye-Ang):
   XX=            -30.6702   YY=            -33.6378   ZZ=            -33.1464
   XY=             -0.5734   XZ=             -0.5788   YZ=              0.5286

  Exact polarizability:  57.413   0.272  47.113  -0.742  -0.010  44.018
 Approx polarizability:  69.917   1.013  62.015  -1.716  -0.411  63.730

                      1                      2                      3
                      A                      A                      A
 Frequencies --    127.0197               228.8290               243.7005
 Red. masses --      2.0263                 1.1281                 1.1841
 Frc consts  --      0.0193                 0.0348                 0.0414
 IR Inten    --      1.1240                 1.3086                 0.2281

                      4                      5                      6
                      A                      A                      A
 Frequencies --    260.3678               298.1966               411.4438
 Red. masses --      1.0679                 2.0464                 2.1639
 Frc consts  --      0.0427                 0.1072                 0.2158
 IR Inten    --      0.3612                 5.2155                 1.0442

                      7                      8                      9
                      A                      A                      A
 Frequencies --    431.2329               499.7024               761.7464
 Red. masses --      2.2653                 2.8647                 2.9585
 Frc consts  --      0.2482                 0.4215                 1.0115
 IR Inten    --      4.9971                 4.0157                30.1693

                     10                     11                     12
                      A                      A                      A
 Frequencies --    901.1531               990.2350              1036.5184
 Red. masses --      1.5027                 2.0122                 1.6458
 Frc consts  --      0.7190                 1.1625                 1.0418
 IR Inten    --     67.2261                12.4774                14.4291

                     13                     14                     15
                      A                      A                      A
 Frequencies --   1119.1555              1120.9836              1152.1004
 Red. masses --      2.2399                 1.4639                 1.4151
 Frc consts  --      1.6530                 1.0838                 1.1067
 IR Inten    --     18.5610                 1.6288                 6.0949

                     16                     17                     18
                      A                      A                      A
 Frequencies --   1166.0757              1231.7528              1256.9248
 Red. masses --      1.4385                 1.7638                 2.6426
 Frc consts  --      1.1524                 1.5767                 2.4598
 IR Inten    --      1.7087                10.5544                 3.5111

                     19                     20                     21
                      A                      A                      A
 Frequencies --   1287.4213              1443.8581              1455.0429
 Red. masses --      2.5588                 1.1710                 1.1811
 Frc consts  --      2.4988                 1.4384                 1.4733
 IR Inten    --      0.0499                 0.9018                 1.4141

                     22                     23                     24
                      A                      A                      A
 Frequencies --   1465.5146              1488.1281              1492.8983
 Red. masses --      1.1467                 1.0850                 1.0789
 Frc consts  --      1.4510                 1.4157                 1.4168
 IR Inten    --      1.8983                 6.7545                 5.2436

                     25                     26                     27
                      A                      A                      A
 Frequencies --   1501.2155              1509.8267              1517.3839
 Red. masses --      1.0580                 1.0598                 1.0768
 Frc consts  --      1.4048                 1.4234                 1.4607
 IR Inten    --      4.3367                 9.8944                 5.0373

                     28                     29                     30
                      A                      A                      A
 Frequencies --   1522.0185              1540.3568              2921.4984
 Red. masses --      1.0617                 1.0855                 1.0608
 Frc consts  --      1.4490                 1.5175                 5.3346
 IR Inten    --      4.1842                11.9090                54.9868

                     31                     32                     33
                      A                      A                      A
 Frequencies --   2940.4215              2971.7574              3077.9290
 Red. masses --      1.0608                 1.0573                 1.0735
 Frc consts  --      5.4038                 5.5016                 5.9922
 IR Inten    --    122.6743                75.4442                17.5262

                     34                     35                     36
                      A                      A                      A
 Frequencies --   3081.5953              3083.3360              3124.8071
 Red. masses --      1.0766                 1.0720                 1.1035
 Frc consts  --      6.0234                 6.0046                 6.3484
 IR Inten    --     49.6814                45.4180                28.1912

                     37                     38                     39
                      A                      A                      A
 Frequencies --   3132.1034              3147.4122              3360.4574
 Red. masses --      1.1028                 1.1010                 1.0735
 Frc consts  --      6.3742                 6.4258                 7.1424
 IR Inten    --     22.6204                21.1405                24.4506

 - Thermochemistry -
 -------------------
 Temperature   298.150 Kelvin.  Pressure   1.00000 Atm.
 Atom     1 has atomic number  6 and mass  12.00000

 Molecular mass:    74.08440 amu.
 Principal axes and moments of inertia in atomic units:
                           1         2         3
     Eigenvalues --   224.78950 478.75030 624.08247
           X            0.99983  -0.01632   0.00898
           Y            0.01621   0.99980   0.01190
           Z           -0.00917  -0.01175   0.99989
 This molecule is an asymmetric top.
 Rotational symmetry number  1.
 Rotational temperatures (Kelvin)      0.38531     0.18092     0.13879
 Rotational constants (GHZ):           8.02858     3.76969     2.89183
 Zero-point vibrational energy     360686.8 (Joules/Mol)
                                   86.20621 (Kcal/Mol)
 Warning -- explicit consideration of   8 degrees of freedom as
           vibrations may cause significant error
 Vibrational temperatures:    182.75   329.23   350.63   374.61   429.04
          (Kelvin)            591.98   620.45   718.96  1095.98  1296.56
                             1424.73  1491.32  1610.21  1612.84  1657.61
                             1677.72  1772.22  1808.43  1852.31  2077.39
                             2093.48  2108.55  2141.08  2147.94  2159.91
                             2172.30  2183.17  2189.84  2216.23  4203.38
                             4230.61  4275.69  4428.45  4433.72  4436.23
                             4495.89  4506.39  4528.42  4834.94

 Zero-point correction=                           0.137378 (Hartree/Particle)
 Thermal correction to Energy=                    0.143995
 Thermal correction to Enthalpy=                  0.144939
 Thermal correction to Gibbs Free Energy=         0.108022
 Sum of electronic and zero-point Energies=           -229.669785
 Sum of electronic and thermal Energies=              -229.663168
 Sum of electronic and thermal Enthalpies=            -229.662224
 Sum of electronic and thermal Free Energies=         -229.699142

                     E (Thermal)             CV                S
                      KCal/Mol        Cal/Mol-Kelvin    Cal/Mol-Kelvin
 Total                   90.358             23.194             77.700
 Electronic               0.000              0.000              0.000
 Translational            0.889              2.981             38.824
 Rotational               0.889              2.981             25.710
 Vibrational             88.581             17.232             13.166
 Vibration     1          0.611              1.926              2.991
 Vibration     2          0.652              1.797              1.888
 Vibration     3          0.659              1.773              1.776
 Vibration     4          0.668              1.745              1.659
 Vibration     5          0.691              1.677              1.427
 Vibration     6          0.775              1.445              0.922
 Vibration     7          0.792              1.402              0.855
 Vibration     8          0.855              1.251              0.659

 Optimization completed.
    -- Stationary point found.
 Normal termination of Gaussian 09 at Thu Sep  8 15:18:51 2022.
