 Gaussian 09, Revision E.01,
 Gaussian 09:  ES64L-G09RevE.01 30-Nov-2015

 ----------------------------
 #P OPT Freq B3LYP/6-31G(d,p)
 ----------------------------

 --------
 Frag_862
 --------
 Symbolic Z-matrix:
 Charge =  0 Multiplicity = 1

 SCF Done:  E(RB3LYP) =  -327.075291328     A.U. after   15 cycles
 SCF Done:  E(RB3LYP) =  -327.075367087     A.U. after    9 cycles
 SCF Done:  E(RB3LYP) =  -327.075371482     A.U. after    9 cycles
 SCF Done:  E(RB3LYP) =  -327.075373068     A.U. after    8 cycles
 SCF Done:  E(RB3LYP) =  -327.075373028     A.U. after    8 cycles
 SCF Done:  E(RB3LYP) =  -327.075373039     A.U. after    8 cycles
 SCF Done:  E(RB3LYP) =  -327.075373087     A.U. after    7 cycles
 Optimization completed.
    -- Stationary point found.
 Normal termination of Gaussian 09 at Thu Sep  8 15:11:14 2022.

 ----------------------------------------------------------------------
 #P Geom=AllCheck Guess=TCheck SCRF=Check GenChk RB3LYP/6-31G(d,p) Freq
 ----------------------------------------------------------------------

 Structure from the checkpoint file:  "B3LYP6-31Gdp.Frag_862.chk"
 --------
 Frag_862
 --------
 Charge =  0 Multiplicity = 1

                         Standard orientation:
 ---------------------------------------------------------------------
 Center     Atomic      Atomic             Coordinates (Angstroms)
 Number     Number       Type             X           Y           Z
 ---------------------------------------------------------------------
      1          6           0        1.698584    1.064726    0.000008
      2          7           0        0.969433   -0.018850    0.000029
      3          8           0        1.456800   -1.193255    0.000001
      4          6           0       -0.564849    0.028607   -0.000001
      5          6           0       -1.006138   -0.719675    1.265979
      6          6           0       -1.110540    1.459100   -0.000072
      7          6           0       -1.006092   -0.719784   -1.265931
      8          1           0        1.240563    2.038478   -0.000010
      9          1           0        2.770753    0.929434    0.000000
     10          1           0       -0.553540   -1.711433    1.287044
     11          1           0       -0.701709   -0.176109    2.166171
     12          1           0       -2.095498   -0.818123    1.276178
     13          1           0       -0.806385    2.016237   -0.891181
     14          1           0       -2.203388    1.411433   -0.000105
     15          1           0       -0.806442    2.016301    0.891016
     16          1           0       -0.553487   -1.711541   -1.286898
     17          1           0       -0.701636   -0.176292   -2.166159
     18          1           0       -2.095451   -0.818239   -1.276157
 ---------------------------------------------------------------------

 SCF Done:  E(RB3LYP) =  -327.075373087     A.U. after    1 cycles

 The electronic state is 1-A.
 Alpha  occ. eigenvalues --  -19.11113 -14.46623 -10.24601 -10.21286 -10.19466
 Alpha  occ. eigenvalues --  -10.18088 -10.18088  -1.09233  -0.85780  -0.80568
 Alpha  occ. eigenvalues --   -0.70297  -0.69588  -0.64324  -0.54677  -0.50875
 Alpha  occ. eigenvalues --   -0.47354  -0.46848  -0.43938  -0.43027  -0.42253
 Alpha  occ. eigenvalues --   -0.40157  -0.38026  -0.37465  -0.37140  -0.34341
 Alpha  occ. eigenvalues --   -0.34130  -0.23533  -0.21496
 Alpha virt. eigenvalues --   -0.01307   0.07776   0.10306   0.12979   0.13812
 Alpha virt. eigenvalues --    0.14354   0.15808   0.15976   0.16758   0.18731
 Alpha virt. eigenvalues --    0.19505   0.20056   0.21231   0.22127   0.23090

 Mulliken charges:
               1
     1  C   -0.102466
     2  N    0.103342
     3  O   -0.493718
     4  C    0.119467
     5  C   -0.298473
     6  C   -0.334258
     7  C   -0.298473
     8  H    0.116511
     9  H    0.129565
    10  H    0.146380
    11  H    0.106216
    12  H    0.103245
    13  H    0.114881
    14  H    0.117060
    15  H    0.114880
    16  H    0.146384
    17  H    0.106216
    18  H    0.103242
 Sum of Mulliken charges =  -0.00000

 Dipole moment (field-independent basis, Debye):
    X=             -2.1373    Y=              2.6592    Z=             -0.0000  Tot=              3.4116
 Quadrupole moment (field-independent basis, Debye-Ang):
   XX=            -44.3017   YY=            -44.7910   ZZ=            -43.9964
   XY=              4.5440   XZ=             -0.0000   YZ=             -0.0000

  Exact polarizability:  69.821   5.391  72.663  -0.000   0.000  52.583
 Approx polarizability:  94.020   8.113 132.452  -0.000   0.000  71.599

                      1                      2                      3
                      A                      A                      A
 Frequencies --     76.6180               208.5015               263.9813
 Red. masses --      3.9087                 1.0820                 1.0286
 Frc consts  --      0.0135                 0.0277                 0.0422
 IR Inten    --      5.2287                 0.0323                 0.7885

                      4                      5                      6
                      A                      A                      A
 Frequencies --    288.7238               306.7558               323.9831
 Red. masses --      2.2235                 2.7266                 1.0967
 Frc consts  --      0.1092                 0.1512                 0.0678
 IR Inten    --      2.5620                 3.8705                 0.2906

                      7                      8                      9
                      A                      A                      A
 Frequencies --    367.1479               380.5621               394.0821
 Red. masses --      2.8791                 2.0964                 2.8113
 Frc consts  --      0.2287                 0.1789                 0.2572
 IR Inten    --      6.3054                 0.0728                 1.3866

                     10                     11                     12
                      A                      A                      A
 Frequencies --    504.3056               548.9574               626.9828
 Red. masses --      2.9281                 3.0769                 1.5215
 Frc consts  --      0.4388                 0.5463                 0.3524
 IR Inten    --      4.0564                 7.9545                 0.0577

                     13                     14                     15
                      A                      A                      A
 Frequencies --    706.8281               709.8457               797.3737
 Red. masses --      1.6280                 3.0983                 1.6343
 Frc consts  --      0.4792                 0.9198                 0.6122
 IR Inten    --     19.9925                 2.4048                36.4856

                     16                     17                     18
                      A                      A                      A
 Frequencies --    825.0683               940.1431               941.1149
 Red. masses --      2.6104                 1.6816                 1.5513
 Frc consts  --      1.0470                 0.8757                 0.8095
 IR Inten    --      0.6377                 0.3457                 0.4027

                     19                     20                     21
                      A                      A                      A
 Frequencies --    974.5526              1053.8286              1056.2238
 Red. masses --      1.2080                 1.4002                 1.4216
 Frc consts  --      0.6760                 0.9162                 0.9344
 IR Inten    --      0.2451                 0.0079                 0.1716

                     22                     23                     24
                      A                      A                      A
 Frequencies --   1102.9722              1227.6250              1265.5352
 Red. masses --      1.9889                 2.1119                 2.8201
 Frc consts  --      1.4256                 1.8752                 2.6612
 IR Inten    --     33.4201                29.1343                 7.2701

                     25                     26                     27
                      A                      A                      A
 Frequencies --   1280.3950              1335.6227              1402.5263
 Red. masses --      2.9289                 2.6191                 1.2509
 Frc consts  --      2.8291                 2.7527                 1.4498
 IR Inten    --     25.1544                28.3798                10.6164

                     28                     29                     30
                      A                      A                      A
 Frequencies --   1404.8969              1439.0780              1465.0394
 Red. masses --      1.2584                 1.2499                 1.3927
 Frc consts  --      1.4633                 1.5251                 1.7611
 IR Inten    --     23.6272                 7.9648                13.4171

                     31                     32                     33
                      A                      A                      A
 Frequencies --   1484.8504              1509.4207              1509.5799
 Red. masses --      1.0475                 1.0456                 1.0623
 Frc consts  --      1.3607                 1.4036                 1.4263
 IR Inten    --      0.0292                 0.0052                 1.2615

                     34                     35                     36
                      A                      A                      A
 Frequencies --   1510.9512              1517.2467              1540.7611
 Red. masses --      1.0692                 1.0496                 1.0568
 Frc consts  --      1.4382                 1.4236                 1.4782
 IR Inten    --      7.2717                 5.3077                11.0835

                     37                     38                     39
                      A                      A                      A
 Frequencies --   1639.8720              3049.2438              3054.4019
 Red. masses --      5.8725                 1.0355                 1.0367
 Frc consts  --      9.3045                 5.6726                 5.6986
 IR Inten    --    108.8091                 9.7978                26.1006

                     40                     41                     42
                      A                      A                      A
 Frequencies --   3059.7599              3121.9334              3122.6447
 Red. masses --      1.0380                 1.1023                 1.1032
 Frc consts  --      5.7257                 6.3296                 6.3380
 IR Inten    --     11.7015                 0.1920                 1.6147

                     43                     44                     45
                      A                      A                      A
 Frequencies --   3128.2214              3129.6142              3164.9877
 Red. masses --      1.1034                 1.1012                 1.1013
 Frc consts  --      6.3616                 6.3550                 6.4999
 IR Inten    --     33.8913                49.8101                 0.5379

                     46                     47                     48
                      A                      A                      A
 Frequencies --   3168.7842              3218.8690              3349.8191
 Red. masses --      1.1007                 1.0530                 1.1226
 Frc consts  --      6.5119                 6.4282                 7.4219
 IR Inten    --      8.2511                 0.9520                 0.3238

 - Thermochemistry -
 -------------------
 Temperature   298.150 Kelvin.  Pressure   1.00000 Atm.
 Atom     1 has atomic number  6 and mass  12.00000

 Molecular mass:   101.08406 amu.
 Principal axes and moments of inertia in atomic units:
                           1         2         3
     Eigenvalues --   545.28333 737.94245 882.24438
           X            0.99712   0.07586  -0.00000
           Y           -0.07586   0.99712  -0.00000
           Z            0.00000   0.00000   1.00000
 This molecule is an asymmetric top.
 Rotational symmetry number  1.
 Warning -- assumption of classical behavior for rotation
           may cause significant error
 Rotational temperatures (Kelvin)      0.15884     0.11737     0.09817
 Rotational constants (GHZ):           3.30973     2.44564     2.04563
 Zero-point vibrational energy     415703.7 (Joules/Mol)
                                   99.35557 (Kcal/Mol)
 Warning -- explicit consideration of  11 degrees of freedom as
           vibrations may cause significant error
 Vibrational temperatures:    110.24   299.99   379.81   415.41   441.35
          (Kelvin)            466.14   528.24   547.54   567.00   725.58
                              789.83   902.09  1016.97  1021.31  1147.24
                             1187.09  1352.65  1354.05  1402.16  1516.22
                             1519.67  1586.93  1766.28  1820.82  1842.20
                             1921.66  2017.92  2021.33  2070.51  2107.86
                             2136.37  2171.72  2171.95  2173.92  2182.98
                             2216.81  2359.41  4387.18  4394.60  4402.31
                             4491.76  4492.78  4500.81  4502.81  4553.71
                             4559.17  4631.23  4819.64

 Zero-point correction=                           0.158333 (Hartree/Particle)
 Thermal correction to Energy=                    0.166435
 Thermal correction to Enthalpy=                  0.167380
 Thermal correction to Gibbs Free Energy=         0.126780
 Sum of electronic and zero-point Energies=           -326.917040
 Sum of electronic and thermal Energies=              -326.908938
 Sum of electronic and thermal Enthalpies=            -326.907993
 Sum of electronic and thermal Free Energies=         -326.948593

                     E (Thermal)             CV                S
                      KCal/Mol        Cal/Mol-Kelvin    Cal/Mol-Kelvin
 Total                  104.440             30.986             85.448
 Electronic               0.000              0.000              0.000
 Translational            0.889              2.981             39.750
 Rotational               0.889              2.981             27.365
 Vibrational            102.662             25.024             18.334
 Vibration     1          0.599              1.965              3.976
 Vibration     2          0.642              1.828              2.057
 Vibration     3          0.671              1.739              1.635
 Vibration     4          0.685              1.695              1.481
 Vibration     5          0.697              1.661              1.380
 Vibration     6          0.709              1.627              1.290
 Vibration     7          0.740              1.540              1.092
 Vibration     8          0.750              1.512              1.037
 Vibration     9          0.761              1.483              0.985
 Vibration    10          0.860              1.240              0.647
 Vibration    11          0.904              1.142              0.546

 Optimization completed.
    -- Stationary point found.
 Normal termination of Gaussian 09 at Thu Sep  8 15:11:32 2022.
