 Gaussian 09, Revision E.01,
 Gaussian 09:  ES64L-G09RevE.01 30-Nov-2015

 ----------------------------
 #P OPT Freq B3LYP/6-31G(d,p)
 ----------------------------

 --------
 Frag_542
 --------
 Symbolic Z-matrix:
 Charge =  0 Multiplicity = 1

 SCF Done:  E(RB3LYP) =  -363.076736905     A.U. after   14 cycles
 SCF Done:  E(RB3LYP) =  -363.076797225     A.U. after   11 cycles
 SCF Done:  E(RB3LYP) =  -363.076476609     A.U. after   12 cycles
 SCF Done:  E(RB3LYP) =  -363.076841776     A.U. after    8 cycles
 SCF Done:  E(RB3LYP) =  -363.076838717     A.U. after   11 cycles
 SCF Done:  E(RB3LYP) =  -363.076847641     A.U. after   11 cycles
 SCF Done:  E(RB3LYP) =  -363.076860935     A.U. after    9 cycles
 SCF Done:  E(RB3LYP) =  -363.076861326     A.U. after    8 cycles
 SCF Done:  E(RB3LYP) =  -363.076861569     A.U. after    8 cycles
 SCF Done:  E(RB3LYP) =  -363.076861568     A.U. after    8 cycles
 Optimization completed.
    -- Stationary point found.
 Normal termination of Gaussian 09 at Thu Sep  8 15:04:45 2022.

 ----------------------------------------------------------------------
 #P Geom=AllCheck Guess=TCheck SCRF=Check GenChk RB3LYP/6-31G(d,p) Freq
 ----------------------------------------------------------------------

 Structure from the checkpoint file:  "B3LYP6-31Gdp.Frag_542.chk"
 --------
 Frag_542
 --------
 Charge =  0 Multiplicity = 1

                         Standard orientation:
 ---------------------------------------------------------------------
 Center     Atomic      Atomic             Coordinates (Angstroms)
 Number     Number       Type             X           Y           Z
 ---------------------------------------------------------------------
      1          6           0       -1.012691   -0.188202    1.439156
      2          6           0       -0.552084    0.011278   -0.015571
      3          6           0       -1.183925   -1.036301   -0.941124
      4          7           0       -0.848662    1.406560   -0.420913
      5          6           0        0.994210   -0.158105   -0.024350
      6          8           0        1.534873   -1.238737    0.031227
      7          8           0        1.665353    1.001314   -0.051172
      8          1           0       -0.691199   -1.166425    1.802312
      9          1           0       -2.105517   -0.134249    1.504290
     10          1           0       -0.585265    0.579524    2.091870
     11          1           0       -2.276264   -0.997024   -0.876183
     12          1           0       -0.892703   -0.864100   -1.983479
     13          1           0       -0.845061   -2.036800   -0.665934
     14          1           0       -1.691856    1.748181    0.031415
     15          1           0       -1.003710    1.463759   -1.424943
     16          1           0        0.957341    1.688580   -0.122059
 ---------------------------------------------------------------------

 SCF Done:  E(RB3LYP) =  -363.076861568     A.U. after    1 cycles

 The electronic state is 1-A.
 Alpha  occ. eigenvalues --  -19.17269 -19.11913 -14.35276 -10.30117 -10.24754
 Alpha  occ. eigenvalues --  -10.19655 -10.18953  -1.08426  -1.00228  -0.91850
 Alpha  occ. eigenvalues --   -0.77746  -0.70675  -0.63642  -0.57849  -0.52540
 Alpha  occ. eigenvalues --   -0.50009  -0.47860  -0.44232  -0.42783  -0.42140
 Alpha  occ. eigenvalues --   -0.40016  -0.39399  -0.38939  -0.35767  -0.34818
 Alpha  occ. eigenvalues --   -0.29746  -0.29343  -0.24803
 Alpha virt. eigenvalues --    0.02158   0.05392   0.10868   0.11482   0.13704
 Alpha virt. eigenvalues --    0.14447   0.15150   0.16195   0.18252   0.19123
 Alpha virt. eigenvalues --    0.19846   0.20925   0.25236   0.26049   0.34848

 Mulliken charges:
               1
     1  C   -0.317518
     2  C    0.053958
     3  C   -0.308803
     4  N   -0.643826
     5  C    0.619186
     6  O   -0.474815
     7  O   -0.497415
     8  H    0.143395
     9  H    0.103921
    10  H    0.119483
    11  H    0.096823
    12  H    0.104585
    13  H    0.144383
    14  H    0.256953
    15  H    0.259694
    16  H    0.339995
 Sum of Mulliken charges =  -0.00000

 Dipole moment (field-independent basis, Debye):
    X=             -4.7879    Y=              2.1511    Z=             -0.4915  Tot=              5.2719
 Quadrupole moment (field-independent basis, Debye-Ang):
   XX=            -46.8705   YY=            -43.2202   ZZ=            -39.3484
   XY=              0.5442   XZ=              0.3005   YZ=             -0.9749

  Exact polarizability:  55.624  -1.757  57.622  -0.057  -0.426  48.445
 Approx polarizability:  76.736  -5.378  89.552  -0.353  -1.748  65.292

                      1                      2                      3
                      A                      A                      A
 Frequencies --     64.0424               224.8751               254.1456
 Red. masses --      4.6797                 1.8870                 1.3351
 Frc consts  --      0.0113                 0.0562                 0.0508
 IR Inten    --      0.8396                 2.5822                 1.1198

                      4                      5                      6
                      A                      A                      A
 Frequencies --    268.4575               296.5582               298.0923
 Red. masses --      1.2758                 1.2115                 1.9018
 Frc consts  --      0.0542                 0.0628                 0.0996
 IR Inten    --      3.6688                 8.7814                25.7147

                      7                      8                      9
                      A                      A                      A
 Frequencies --    351.0950               389.8984               414.9243
 Red. masses --      2.5108                 3.3931                 2.6503
 Frc consts  --      0.1824                 0.3039                 0.2688
 IR Inten    --      1.9600                 5.5771                 3.2072

                     10                     11                     12
                      A                      A                      A
 Frequencies --    549.9269               582.4633               754.8554
 Red. masses --      4.9248                 3.2143                 6.3100
 Frc consts  --      0.8775                 0.6425                 2.1184
 IR Inten    --      0.3431                 3.1117                 7.6581

                     13                     14                     15
                      A                      A                      A
 Frequencies --    759.0473               843.2379               900.1144
 Red. masses --      6.8442                 2.2719                 1.1850
 Frc consts  --      2.3233                 0.9518                 0.5657
 IR Inten    --      6.0937                49.9654                79.7145

                     16                     17                     18
                      A                      A                      A
 Frequencies --    940.9671               952.7375               982.6960
 Red. masses --      1.2610                 1.5291                 1.8236
 Frc consts  --      0.6578                 0.8178                 1.0376
 IR Inten    --     83.4751                 0.7798                 2.0595

                     19                     20                     21
                      A                      A                      A
 Frequencies --   1030.9755              1082.9235              1188.1091
 Red. masses --      1.3093                 1.5109                 3.2909
 Frc consts  --      0.8200                 1.0440                 2.7370
 IR Inten    --      6.5401                 2.6598                43.0735

                     22                     23                     24
                      A                      A                      A
 Frequencies --   1237.7430              1267.1156              1324.6505
 Red. masses --      2.7424                 2.7185                 1.9186
 Frc consts  --      2.4754                 2.5717                 1.9835
 IR Inten    --     29.8523                13.2341                 2.1239

                     25                     26                     27
                      A                      A                      A
 Frequencies --   1408.5466              1427.4182              1444.0222
 Red. masses --      1.2494                 1.2315                 1.5497
 Frc consts  --      1.4605                 1.4783                 1.9039
 IR Inten    --      9.2744                10.4593               410.3961

                     28                     29                     30
                      A                      A                      A
 Frequencies --   1493.1983              1505.5122              1513.4667
 Red. masses --      1.0470                 1.0480                 1.0565
 Frc consts  --      1.3754                 1.3995                 1.4259
 IR Inten    --      0.3526                 3.2959                 6.1350

                     31                     32                     33
                      A                      A                      A
 Frequencies --   1527.0921              1662.4705              1865.7294
 Red. masses --      1.0647                 1.0951                 9.6124
 Frc consts  --      1.4628                 1.7833                19.7142
 IR Inten    --     17.9515                36.3327               262.8556

                     34                     35                     36
                      A                      A                      A
 Frequencies --   3042.0284              3045.8902              3110.1543
 Red. masses --      1.0376                 1.0385                 1.1029
 Frc consts  --      5.6571                 5.6766                 6.2857
 IR Inten    --     22.2364                15.1172                22.4261

                     37                     38                     39
                      A                      A                      A
 Frequencies --   3115.0921              3149.8106              3154.3395
 Red. masses --      1.1017                 1.1010                 1.0998
 Frc consts  --      6.2985                 6.4359                 6.4474
 IR Inten    --     26.7985                 2.4574                12.6552

                     40                     41                     42
                      A                      A                      A
 Frequencies --   3417.3062              3502.9592              3590.2011
 Red. masses --      1.0644                 1.0501                 1.0937
 Frc consts  --      7.3236                 7.5919                 8.3062
 IR Inten    --    263.7957                 0.3221                 3.6980

 - Thermochemistry -
 -------------------
 Temperature   298.150 Kelvin.  Pressure   1.00000 Atm.
 Atom     1 has atomic number  6 and mass  12.00000

 Molecular mass:   103.06333 amu.
 Principal axes and moments of inertia in atomic units:
                           1         2         3
     Eigenvalues --   545.61545 743.50881 894.64004
           X            0.99884   0.04805  -0.00044
           Y           -0.04804   0.99874   0.01440
           Z            0.00113  -0.01436   0.99990
 This molecule is an asymmetric top.
 Rotational symmetry number  1.
 Warning -- assumption of classical behavior for rotation
           may cause significant error
 Rotational temperatures (Kelvin)      0.15875     0.11649     0.09681
 Rotational constants (GHZ):           3.30772     2.42733     2.01728
 Zero-point vibrational energy     358490.2 (Joules/Mol)
                                   85.68123 (Kcal/Mol)
 Warning -- explicit consideration of  11 degrees of freedom as
           vibrations may cause significant error
 Vibrational temperatures:     92.14   323.54   365.66   386.25   426.68
          (Kelvin)            428.89   505.15   560.98   596.98   791.22
                              838.03  1086.07  1092.10  1213.23  1295.06
                             1353.84  1370.78  1413.88  1483.34  1558.08
                             1709.42  1780.83  1823.09  1905.87  2026.58
                             2053.73  2077.62  2148.38  2166.09  2177.54
                             2197.14  2391.92  2684.37  4376.79  4382.35
                             4474.81  4481.92  4531.87  4538.39  4916.74
                             5039.97  5165.49

 Zero-point correction=                           0.136542 (Hartree/Particle)
 Thermal correction to Energy=                    0.144417
 Thermal correction to Enthalpy=                  0.145361
 Thermal correction to Gibbs Free Energy=         0.104863
 Sum of electronic and zero-point Energies=           -362.940320
 Sum of electronic and thermal Energies=              -362.932445
 Sum of electronic and thermal Enthalpies=            -362.931501
 Sum of electronic and thermal Free Energies=         -362.971998

                     E (Thermal)             CV                S
                      KCal/Mol        Cal/Mol-Kelvin    Cal/Mol-Kelvin
 Total                   90.623             29.075             85.234
 Electronic               0.000              0.000              0.000
 Translational            0.889              2.981             39.808
 Rotational               0.889              2.981             27.387
 Vibrational             88.845             23.114             18.039
 Vibration     1          0.597              1.971              4.329
 Vibration     2          0.650              1.803              1.919
 Vibration     3          0.665              1.756              1.702
 Vibration     4          0.673              1.731              1.606
 Vibration     5          0.690              1.680              1.436
 Vibration     6          0.691              1.677              1.428
 Vibration     7          0.728              1.573              1.161
 Vibration     8          0.758              1.492              1.001
 Vibration     9          0.778              1.438              0.909
 Vibration    10          0.905              1.140              0.544
 Vibration    11          0.939              1.069              0.481

 Optimization completed.
    -- Stationary point found.
 Normal termination of Gaussian 09 at Thu Sep  8 15:05:00 2022.
