 Gaussian 09, Revision D.01,
 Gaussian 09:  ES64L-G09RevD.01 24-Apr-2013

 -------------------------
 #P OPT Freq B3LYP/6-31G**
 -------------------------

 -------
 Frag_20
 -------
 Symbolic Z-matrix:
 Charge =  0 Multiplicity = 1

 SCF Done:  E(RB3LYP) =  -234.623417968     A.U. after   13 cycles
 Optimization completed.
    -- Stationary point found.
 Normal termination of Gaussian 09 at Fri Jul 23 06:34:49 2021.

 ----------------------------------------------------------------------
 #P Geom=AllCheck Guess=TCheck SCRF=Check GenChk RB3LYP/6-31G(d,p) Freq
 ----------------------------------------------------------------------

 Structure from the checkpoint file:  "/vol2/users/liuj201281/HOFBenchmark/IsodesmicSplit/Sample60/Ring26/Running/Gau-35607.chk"
 -------
 Frag_20
 -------
 Charge =  0 Multiplicity = 1

                         Standard orientation:
 ---------------------------------------------------------------------
 Center     Atomic      Atomic             Coordinates (Angstroms)
 Number     Number       Type             X           Y           Z
 ---------------------------------------------------------------------
      1          6           0       -1.147300    1.420391    0.179183
      2          6           0       -0.821198    0.153492   -0.096517
      3          6           0       -1.832496   -0.965510   -0.026917
      4          6           0        0.558203   -0.272105   -0.491317
      5          6           0        1.550904   -0.727404    0.565283
      6          6           0        1.790301    0.545697   -0.207217
      7          1           0       -2.153801    1.691489    0.484583
      8          1           0       -0.427002    2.228693    0.105383
      9          1           0       -2.819697   -0.604212    0.272783
     10          1           0       -1.933795   -1.462610   -1.000617
     11          1           0       -1.514395   -1.737509    0.684383
     12          1           0        0.586104   -0.858405   -1.410217
     13          1           0        2.170805   -1.594002    0.354883
     14          1           0        1.249403   -0.630304    1.604183
     15          1           0        1.676299    1.483397    0.326583
     16          1           0        2.575601    0.556098   -0.956917
 ---------------------------------------------------------------------

 SCF Done:  E(RB3LYP) =  -234.623417968     A.U. after    1 cycles

 The electronic state is 1-A.
 Alpha  occ. eigenvalues --  -10.19169 -10.19129 -10.18539 -10.18380 -10.17701
 Alpha  occ. eigenvalues --  -10.16638  -0.85710  -0.77638  -0.67816  -0.61352
 Alpha  occ. eigenvalues --   -0.59493  -0.52020  -0.48501  -0.46740  -0.42212
 Alpha  occ. eigenvalues --   -0.40923  -0.39821  -0.36329  -0.35626  -0.33681
 Alpha  occ. eigenvalues --   -0.29946  -0.28770  -0.23494
 Alpha virt. eigenvalues --    0.02668   0.10144   0.11302   0.12389   0.13528
 Alpha virt. eigenvalues --    0.14769   0.15252   0.18056   0.19423   0.19758
 Alpha virt. eigenvalues --    0.20694   0.24378   0.24749   0.26304   0.27215

 Mulliken charges:
               1
     1  C   -0.288820
     2  C    0.169127
     3  C   -0.362979
     4  C   -0.127193
     5  C   -0.213897
     6  C   -0.224169
     7  H    0.085279
     8  H    0.088334
     9  H    0.106343
    10  H    0.111109
    11  H    0.116234
    12  H    0.100306
    13  H    0.106963
    14  H    0.114185
    15  H    0.111903
    16  H    0.107277
 Sum of Mulliken charges =   0.00000

 Dipole moment (field-independent basis, Debye):
    X=              0.1767    Y=             -0.4978    Z=             -0.0786  Tot=              0.5341
 Quadrupole moment (field-independent basis, Debye-Ang):
   XX=            -37.2783   YY=            -37.3185   ZZ=            -38.4737
   XY=              0.1387   XZ=             -1.0425   YZ=              0.9100

  Exact polarizability:  67.677  -3.875  68.949  -2.743   2.760  46.085
 Approx polarizability:  84.926  -7.979 105.324  -3.566   6.231  67.474

                      1                      2                      3
                      A                      A                      A
 Frequencies --     62.2578               184.9578               221.7798
 Red. masses --      2.4462                 1.0504                 2.4345
 Frc consts  --      0.0056                 0.0212                 0.0706
 IR Inten    --      0.1061                 0.1797                 0.7932

                      4                      5                      6
                      A                      A                      A
 Frequencies --    262.8833               391.6875               485.5505
 Red. masses --      2.7262                 2.4180                 2.3597
 Frc consts  --      0.1110                 0.2186                 0.3278
 IR Inten    --      0.1496                 1.3945                 1.0153

                      7                      8                      9
                      A                      A                      A
 Frequencies --    540.5763               709.5561               743.5136
 Red. masses --      2.3286                 1.4658                 1.3113
 Frc consts  --      0.4009                 0.4348                 0.4271
 IR Inten    --      4.8862                 0.8376                 0.1781

                     10                     11                     12
                      A                      A                      A
 Frequencies --    809.6970               835.6472               916.6505
 Red. masses --      1.1606                 1.3160                 2.7023
 Frc consts  --      0.4483                 0.5414                 1.3378
 IR Inten    --      0.2087                 6.8683                 5.5892

                     13                     14                     15
                      A                      A                      A
 Frequencies --    921.7234               929.1874               978.4523
 Red. masses --      1.4024                 2.9910                 1.8161
 Frc consts  --      0.7020                 1.5215                 1.0244
 IR Inten    --     42.0261                 3.4789                 5.9591

                     16                     17                     18
                      A                      A                      A
 Frequencies --   1034.4616              1061.3712              1068.9075
 Red. masses --      1.4194                 1.3139                 1.4327
 Frc consts  --      0.8949                 0.8720                 0.9645
 IR Inten    --      2.3536                 5.9901                 0.4164

                     19                     20                     21
                      A                      A                      A
 Frequencies --   1085.4082              1128.9694              1135.5180
 Red. masses --      1.3673                 1.5223                 1.1272
 Frc consts  --      0.9491                 1.1432                 0.8563
 IR Inten    --      3.1984                 2.6609                 0.8965

                     22                     23                     24
                      A                      A                      A
 Frequencies --   1203.8146              1223.8528              1264.5588
 Red. masses --      1.3935                 2.3462                 1.7817
 Frc consts  --      1.1898                 2.0705                 1.6786
 IR Inten    --      0.8919                 0.2701                14.8119

                     25                     26                     27
                      A                      A                      A
 Frequencies --   1415.3478              1426.7136              1455.2970
 Red. masses --      1.3605                 1.6143                 1.2362
 Frc consts  --      1.6057                 1.9360                 1.5426
 IR Inten    --      0.4025                 4.5058                 0.6169

                     28                     29                     30
                      A                      A                      A
 Frequencies --   1479.6365              1492.4403              1507.8636
 Red. masses --      1.0898                 1.0455                 1.0594
 Frc consts  --      1.4057                 1.3721                 1.4191
 IR Inten    --      1.6026                 7.0643                 8.0425

                     31                     32                     33
                      A                      A                      A
 Frequencies --   1521.2333              1730.2183              3027.9453
 Red. masses --      1.3870                 5.1287                 1.0385
 Frc consts  --      1.8912                 9.0460                 5.6097
 IR Inten    --      0.8486                17.6006                26.6571

                     34                     35                     36
                      A                      A                      A
 Frequencies --   3078.9483              3120.7688              3126.2669
 Red. masses --      1.0988                 1.0862                 1.1007
 Frc consts  --      6.1374                 6.2328                 6.3382
 IR Inten    --     21.9424                18.7913                25.5849

                     37                     38                     39
                      A                      A                      A
 Frequencies --   3137.6346              3147.6899              3157.9561
 Red. masses --      1.0528                 1.0578                 1.0605
 Frc consts  --      6.1064                 6.1750                 6.2311
 IR Inten    --     19.2562                11.3463                 7.5951

                     40                     41                     42
                      A                      A                      A
 Frequencies --   3219.4734              3233.4279              3240.5862
 Red. masses --      1.1193                 1.1162                 1.1152
 Frc consts  --      6.8355                 6.8758                 6.9000
 IR Inten    --      1.2983                25.3938                14.6679

 - Thermochemistry -
 -------------------
 Temperature   298.150 Kelvin.  Pressure   1.00000 Atm.
 Atom     1 has atomic number  6 and mass  12.00000

 Molecular mass:    82.07825 amu.
 Principal axes and moments of inertia in atomic units:
                           1         2         3
     Eigenvalues --   290.84106 663.18454 844.80206
           X            0.99984   0.01671  -0.00578
           Y           -0.01663   0.99976   0.01430
           Z            0.00602  -0.01420   0.99988
 This molecule is an asymmetric top.
 Rotational symmetry number  1.
 Rotational temperatures (Kelvin)      0.29780     0.13060     0.10253
 Rotational constants (GHZ):           6.20525     2.72133     2.13629
 Zero-point vibrational energy     375151.5 (Joules/Mol)
                                   89.66336 (Kcal/Mol)
 Warning -- explicit consideration of   7 degrees of freedom as
           vibrations may cause significant error
 Vibrational temperatures:     89.57   266.11   319.09   378.23   563.55
          (Kelvin)            698.60   777.77  1020.89  1069.75  1164.97
                             1202.31  1318.85  1326.15  1336.89  1407.77
                             1488.36  1527.07  1537.92  1561.66  1624.33
                             1633.76  1732.02  1760.85  1819.42  2036.37
                             2052.72  2093.85  2128.86  2147.29  2169.48
                             2188.71  2489.40  4356.53  4429.91  4490.08
                             4498.00  4514.35  4528.82  4543.59  4632.10
                             4652.18  4662.47

 Zero-point correction=                           0.142888 (Hartree/Particle)
 Thermal correction to Energy=                    0.149643
 Thermal correction to Enthalpy=                  0.150587
 Thermal correction to Gibbs Free Energy=         0.112458
 Sum of electronic and zero-point Energies=           -234.480530
 Sum of electronic and thermal Energies=              -234.473775
 Sum of electronic and thermal Enthalpies=            -234.472831
 Sum of electronic and thermal Free Energies=         -234.510960

                     E (Thermal)             CV                S
                      KCal/Mol        Cal/Mol-Kelvin    Cal/Mol-Kelvin
 Total                   93.902             24.813             80.250
 Electronic               0.000              0.000              0.000
 Translational            0.889              2.981             39.129
 Rotational               0.889              2.981             26.591
 Vibrational             92.125             18.851             14.530
 Vibration     1          0.597              1.972              4.384
 Vibration     2          0.631              1.860              2.278
 Vibration     3          0.648              1.808              1.945
 Vibration     4          0.670              1.741              1.643
 Vibration     5          0.759              1.488              0.994
 Vibration     6          0.842              1.282              0.695
 Vibration     7          0.896              1.160              0.564

 Optimization completed.
    -- Stationary point found.
 Normal termination of Gaussian 09 at Fri Jul 23 06:35:15 2021.
