 Gaussian 09, Revision E.01,
 Gaussian 09:  ES64L-G09RevE.01 30-Nov-2015

 -------------------------
 #P OPT Freq B3LYP/6-31G**
 -------------------------

 --------
 Frag_197
 --------
 Symbolic Z-matrix:
 Charge =  0 Multiplicity = 1

 SCF Done:  E(RB3LYP) =  -173.238536601     A.U. after   12 cycles
 SCF Done:  E(RB3LYP) =  -173.249141154     A.U. after   11 cycles
 SCF Done:  E(RB3LYP) =  -173.250478213     A.U. after   10 cycles
 SCF Done:  E(RB3LYP) =  -173.250818200     A.U. after   10 cycles
 SCF Done:  E(RB3LYP) =  -173.250882486     A.U. after    9 cycles
 SCF Done:  E(RB3LYP) =  -173.250924086     A.U. after   10 cycles
 SCF Done:  E(RB3LYP) =  -173.250930667     A.U. after    9 cycles
 SCF Done:  E(RB3LYP) =  -173.250931926     A.U. after    7 cycles
 SCF Done:  E(RB3LYP) =  -173.250932268     A.U. after    6 cycles
 Optimization completed.
    -- Stationary point found.
 Normal termination of Gaussian 09 at Sat Aug 21 01:39:24 2021.

 ----------------------------------------------------------------------
 #P Geom=AllCheck Guess=TCheck SCRF=Check GenChk RB3LYP/6-31G(d,p) Freq
 ----------------------------------------------------------------------

 Structure from the checkpoint file:  "/public/home/users/caep010/.cache/gau_scr/Gau-192383.chk"
 --------
 Frag_197
 --------
 Charge =  0 Multiplicity = 1

                         Standard orientation:
 ---------------------------------------------------------------------
 Center     Atomic      Atomic             Coordinates (Angstroms)
 Number     Number       Type             X           Y           Z
 ---------------------------------------------------------------------
      1          7           0       -1.539486   -0.097462   -0.081468
      2          6           0       -0.216824    0.024073    0.489683
      3          6           0        0.927275    0.760353   -0.180668
      4          6           0        0.921719   -0.754532   -0.098474
      5          1           0       -1.475004   -0.341883   -1.066714
      6          1           0       -2.019727    0.799684   -0.039502
      7          1           0       -0.245358    0.079765    1.576262
      8          1           0        0.736537    1.208173   -1.152548
      9          1           0        1.633841    1.310691    0.434497
     10          1           0        1.621027   -1.246431    0.570530
     11          1           0        0.732067   -1.307134   -1.015496
 ---------------------------------------------------------------------

 SCF Done:  E(RB3LYP) =  -173.250932268     A.U. after    1 cycles

 The electronic state is 1-A.
 Alpha  occ. eigenvalues --  -14.31290 -10.21225 -10.18311 -10.17916  -0.89530
 Alpha  occ. eigenvalues --   -0.80683  -0.59679  -0.58302  -0.49916  -0.47163
 Alpha  occ. eigenvalues --   -0.44825  -0.37634  -0.36158  -0.32300  -0.28796
 Alpha  occ. eigenvalues --   -0.21922
 Alpha virt. eigenvalues --    0.09016   0.10606   0.12278   0.14134   0.16226
 Alpha virt. eigenvalues --    0.17872   0.18014   0.22985   0.26272   0.26851
 Alpha virt. eigenvalues --    0.32108   0.48315   0.56096   0.56359   0.57931

 Mulliken charges:
               1
     1  N   -0.590785
     2  C    0.055301
     3  C   -0.231996
     4  C   -0.230063
     5  H    0.231156
     6  H    0.237148
     7  H    0.105028
     8  H    0.099976
     9  H    0.104765
    10  H    0.112881
    11  H    0.106589
 Sum of Mulliken charges =   0.00000

 Dipole moment (field-independent basis, Debye):
    X=              0.4384    Y=              0.9238    Z=             -0.7417  Tot=              1.2632
 Quadrupole moment (field-independent basis, Debye-Ang):
   XX=            -27.0937   YY=            -25.7859   ZZ=            -23.5197
   XY=             -2.7091   XZ=              2.4921   YZ=              0.7359

  Exact polarizability:  40.240  -1.096  35.904   1.657   0.899  35.055
 Approx polarizability:  52.133  -1.006  49.226   1.563   1.583  48.726

                      1                      2                      3
                      A                      A                      A
 Frequencies --    219.1335               379.4518               397.2646
 Red. masses --      1.0637                 2.0897                 2.3376
 Frc consts  --      0.0301                 0.1773                 0.2174
 IR Inten    --     50.7100                 9.9971                 2.4607

                      4                      5                      6
                      A                      A                      A
 Frequencies --    758.5314               801.4903               808.9742
 Red. masses --      1.3556                 1.1820                 1.7654
 Frc consts  --      0.4596                 0.4474                 0.6807
 IR Inten    --      2.3801                36.0218                59.6738

                      7                      8                      9
                      A                      A                      A
 Frequencies --    874.1238               936.1983               986.9644
 Red. masses --      2.0019                 1.7373                 1.7738
 Frc consts  --      0.9012                 0.8971                 1.0180
 IR Inten    --     24.0576                83.3419                 2.2755

                     10                     11                     12
                      A                      A                      A
 Frequencies --   1048.4771              1071.9915              1119.1071
 Red. masses --      1.4657                 1.3511                 1.2738
 Frc consts  --      0.9493                 0.9148                 0.9399
 IR Inten    --     10.1529                 3.7644                 3.6234

                     13                     14                     15
                      A                      A                      A
 Frequencies --   1148.3978              1197.6571              1253.2484
 Red. masses --      1.4800                 1.3701                 1.7508
 Frc consts  --      1.1500                 1.1579                 1.6202
 IR Inten    --      9.6890                 0.7164                 4.8710

                     16                     17                     18
                      A                      A                      A
 Frequencies --   1291.7572              1429.2010              1476.7424
 Red. masses --      1.7113                 1.3612                 1.0917
 Frc consts  --      1.6824                 1.6381                 1.4027
 IR Inten    --      6.1216                14.1271                 0.8528

                     19                     20                     21
                      A                      A                      A
 Frequencies --   1522.4256              1666.0571              3129.2322
 Red. masses --      1.4273                 1.0948                 1.0515
 Frc consts  --      1.9491                 1.7905                 6.0666
 IR Inten    --      8.9760                25.6139                23.3369

                     22                     23                     24
                      A                      A                      A
 Frequencies --   3135.7552              3145.7676              3209.6588
 Red. masses --      1.0584                 1.0899                 1.1189
 Frc consts  --      6.1320                 6.3547                 6.7914
 IR Inten    --     10.4766                17.7324                 1.0715

                     25                     26                     27
                      A                      A                      A
 Frequencies --   3224.0049              3479.3018              3567.0098
 Red. masses --      1.1153                 1.0498                 1.0919
 Frc consts  --      6.8303                 7.4875                 8.1857
 IR Inten    --     29.2092                 1.8782                 0.4137

 - Thermochemistry -
 -------------------
 Temperature   298.150 Kelvin.  Pressure   1.00000 Atm.
 Atom     1 has atomic number  7 and mass  14.00307

 Molecular mass:    57.05785 amu.
 Principal axes and moments of inertia in atomic units:
                           1         2         3
     Eigenvalues --   111.16439 275.24718 315.09302
           X            0.99948  -0.02362   0.02217
           Y            0.02319   0.99954   0.01972
           Z           -0.02263  -0.01920   0.99956
 This molecule is an asymmetric top.
 Rotational symmetry number  1.
 Rotational temperatures (Kelvin)      0.77915     0.31468     0.27488
 Rotational constants (GHZ):          16.23489     6.55680     5.72765
 Zero-point vibrational energy     258859.5 (Joules/Mol)
                                   61.86890 (Kcal/Mol)
 Warning -- explicit consideration of   3 degrees of freedom as
           vibrations may cause significant error
 Vibrational temperatures:    315.28   545.95   571.57  1091.36  1153.16
          (Kelvin)           1163.93  1257.67  1346.98  1420.02  1508.52
                             1542.35  1610.14  1652.29  1723.16  1803.14
                             1858.55  2056.30  2124.70  2190.43  2397.08
                             4502.26  4511.65  4526.05  4617.98  4638.62
                             5005.93  5132.13

 Zero-point correction=                           0.098594 (Hartree/Particle)
 Thermal correction to Energy=                    0.103154
 Thermal correction to Enthalpy=                  0.104098
 Thermal correction to Gibbs Free Energy=         0.072152
 Sum of electronic and zero-point Energies=           -173.152338
 Sum of electronic and thermal Energies=              -173.147779
 Sum of electronic and thermal Enthalpies=            -173.146834
 Sum of electronic and thermal Free Energies=         -173.178780

                     E (Thermal)             CV                S
                      KCal/Mol        Cal/Mol-Kelvin    Cal/Mol-Kelvin
 Total                   64.730             16.106             67.236
 Electronic               0.000              0.000              0.000
 Translational            0.889              2.981             38.046
 Rotational               0.889              2.981             23.782
 Vibrational             62.952             10.145              5.409
 Vibration     1          0.647              1.812              1.966
 Vibration     2          0.749              1.514              1.041
 Vibration     3          0.764              1.476              0.973

 Optimization completed.
    -- Stationary point found.
 Normal termination of Gaussian 09 at Sat Aug 21 01:39:31 2021.
