 Gaussian 09, Revision E.01,
 Gaussian 09:  ES64L-G09RevE.01 30-Nov-2015

 ----------------------------
 #P OPT Freq B3LYP/6-31G(d,p)
 ----------------------------

 --------
 Frag_588
 --------
 Symbolic Z-matrix:
 Charge =  0 Multiplicity = 1

 SCF Done:  E(RB3LYP) =  -302.644663993     A.U. after   15 cycles
 SCF Done:  E(RB3LYP) =  -302.644733687     A.U. after   11 cycles
 SCF Done:  E(RB3LYP) =  -302.644736870     A.U. after    8 cycles
 Optimization completed.
    -- Stationary point found.
 Normal termination of Gaussian 09 at Thu Sep  8 15:08:42 2022.

 ----------------------------------------------------------------------
 #P Geom=AllCheck Guess=TCheck SCRF=Check GenChk RB3LYP/6-31G(d,p) Freq
 ----------------------------------------------------------------------

 Structure from the checkpoint file:  "B3LYP6-31Gdp.Frag_588.chk"
 --------
 Frag_588
 --------
 Charge =  0 Multiplicity = 1

                         Standard orientation:
 ---------------------------------------------------------------------
 Center     Atomic      Atomic             Coordinates (Angstroms)
 Number     Number       Type             X           Y           Z
 ---------------------------------------------------------------------
      1          6           0       -1.760937   -0.833395    0.000002
      2          6           0       -0.718174    0.250153   -0.000010
      3          7           0       -1.057798    1.479944    0.000000
      4          6           0        0.720820   -0.204932    0.000007
      5          7           0        1.007311   -1.444369   -0.000001
      6          8           0        1.582786    0.853293   -0.000000
      7          1           0       -1.648177   -1.478858   -0.876246
      8          1           0       -2.750097   -0.374599   -0.000004
      9          1           0       -1.648180   -1.478839    0.876264
     10          1           0       -0.223824    2.075277    0.000010
     11          1           0        2.016505   -1.618912   -0.000004
     12          1           0        2.494650    0.529610   -0.000004
 ---------------------------------------------------------------------

 SCF Done:  E(RB3LYP) =  -302.644736870     A.U. after    1 cycles

 The electronic state is 1-A.
 Alpha  occ. eigenvalues --  -19.20912 -14.33081 -14.32165 -10.30035 -10.24367
 Alpha  occ. eigenvalues --  -10.17680  -1.09494  -0.91598  -0.89655  -0.72973
 Alpha  occ. eigenvalues --   -0.67376  -0.57156  -0.53288  -0.49848  -0.44602
 Alpha  occ. eigenvalues --   -0.43178  -0.40464  -0.39725  -0.38132  -0.31205
 Alpha  occ. eigenvalues --   -0.30060  -0.28936  -0.26048
 Alpha virt. eigenvalues --   -0.04474   0.04040   0.08063   0.11225   0.12977
 Alpha virt. eigenvalues --    0.16044   0.17493   0.18972   0.22647   0.25933
 Alpha virt. eigenvalues --    0.30460   0.37985   0.44939   0.53091   0.55711

 Mulliken charges:
               1
     1  C   -0.339899
     2  C    0.285435
     3  N   -0.515853
     4  C    0.445884
     5  N   -0.531424
     6  O   -0.518677
     7  H    0.133154
     8  H    0.127752
     9  H    0.133154
    10  H    0.247324
    11  H    0.215662
    12  H    0.317489
 Sum of Mulliken charges =  -0.00000

 Dipole moment (field-independent basis, Debye):
    X=              3.4090    Y=             -0.5049    Z=              0.0000  Tot=              3.4462
 Quadrupole moment (field-independent basis, Debye-Ang):
   XX=            -28.0379   YY=            -40.0097   ZZ=            -35.8070
   XY=              2.9241   XZ=             -0.0000   YZ=              0.0000

  Exact polarizability:  53.934  -4.380  61.375  -0.000   0.000  25.985
 Approx polarizability:  68.959 -11.916 109.417  -0.000   0.000  37.862

                      1                      2                      3
                      A                      A                      A
 Frequencies --     68.4935               169.3374               282.0302
 Red. masses --      4.7924                 1.0504                 3.6715
 Frc consts  --      0.0132                 0.0177                 0.1721
 IR Inten    --      0.8558                 0.2317                 4.3199

                      4                      5                      6
                      A                      A                      A
 Frequencies --    366.7711               414.3791               437.8657
 Red. masses --      2.0912                 4.0351                 1.3095
 Frc consts  --      0.1657                 0.4082                 0.1479
 IR Inten    --     28.3376                 4.3112                76.0023

                      7                      8                      9
                      A                      A                      A
 Frequencies --    531.3073               577.3253               668.4593
 Red. masses --      4.8330                 3.2718                 2.2461
 Frc consts  --      0.8038                 0.6425                 0.5913
 IR Inten    --     14.9239                40.4763                 5.7103

                     10                     11                     12
                      A                      A                      A
 Frequencies --    758.5258               863.9264               959.2686
 Red. masses --      3.2683                 1.4442                 1.4270
 Frc consts  --      1.1079                 0.6351                 0.7737
 IR Inten    --     12.9684                68.6441                87.0764

                     13                     14                     15
                      A                      A                      A
 Frequencies --    997.2549              1087.2450              1089.4698
 Red. masses --      2.0826                 1.3968                 2.1505
 Frc consts  --      1.2203                 0.9728                 1.5039
 IR Inten    --     48.3861                 4.3397                44.6385

                     16                     17                     18
                      A                      A                      A
 Frequencies --   1128.0262              1162.2127              1366.0976
 Red. masses --      1.3515                 1.4827                 1.4003
 Frc consts  --      1.0132                 1.1800                 1.5397
 IR Inten    --    127.5733               121.2941                45.9505

                     19                     20                     21
                      A                      A                      A
 Frequencies --   1410.4296              1446.9940              1481.7969
 Red. masses --      1.5182                 2.3632                 1.0721
 Frc consts  --      1.7795                 2.9152                 1.3870
 IR Inten    --     33.0642                67.7858                 2.4538

                     22                     23                     24
                      A                      A                      A
 Frequencies --   1485.0499              1721.5150              1745.5219
 Red. masses --      1.0452                 8.7596                 8.0723
 Frc consts  --      1.3581                15.2953                14.4910
 IR Inten    --      7.2241               129.6618                60.1763

                     25                     26                     27
                      A                      A                      A
 Frequencies --   3063.0983              3123.9352              3168.7389
 Red. masses --      1.0361                 1.0996                 1.1043
 Frc consts  --      5.7277                 6.3223                 6.5329
 IR Inten    --      4.8245                 8.6839                 9.0590

                     28                     29                     30
                      A                      A                      A
 Frequencies --   3451.5112              3455.2345              3808.5438
 Red. masses --      1.0759                 1.0734                 1.0658
 Frc consts  --      7.5515                 7.5505                 9.1080
 IR Inten    --      6.9876                 0.4838                35.9523

 - Thermochemistry -
 -------------------
 Temperature   298.150 Kelvin.  Pressure   1.00000 Atm.
 Atom     1 has atomic number  6 and mass  12.00000

 Molecular mass:    86.04801 amu.
 Principal axes and moments of inertia in atomic units:
                           1         2         3
     Eigenvalues --   336.28869 517.30852 842.54360
           X            0.99756   0.06986  -0.00000
           Y           -0.06986   0.99756   0.00000
           Z            0.00000  -0.00000   1.00000
 This molecule is an asymmetric top.
 Rotational symmetry number  1.
 Rotational temperatures (Kelvin)      0.25756     0.16743     0.10280
 Rotational constants (GHZ):           5.36664     3.48871     2.14202
 Zero-point vibrational energy     252952.6 (Joules/Mol)
                                   60.45711 (Kcal/Mol)
 Warning -- explicit consideration of   8 degrees of freedom as
           vibrations may cause significant error
 Vibrational temperatures:     98.55   243.64   405.78   527.70   596.20
          (Kelvin)            629.99   764.43   830.64   961.76  1091.35
                             1243.00  1380.17  1434.83  1564.30  1567.50
                             1622.98  1672.16  1965.51  2029.29  2081.90
                             2131.97  2136.65  2476.87  2511.41  4407.11
                             4494.64  4559.10  4965.95  4971.31  5479.64

 Zero-point correction=                           0.096345 (Hartree/Particle)
 Thermal correction to Energy=                    0.102805
 Thermal correction to Enthalpy=                  0.103749
 Thermal correction to Gibbs Free Energy=         0.066163
 Sum of electronic and zero-point Energies=           -302.548392
 Sum of electronic and thermal Energies=              -302.541932
 Sum of electronic and thermal Enthalpies=            -302.540988
 Sum of electronic and thermal Free Energies=         -302.578574

                     E (Thermal)             CV                S
                      KCal/Mol        Cal/Mol-Kelvin    Cal/Mol-Kelvin
 Total                   64.511             22.717             79.105
 Electronic               0.000              0.000              0.000
 Translational            0.889              2.981             39.270
 Rotational               0.889              2.981             26.486
 Vibrational             62.733             16.755             13.350
 Vibration     1          0.598              1.969              4.196
 Vibration     2          0.625              1.880              2.443
 Vibration     3          0.681              1.707              1.521
 Vibration     4          0.740              1.541              1.093
 Vibration     5          0.778              1.439              0.911
 Vibration     6          0.798              1.388              0.833
 Vibration     7          0.886              1.181              0.584
 Vibration     8          0.934              1.080              0.490

 Optimization completed.
    -- Stationary point found.
 Normal termination of Gaussian 09 at Thu Sep  8 15:08:52 2022.
