 Gaussian 09, Revision E.01,
 Gaussian 09:  ES64L-G09RevE.01 30-Nov-2015

 ----------------------------
 #P OPT Freq B3LYP/6-31G(d,p)
 ----------------------------

 --------
 Frag_719
 --------
 Symbolic Z-matrix:
 Charge =  0 Multiplicity = 1

 SCF Done:  E(RB3LYP) =  -363.047206428     A.U. after   14 cycles
 SCF Done:  E(RB3LYP) =  -363.047312819     A.U. after   11 cycles
 SCF Done:  E(RB3LYP) =  -363.047243430     A.U. after   11 cycles
 SCF Done:  E(RB3LYP) =  -363.047313817     A.U. after   11 cycles
 SCF Done:  E(RB3LYP) =  -363.047330253     A.U. after   10 cycles
 SCF Done:  E(RB3LYP) =  -363.047333769     A.U. after    8 cycles
 SCF Done:  E(RB3LYP) =  -363.047336523     A.U. after    9 cycles
 SCF Done:  E(RB3LYP) =  -363.047337664     A.U. after    8 cycles
 SCF Done:  E(RB3LYP) =  -363.047338285     A.U. after    8 cycles
 SCF Done:  E(RB3LYP) =  -363.047338514     A.U. after    8 cycles
 SCF Done:  E(RB3LYP) =  -363.047338589     A.U. after    8 cycles
 Optimization completed.
    -- Stationary point found.
 Normal termination of Gaussian 09 at Thu Sep  8 15:22:42 2022.

 ----------------------------------------------------------------------
 #P Geom=AllCheck Guess=TCheck SCRF=Check GenChk RB3LYP/6-31G(d,p) Freq
 ----------------------------------------------------------------------

 Structure from the checkpoint file:  "B3LYP6-31Gdp.Frag_719.chk"
 --------
 Frag_719
 --------
 Charge =  0 Multiplicity = 1

                         Standard orientation:
 ---------------------------------------------------------------------
 Center     Atomic      Atomic             Coordinates (Angstroms)
 Number     Number       Type             X           Y           Z
 ---------------------------------------------------------------------
      1          6           0       -1.845543   -0.928426    0.005204
      2          6           0       -0.922291    0.266880   -0.076821
      3          8           0       -1.338811    1.404364   -0.152525
      4          6           0        0.609934   -0.003455    0.013052
      5          6           0        1.077797   -1.123834   -0.922197
      6          7           0        1.296135    1.213901   -0.316345
      7          8           0        0.745758   -0.430421    1.391321
      8          1           0       -1.548672   -1.574630    0.835487
      9          1           0       -2.870727   -0.581274    0.138296
     10          1           0       -1.786002   -1.520695   -0.914956
     11          1           0        0.610540   -2.078441   -0.669868
     12          1           0        2.165237   -1.242819   -0.832765
     13          1           0        0.862892   -0.875975   -1.964468
     14          1           0        2.268067    1.173287   -0.024608
     15          1           0        0.840267    1.999377    0.139323
     16          1           0        1.610494   -0.854666    1.482174
 ---------------------------------------------------------------------

 SCF Done:  E(RB3LYP) =  -363.047338589     A.U. after    1 cycles

 The electronic state is 1-A.
 Alpha  occ. eigenvalues --  -19.15033 -19.14467 -14.31313 -10.27757 -10.27317
 Alpha  occ. eigenvalues --  -10.19036 -10.18843  -1.04955  -1.02280  -0.87873
 Alpha  occ. eigenvalues --   -0.76247  -0.72459  -0.64605  -0.52762  -0.51602
 Alpha  occ. eigenvalues --   -0.50083  -0.46243  -0.43546  -0.43222  -0.42423
 Alpha  occ. eigenvalues --   -0.40464  -0.39193  -0.37363  -0.36506  -0.35221
 Alpha  occ. eigenvalues --   -0.29569  -0.24984  -0.24281
 Alpha virt. eigenvalues --   -0.01868   0.06118   0.10966   0.11561   0.13449
 Alpha virt. eigenvalues --    0.15121   0.15684   0.17035   0.17553   0.18691
 Alpha virt. eigenvalues --    0.21635   0.22899   0.24957   0.27366   0.31376

 Mulliken charges:
               1
     1  C   -0.395113
     2  C    0.464455
     3  O   -0.438479
     4  C    0.269712
     5  C   -0.326080
     6  N   -0.571556
     7  O   -0.547128
     8  H    0.148223
     9  H    0.136245
    10  H    0.131980
    11  H    0.113239
    12  H    0.097596
    13  H    0.131396
    14  H    0.228378
    15  H    0.260227
    16  H    0.296904
 Sum of Mulliken charges =  -0.00000

 Dipole moment (field-independent basis, Debye):
    X=              2.0578    Y=             -2.6908    Z=              0.1972  Tot=              3.3932
 Quadrupole moment (field-independent basis, Debye-Ang):
   XX=            -37.3242   YY=            -43.1399   ZZ=            -44.6261
   XY=              2.5358   XZ=              2.5292   YZ=              2.1640

  Exact polarizability:  60.369  -0.554  58.416   0.202  -0.605  44.775
 Approx polarizability:  77.738  -5.857  87.314   0.742  -3.553  65.039

                      1                      2                      3
                      A                      A                      A
 Frequencies --     61.9926               142.1110               180.9095
 Red. masses --      4.4755                 1.0562                 1.1291
 Frc consts  --      0.0101                 0.0126                 0.0218
 IR Inten    --      4.1199                 1.0300                86.5677

                      4                      5                      6
                      A                      A                      A
 Frequencies --    225.6403               264.3114               276.2557
 Red. masses --      1.8123                 2.5820                 1.3502
 Frc consts  --      0.0544                 0.1063                 0.0607
 IR Inten    --      3.1067                15.2837                 0.8424

                      7                      8                      9
                      A                      A                      A
 Frequencies --    317.3510               369.0431               392.2261
 Red. masses --      1.2129                 3.0549                 3.7264
 Frc consts  --      0.0720                 0.2451                 0.3378
 IR Inten    --     40.4159                 8.4855                 4.3368

                     10                     11                     12
                      A                      A                      A
 Frequencies --    431.9437               503.6684               570.9137
 Red. masses --      2.6328                 3.0169                 3.6148
 Frc consts  --      0.2894                 0.4509                 0.6942
 IR Inten    --     12.7464                24.4183                25.0992

                     13                     14                     15
                      A                      A                      A
 Frequencies --    610.4272               692.7320               815.3672
 Red. masses --      2.5079                 3.1179                 1.9056
 Frc consts  --      0.5506                 0.8815                 0.7464
 IR Inten    --     14.9021                 1.6452                99.5643

                     16                     17                     18
                      A                      A                      A
 Frequencies --    876.1735               952.0198               974.5851
 Red. masses --      2.4984                 2.1653                 1.8617
 Frc consts  --      1.1300                 1.1563                 1.0418
 IR Inten    --    112.9331                15.5619                10.9767

                     19                     20                     21
                      A                      A                      A
 Frequencies --   1031.3591              1045.8004              1120.0992
 Red. masses --      1.5611                 1.5178                 2.2587
 Frc consts  --      0.9784                 0.9781                 1.6696
 IR Inten    --     31.4677                 7.1719                88.6429

                     22                     23                     24
                      A                      A                      A
 Frequencies --   1187.3373              1208.6933              1288.1325
 Red. masses --      2.4658                 1.2275                 3.6726
 Frc consts  --      2.0481                 1.0566                 3.5904
 IR Inten    --     85.2427                17.5817                29.1941

                     25                     26                     27
                      A                      A                      A
 Frequencies --   1390.7673              1415.7284              1420.6032
 Red. masses --      1.3256                 1.6915                 1.4291
 Frc consts  --      1.5106                 1.9975                 1.6993
 IR Inten    --     31.7676                 9.9559                21.6087

                     28                     29                     30
                      A                      A                      A
 Frequencies --   1477.0531              1489.5939              1504.8279
 Red. masses --      1.0482                 1.0535                 1.0452
 Frc consts  --      1.3474                 1.3773                 1.3945
 IR Inten    --     11.4965                11.2215                 3.7560

                     31                     32                     33
                      A                      A                      A
 Frequencies --   1513.9860              1639.9244              1826.1843
 Red. masses --      1.0988                 1.1196                10.0606
 Frc consts  --      1.4839                 1.7740                19.7680
 IR Inten    --      4.2109                69.1086               128.2668

                     34                     35                     36
                      A                      A                      A
 Frequencies --   3040.0121              3055.2794              3115.1732
 Red. masses --      1.0437                 1.0386                 1.0915
 Frc consts  --      5.6832                 5.7124                 6.2410
 IR Inten    --     18.2108                 2.5346                21.6126

                     37                     38                     39
                      A                      A                      A
 Frequencies --   3127.0990              3151.2567              3170.5973
 Red. masses --      1.0957                 1.1043                 1.1048
 Frc consts  --      6.3129                 6.4612                 6.5436
 IR Inten    --      5.8099                15.7182                 7.7579

                     40                     41                     42
                      A                      A                      A
 Frequencies --   3511.3135              3608.7148              3791.6392
 Red. masses --      1.0481                 1.0945                 1.0665
 Frc consts  --      7.6137                 8.3975                 9.0340
 IR Inten    --      5.7904                 5.3423                10.6134

 - Thermochemistry -
 -------------------
 Temperature   298.150 Kelvin.  Pressure   1.00000 Atm.
 Atom     1 has atomic number  6 and mass  12.00000

 Molecular mass:   103.06333 amu.
 Principal axes and moments of inertia in atomic units:
                           1         2         3
     Eigenvalues --   537.81538 752.97693 922.28227
           X            0.99647   0.08315  -0.01126
           Y           -0.08224   0.99444   0.06579
           Z            0.01667  -0.06463   0.99777
 This molecule is an asymmetric top.
 Rotational symmetry number  1.
 Warning -- assumption of classical behavior for rotation
           may cause significant error
 Rotational temperatures (Kelvin)      0.16105     0.11503     0.09391
 Rotational constants (GHZ):           3.35569     2.39681     1.95682
 Zero-point vibrational energy     351635.4 (Joules/Mol)
                                   84.04288 (Kcal/Mol)
 Warning -- explicit consideration of  13 degrees of freedom as
           vibrations may cause significant error
 Vibrational temperatures:     89.19   204.47   260.29   324.65   380.28
          (Kelvin)            397.47   456.60   530.97   564.33   621.47
                              724.67   821.42   878.27   996.69  1173.13
                             1260.62  1369.74  1402.21  1483.89  1504.67
                             1611.57  1708.31  1739.04  1853.33  2001.00
                             2036.91  2043.93  2125.15  2143.19  2165.11
                             2178.29  2359.48  2627.47  4373.89  4395.86
                             4482.03  4499.19  4533.95  4561.78  5051.99
                             5192.13  5455.32

 Zero-point correction=                           0.133931 (Hartree/Particle)
 Thermal correction to Energy=                    0.142661
 Thermal correction to Enthalpy=                  0.143605
 Thermal correction to Gibbs Free Energy=         0.101333
 Sum of electronic and zero-point Energies=           -362.913408
 Sum of electronic and thermal Energies=              -362.904678
 Sum of electronic and thermal Enthalpies=            -362.903734
 Sum of electronic and thermal Free Energies=         -362.946005

                     E (Thermal)             CV                S
                      KCal/Mol        Cal/Mol-Kelvin    Cal/Mol-Kelvin
 Total                   89.521             31.404             88.968
 Electronic               0.000              0.000              0.000
 Translational            0.889              2.981             39.808
 Rotational               0.889              2.981             27.415
 Vibrational             87.743             25.442             21.745
 Vibration     1          0.597              1.972              4.393
 Vibration     2          0.616              1.911              2.775
 Vibration     3          0.630              1.866              2.319
 Vibration     4          0.650              1.802              1.913
 Vibration     5          0.671              1.738              1.633
 Vibration     6          0.678              1.717              1.557
 Vibration     7          0.704              1.640              1.324
 Vibration     8          0.741              1.536              1.084
 Vibration     9          0.760              1.487              0.992
 Vibration    10          0.793              1.401              0.852
 Vibration    11          0.859              1.242              0.649
 Vibration    12          0.927              1.094              0.502
 Vibration    13          0.969              1.010              0.432

 Normal termination of Gaussian 09 at Thu Sep  8 15:22:56 2022.
