 Gaussian 09, Revision E.01,
 Gaussian 09:  ES64L-G09RevE.01 30-Nov-2015

 ----------------------------
 #P OPT Freq B3LYP/6-31G(d,p)
 ----------------------------

 ---------
 Frag_1119
 ---------
 Symbolic Z-matrix:
 Charge =  0 Multiplicity = 1

 SCF Done:  E(RB3LYP) =  -266.079375442     A.U. after   13 cycles
 SCF Done:  E(RB3LYP) =  -266.079464984     A.U. after   11 cycles
 SCF Done:  E(RB3LYP) =  -266.079487166     A.U. after   10 cycles
 SCF Done:  E(RB3LYP) =  -266.079495051     A.U. after    9 cycles
 SCF Done:  E(RB3LYP) =  -266.079499092     A.U. after    9 cycles
 SCF Done:  E(RB3LYP) =  -266.079501116     A.U. after    9 cycles
 SCF Done:  E(RB3LYP) =  -266.079501463     A.U. after    8 cycles
 Optimization completed.
    -- Stationary point found.
 Normal termination of Gaussian 09 at Thu Sep  8 14:46:41 2022.

 ----------------------------------------------------------------------
 #P Geom=AllCheck Guess=TCheck SCRF=Check GenChk RB3LYP/6-31G(d,p) Freq
 ----------------------------------------------------------------------

 Structure from the checkpoint file:  "B3LYP6-31Gdp.Frag_1119.chk"
 ---------
 Frag_1119
 ---------
 Charge =  0 Multiplicity = 1

                         Standard orientation:
 ---------------------------------------------------------------------
 Center     Atomic      Atomic             Coordinates (Angstroms)
 Number     Number       Type             X           Y           Z
 ---------------------------------------------------------------------
      1          8           0        1.386587   -0.561640   -0.187700
      2          6           0        0.658975    0.543306    0.253133
      3          8           0       -0.626150    0.652824   -0.329246
      4          8           0       -1.394547   -0.465552    0.216959
      5          1           0        0.997869   -1.337376    0.239093
      6          1           0        0.555630    0.557121    1.347167
      7          1           0        1.169717    1.445589   -0.095848
      8          1           0       -1.604189   -0.930224   -0.609324
 ---------------------------------------------------------------------

 SCF Done:  E(RB3LYP) =  -266.079501463     A.U. after    1 cycles

 The electronic state is 1-A.
 Alpha  occ. eigenvalues --  -19.21031 -19.21003 -19.15992 -10.28613  -1.12594
 Alpha  occ. eigenvalues --   -1.03559  -0.91398  -0.66514  -0.54374  -0.52824
 Alpha  occ. eigenvalues --   -0.48053  -0.45851  -0.39421  -0.36352  -0.32688
 Alpha  occ. eigenvalues --   -0.29643  -0.27149
 Alpha virt. eigenvalues --    0.01486   0.06836   0.10289   0.13389   0.16393
 Alpha virt. eigenvalues --    0.20162   0.23587   0.52336   0.53602   0.62994
 Alpha virt. eigenvalues --    0.72144   0.76210   0.77763   0.81297   0.82018

 Mulliken charges:
               1
     1  O   -0.517820
     2  C    0.274027
     3  O   -0.288130
     4  O   -0.342631
     5  H    0.312162
     6  H    0.099149
     7  H    0.124105
     8  H    0.339137
 Sum of Mulliken charges =  -0.00000

 Dipole moment (field-independent basis, Debye):
    X=             -0.1153    Y=             -1.1810    Z=              0.2499  Tot=              1.2126
 Quadrupole moment (field-independent basis, Debye-Ang):
   XX=            -25.6845   YY=            -19.5116   ZZ=            -22.9487
   XY=              3.2669   XZ=              3.4121   YZ=              0.7872

  Exact polarizability:  25.984   4.680  26.108   0.132  -0.124  19.959
 Approx polarizability:  34.014   6.897  37.187  -1.750  -2.514  27.701

                      1                      2                      3
                      A                      A                      A
 Frequencies --    160.4049               208.4005               372.8344
 Red. masses --      2.4266                 1.4370                 1.7123
 Frc consts  --      0.0368                 0.0368                 0.1402
 IR Inten    --     31.2342               175.6647                 8.4977

                      4                      5                      6
                      A                      A                      A
 Frequencies --    466.0041               611.8673               877.4915
 Red. masses --      1.4536                 6.8101                 5.6621
 Frc consts  --      0.1860                 1.5022                 2.5687
 IR Inten    --     56.4960                17.8813                31.6567

                      7                      8                      9
                      A                      A                      A
 Frequencies --   1006.0165              1061.2865              1108.7141
 Red. masses --      4.6491                 1.6101                 5.0437
 Frc consts  --      2.7722                 1.0685                 3.6529
 IR Inten    --     31.5911               137.8811               105.5713

                     10                     11                     12
                      A                      A                      A
 Frequencies --   1276.4968              1375.8684              1400.5831
 Red. masses --      1.1862                 1.1796                 1.2036
 Frc consts  --      1.1388                 1.3156                 1.3911
 IR Inten    --     15.6558                48.2100                20.5780

                     13                     14                     15
                      A                      A                      A
 Frequencies --   1431.5935              1504.5564              3022.9498
 Red. masses --      1.1668                 1.1125                 1.0646
 Frc consts  --      1.4089                 1.4838                 5.7317
 IR Inten    --     43.0553                 3.7160                62.0347

                     16                     17                     18
                      A                      A                      A
 Frequencies --   3122.2501              3769.2554              3813.2051
 Red. masses --      1.1017                 1.0683                 1.0655
 Frc consts  --      6.3279                 8.9425                 9.1280
 IR Inten    --     20.3420                35.2817                24.7796

 - Thermochemistry -
 -------------------
 Temperature   298.150 Kelvin.  Pressure   1.00000 Atm.
 Atom     1 has atomic number  8 and mass  15.99491

 Molecular mass:    64.01604 amu.
 Principal axes and moments of inertia in atomic units:
                           1         2         3
     Eigenvalues --   106.81863 302.54793 366.62205
           X            0.99894   0.03721   0.02693
           Y           -0.03853   0.99799   0.05027
           Z           -0.02500  -0.05125   0.99837
 This molecule is an asymmetric top.
 Rotational symmetry number  1.
 Rotational temperatures (Kelvin)      0.81085     0.28628     0.23625
 Rotational constants (GHZ):          16.89538     5.96514     4.92262
 Zero-point vibrational energy     159042.2 (Joules/Mol)
                                   38.01200 (Kcal/Mol)
 Warning -- explicit consideration of   5 degrees of freedom as
           vibrations may cause significant error
 Vibrational temperatures:    230.79   299.84   536.42   670.48   880.34
          (Kelvin)           1262.51  1447.43  1526.95  1595.19  1836.59
                             1979.57  2015.12  2059.74  2164.72  4349.35
                             4492.22  5423.11  5486.34

 Zero-point correction=                           0.060576 (Hartree/Particle)
 Thermal correction to Energy=                    0.065510
 Thermal correction to Enthalpy=                  0.066454
 Thermal correction to Gibbs Free Energy=         0.033339
 Sum of electronic and zero-point Energies=           -266.018925
 Sum of electronic and thermal Energies=              -266.013992
 Sum of electronic and thermal Enthalpies=            -266.013048
 Sum of electronic and thermal Free Energies=         -266.046163

                     E (Thermal)             CV                S
                      KCal/Mol        Cal/Mol-Kelvin    Cal/Mol-Kelvin
 Total                   41.108             15.579             69.697
 Electronic               0.000              0.000              0.000
 Translational            0.889              2.981             38.389
 Rotational               0.889              2.981             23.986
 Vibrational             39.330              9.618              7.322
 Vibration     1          0.622              1.891              2.545
 Vibration     2          0.642              1.828              2.058
 Vibration     3          0.744              1.528              1.068
 Vibration     4          0.823              1.325              0.749
 Vibration     5          0.971              1.007              0.430

 Optimization completed.
    -- Stationary point found.
 Normal termination of Gaussian 09 at Thu Sep  8 14:46:47 2022.
