 Gaussian 09, Revision E.01,
 Gaussian 09:  ES64L-G09RevE.01 30-Nov-2015

 -------------------------
 #P OPT Freq B3LYP/6-31G**
 -------------------------

 --------
 Frag_238
 --------
 Symbolic Z-matrix:
 Charge =  0 Multiplicity = 1

 SCF Done:  E(RB3LYP) =  -269.589613610     A.U. after   12 cycles
 SCF Done:  E(RB3LYP) =  -269.593129217     A.U. after   10 cycles
 SCF Done:  E(RB3LYP) =  -269.593302578     A.U. after   10 cycles
 SCF Done:  E(RB3LYP) =  -269.593342791     A.U. after   10 cycles
 SCF Done:  E(RB3LYP) =  -269.593369468     A.U. after   10 cycles
 SCF Done:  E(RB3LYP) =  -269.593386356     A.U. after   10 cycles
 SCF Done:  E(RB3LYP) =  -269.593403005     A.U. after   10 cycles
 SCF Done:  E(RB3LYP) =  -269.593404320     A.U. after    8 cycles
 Optimization completed.
    -- Stationary point found.
 Normal termination of Gaussian 09 at Sat Aug 21 01:39:08 2021.

 ----------------------------------------------------------------------
 #P Geom=AllCheck Guess=TCheck SCRF=Check GenChk RB3LYP/6-31G(d,p) Freq
 ----------------------------------------------------------------------

 Structure from the checkpoint file:  "/public/home/users/caep010/.cache/gau_scr/Gau-135010.chk"
 --------
 Frag_238
 --------
 Charge =  0 Multiplicity = 1

                         Standard orientation:
 ---------------------------------------------------------------------
 Center     Atomic      Atomic             Coordinates (Angstroms)
 Number     Number       Type             X           Y           Z
 ---------------------------------------------------------------------
      1          6           0       -1.153480    0.964803   -0.160260
      2          6           0        0.011096   -0.024472   -0.012619
      3          6           0        1.373438    0.665530    0.006626
      4          8           0        0.037353   -0.931770   -1.086221
      5          8           0       -0.172195   -0.819810    1.164337
      6          1           0       -1.064590    1.519357   -1.097989
      7          1           0       -2.104194    0.421750   -0.163369
      8          1           0       -1.174354    1.688067    0.663277
      9          1           0        1.547279    1.205942   -0.927963
     10          1           0        1.433777    1.377489    0.835752
     11          1           0        2.152065   -0.090082    0.129483
     12          1           0       -0.724142   -1.517541   -0.967539
     13          1           0       -0.373433   -0.227513    1.900934
 ---------------------------------------------------------------------

 SCF Done:  E(RB3LYP) =  -269.593404320     A.U. after    1 cycles

 The electronic state is 1-A.
 Alpha  occ. eigenvalues --  -19.14446 -19.14131 -10.28691 -10.18025 -10.17226
 Alpha  occ. eigenvalues --   -1.05494  -0.98453  -0.75892  -0.69713  -0.59334
 Alpha  occ. eigenvalues --   -0.52401  -0.48000  -0.45039  -0.41918  -0.39819
 Alpha  occ. eigenvalues --   -0.38505  -0.36600  -0.34695  -0.33696  -0.29276
 Alpha  occ. eigenvalues --   -0.26174
 Alpha virt. eigenvalues --    0.06174   0.10308   0.13000   0.14439   0.15571
 Alpha virt. eigenvalues --    0.16208   0.19343   0.19520   0.21795   0.23970
 Alpha virt. eigenvalues --    0.25593   0.28104   0.50579   0.56137   0.57529

 Mulliken charges:
               1
     1  C   -0.327337
     2  C    0.468197
     3  C   -0.307353
     4  O   -0.529309
     5  O   -0.550570
     6  H    0.118430
     7  H    0.103035
     8  H    0.089791
     9  H    0.111912
    10  H    0.087850
    11  H    0.127158
    12  H    0.307162
    13  H    0.301036
 Sum of Mulliken charges =  -0.00000

 Dipole moment (field-independent basis, Debye):
    X=             -1.2282    Y=              1.5104    Z=              1.0348  Tot=              2.2047
 Quadrupole moment (field-independent basis, Debye-Ang):
   XX=            -30.1149   YY=            -31.6080   ZZ=            -30.5847
   XY=              1.8892   XZ=              0.5997   YZ=              1.7337

  Exact polarizability:  40.576   1.248  40.062  -0.412   1.337  40.436
 Approx polarizability:  50.374   1.938  54.653  -1.808   2.240  57.408

                      1                      2                      3
                      A                      A                      A
 Frequencies --    212.9321               224.8723               272.5750
 Red. masses --      1.0543                 1.0187                 1.0490
 Frc consts  --      0.0282                 0.0304                 0.0459
 IR Inten    --     54.1085                20.4623                 4.0493

                      4                      5                      6
                      A                      A                      A
 Frequencies --    298.9912               347.4386               365.7716
 Red. masses --      1.2331                 2.4385                 2.5055
 Frc consts  --      0.0649                 0.1734                 0.1975
 IR Inten    --    116.5686                15.7207                19.8722

                      7                      8                      9
                      A                      A                      A
 Frequencies --    439.6273               503.5191               531.0349
 Red. masses --      2.3589                 2.9856                 4.0412
 Frc consts  --      0.2686                 0.4460                 0.6714
 IR Inten    --      3.6635                13.7707                18.2532

                     10                     11                     12
                      A                      A                      A
 Frequencies --    774.9111               917.5234               933.5400
 Red. masses --      4.2965                 1.5447                 2.3476
 Frc consts  --      1.5201                 0.7662                 1.2054
 IR Inten    --      4.7366                 2.8093                37.1838

                     13                     14                     15
                      A                      A                      A
 Frequencies --    985.7777              1014.0664              1116.6266
 Red. masses --      1.9874                 1.3857                 1.4959
 Frc consts  --      1.1379                 0.8396                 1.0989
 IR Inten    --     48.4805                 1.7736                74.6849

                     16                     17                     18
                      A                      A                      A
 Frequencies --   1153.0744              1226.0631              1348.5998
 Red. masses --      1.5102                 2.8590                 1.8153
 Frc consts  --      1.1831                 2.5322                 1.9452
 IR Inten    --     97.6784                94.3445               113.2679

                     19                     20                     21
                      A                      A                      A
 Frequencies --   1386.1906              1416.9754              1434.1269
 Red. masses --      1.4429                 1.3829                 1.4371
 Frc consts  --      1.6336                 1.6360                 1.7415
 IR Inten    --     36.7663                30.8304                30.2765

                     22                     23                     24
                      A                      A                      A
 Frequencies --   1489.5225              1498.3478              1513.6407
 Red. masses --      1.0475                 1.0614                 1.0742
 Frc consts  --      1.3693                 1.4040                 1.4501
 IR Inten    --      0.1196                 0.5774                 1.3004

                     25                     26                     27
                      A                      A                      A
 Frequencies --   1518.2154              3040.1627              3057.1468
 Red. masses --      1.0826                 1.0372                 1.0362
 Frc consts  --      1.4703                 5.6481                 5.7060
 IR Inten    --      7.7944                14.2833                11.8143

                     28                     29                     30
                      A                      A                      A
 Frequencies --   3110.5170              3129.2047              3137.1315
 Red. masses --      1.1012                 1.1025                 1.1020
 Frc consts  --      6.2776                 6.3603                 6.3899
 IR Inten    --     25.9363                17.9499                30.3923

                     31                     32                     33
                      A                      A                      A
 Frequencies --   3152.4892              3796.2045              3818.5872
 Red. masses --      1.1032                 1.0654                 1.0658
 Frc consts  --      6.4596                 9.0459                 9.1561
 IR Inten    --     17.2903                17.6338                12.8539

 - Thermochemistry -
 -------------------
 Temperature   298.150 Kelvin.  Pressure   1.00000 Atm.
 Atom     1 has atomic number  6 and mass  12.00000

 Molecular mass:    76.05243 amu.
 Principal axes and moments of inertia in atomic units:
                           1         2         3
     Eigenvalues --   359.41102 373.49259 385.96765
           X            0.99270   0.05427   0.10772
           Y           -0.06926   0.98763   0.14070
           Z           -0.09875  -0.14713   0.98417
 This molecule is an asymmetric top.
 Rotational symmetry number  1.
 Rotational temperatures (Kelvin)      0.24099     0.23190     0.22441
 Rotational constants (GHZ):           5.02139     4.83207     4.67589
 Zero-point vibrational energy     294074.4 (Joules/Mol)
                                   70.28548 (Kcal/Mol)
 Warning -- explicit consideration of   9 degrees of freedom as
           vibrations may cause significant error
 Vibrational temperatures:    306.36   323.54   392.17   430.18   499.89
          (Kelvin)            526.26   632.52   724.45   764.04  1114.92
                             1320.11  1343.15  1418.31  1459.01  1606.57
                             1659.01  1764.03  1940.33  1994.42  2038.71
                             2063.39  2143.09  2155.79  2177.79  2184.37
                             4374.11  4398.55  4475.33  4502.22  4513.63
                             4535.72  5461.88  5494.09

 Zero-point correction=                           0.112007 (Hartree/Particle)
 Thermal correction to Energy=                    0.118551
 Thermal correction to Enthalpy=                  0.119495
 Thermal correction to Gibbs Free Energy=         0.083116
 Sum of electronic and zero-point Energies=           -269.481397
 Sum of electronic and thermal Energies=              -269.474853
 Sum of electronic and thermal Enthalpies=            -269.473909
 Sum of electronic and thermal Free Energies=         -269.510288

                     E (Thermal)             CV                S
                      KCal/Mol        Cal/Mol-Kelvin    Cal/Mol-Kelvin
 Total                   74.392             23.715             76.566
 Electronic               0.000              0.000              0.000
 Translational            0.889              2.981             38.902
 Rotational               0.889              2.981             25.452
 Vibrational             72.614             17.753             12.211
 Vibration     1          0.644              1.821              2.018
 Vibration     2          0.650              1.803              1.920
 Vibration     3          0.676              1.724              1.580
 Vibration     4          0.692              1.676              1.423
 Vibration     5          0.725              1.580              1.178
 Vibration     6          0.739              1.543              1.097
 Vibration     7          0.800              1.384              0.828
 Vibration     8          0.859              1.242              0.649
 Vibration     9          0.886              1.181              0.585

 Optimization completed.
    -- Stationary point found.
 Normal termination of Gaussian 09 at Sat Aug 21 01:39:17 2021.
