 Gaussian 09, Revision E.01,
 Gaussian 09:  ES64L-G09RevE.01 30-Nov-2015

 ----------------------------
 #P OPT Freq B3LYP/6-31G(d,p)
 ----------------------------

 --------
 Frag_897
 --------
 Symbolic Z-matrix:
 Charge =  0 Multiplicity = 1

 SCF Done:  E(RB3LYP) =  -285.164301703     A.U. after   13 cycles
 SCF Done:  E(RB3LYP) =  -285.164328362     A.U. after    8 cycles
 SCF Done:  E(RB3LYP) =  -285.164331936     A.U. after    7 cycles
 SCF Done:  E(RB3LYP) =  -285.164332626     A.U. after    7 cycles
 SCF Done:  E(RB3LYP) =  -285.164332729     A.U. after    6 cycles
 Optimization completed.
    -- Stationary point found.
 Normal termination of Gaussian 09 at Thu Sep  8 15:05:28 2022.

 ----------------------------------------------------------------------
 #P Geom=AllCheck Guess=TCheck SCRF=Check GenChk RB3LYP/6-31G(d,p) Freq
 ----------------------------------------------------------------------

 Structure from the checkpoint file:  "B3LYP6-31Gdp.Frag_897.chk"
 --------
 Frag_897
 --------
 Charge =  0 Multiplicity = 1

                         Standard orientation:
 ---------------------------------------------------------------------
 Center     Atomic      Atomic             Coordinates (Angstroms)
 Number     Number       Type             X           Y           Z
 ---------------------------------------------------------------------
      1          6           0       -1.090878    1.123901    0.798012
      2          6           0       -0.668743    0.243599   -0.388537
      3          7           0       -1.571754   -0.899352   -0.480183
      4          7           0        0.705703   -0.291781   -0.339623
      5          6           0        1.033370   -1.052189    0.861789
      6          7           0        1.716615    0.687262   -0.565052
      7          1           0       -2.070538    1.576914    0.610065
      8          1           0       -0.383507    1.944816    0.957142
      9          1           0       -1.159773    0.534206    1.715586
     10          1           0       -0.675496    0.877110   -1.295124
     11          1           0       -1.352233   -1.429473   -1.319915
     12          1           0       -2.535751   -0.585321   -0.551984
     13          1           0        1.980215   -1.570292    0.695425
     14          1           0        1.144628   -0.425477    1.764117
     15          1           0        0.240249   -1.780983    1.038396
     16          1           0        1.548079    1.530333   -0.004125
     17          1           0        1.667684    0.963404   -1.543167
 ---------------------------------------------------------------------

 SCF Done:  E(RB3LYP) =  -285.164332729     A.U. after    1 cycles

 The electronic state is 1-A.
 Alpha  occ. eigenvalues --  -14.33858 -14.33402 -14.31176 -10.23623 -10.18339
 Alpha  occ. eigenvalues --  -10.17635  -0.96475  -0.87939  -0.77244  -0.72603
 Alpha  occ. eigenvalues --   -0.65492  -0.56905  -0.50133  -0.49153  -0.48184
 Alpha  occ. eigenvalues --   -0.44425  -0.42446  -0.39297  -0.38156  -0.37023
 Alpha  occ. eigenvalues --   -0.36676  -0.35242  -0.24986  -0.23804  -0.20738
 Alpha virt. eigenvalues --    0.06856   0.09746   0.11868   0.13660   0.14705
 Alpha virt. eigenvalues --    0.15929   0.17719   0.17947   0.18895   0.19206
 Alpha virt. eigenvalues --    0.20863   0.21856   0.23481   0.26169   0.27259

 Mulliken charges:
               1
     1  C   -0.324171
     2  C    0.195320
     3  N   -0.591897
     4  N   -0.322809
     5  C   -0.141910
     6  N   -0.451222
     7  H    0.099047
     8  H    0.093049
     9  H    0.124944
    10  H    0.058001
    11  H    0.244289
    12  H    0.234561
    13  H    0.114906
    14  H    0.071706
    15  H    0.126535
    16  H    0.221091
    17  H    0.248560
 Sum of Mulliken charges =  -0.00000

 Dipole moment (field-independent basis, Debye):
    X=             -1.7063    Y=              1.5970    Z=             -0.8279  Tot=              2.4794
 Quadrupole moment (field-independent basis, Debye-Ang):
   XX=            -40.1019   YY=            -37.6643   ZZ=            -36.5359
   XY=              0.5019   XZ=              2.1947   YZ=             -0.1548

  Exact polarizability:  59.614   1.056  55.237   0.085  -0.389  51.299
 Approx polarizability:  77.838   3.093  75.606  -1.107  -0.089  71.191

                      1                      2                      3
                      A                      A                      A
 Frequencies --    119.4241               213.4165               262.5447
 Red. masses --      2.5907                 1.0691                 1.5771
 Frc consts  --      0.0218                 0.0287                 0.0640
 IR Inten    --      1.6432                 5.6333                 0.9009

                      4                      5                      6
                      A                      A                      A
 Frequencies --    266.7640               291.4034               307.4951
 Red. masses --      1.3463                 1.0937                 2.0387
 Frc consts  --      0.0564                 0.0547                 0.1136
 IR Inten    --     11.4103                20.8786                 9.0914

                      7                      8                      9
                      A                      A                      A
 Frequencies --    314.6815               391.2718               465.4377
 Red. masses --      1.4719                 2.4624                 2.3112
 Frc consts  --      0.0859                 0.2221                 0.2950
 IR Inten    --     35.1671                10.0603                10.6760

                     10                     11                     12
                      A                      A                      A
 Frequencies --    502.8019               570.2934               760.9275
 Red. masses --      2.9015                 2.8636                 2.6313
 Frc consts  --      0.4322                 0.5487                 0.8976
 IR Inten    --      6.7970                14.5690                56.1580

                     13                     14                     15
                      A                      A                      A
 Frequencies --    855.4281               901.1114               935.6883
 Red. masses --      1.4567                 2.2560                 1.7128
 Frc consts  --      0.6280                 1.0793                 0.8835
 IR Inten    --     79.5562                23.4397                82.1465

                     16                     17                     18
                      A                      A                      A
 Frequencies --    980.3258              1015.4287              1105.9845
 Red. masses --      1.4995                 1.8553                 1.7840
 Frc consts  --      0.8491                 1.1271                 1.2857
 IR Inten    --     12.6387                40.3997                27.4354

                     19                     20                     21
                      A                      A                      A
 Frequencies --   1151.0126              1167.8605              1213.0452
 Red. masses --      1.7370                 1.5672                 2.1235
 Frc consts  --      1.3559                 1.2594                 1.8410
 IR Inten    --      9.1116                24.5236                12.0141

                     22                     23                     24
                      A                      A                      A
 Frequencies --   1233.1525              1288.0602              1345.7665
 Red. masses --      2.0857                 1.4407                 1.4932
 Frc consts  --      1.8686                 1.4083                 1.5933
 IR Inten    --      2.3391                 5.8810                14.3448

                     25                     26                     27
                      A                      A                      A
 Frequencies --   1382.8862              1410.0171              1431.3065
 Red. masses --      1.3902                 1.2544                 1.3507
 Frc consts  --      1.5664                 1.4694                 1.6303
 IR Inten    --     19.8678                10.0192                33.7668

                     28                     29                     30
                      A                      A                      A
 Frequencies --   1448.9377              1497.3172              1510.0265
 Red. masses --      1.1842                 1.0530                 1.0523
 Frc consts  --      1.4647                 1.3909                 1.4137
 IR Inten    --      4.6602                 0.7566                11.3649

                     31                     32                     33
                      A                      A                      A
 Frequencies --   1511.0453              1528.8287              1645.1974
 Red. masses --      1.0535                 1.0553                 1.1032
 Frc consts  --      1.4172                 1.4533                 1.7592
 IR Inten    --      3.0112                 1.5363                39.8518

                     34                     35                     36
                      A                      A                      A
 Frequencies --   1673.4358              2926.6606              2962.1066
 Red. masses --      1.0856                 1.0831                 1.0600
 Frc consts  --      1.7911                 5.4661                 5.4796
 IR Inten    --     13.3120                92.5754                71.2680

                     37                     38                     39
                      A                      A                      A
 Frequencies --   3045.8026              3102.5864              3106.2268
 Red. masses --      1.0369                 1.0731                 1.1004
 Frc consts  --      5.6673                 6.0860                 6.2556
 IR Inten    --     16.7528                35.3178                28.4312

                     40                     41                     42
                      A                      A                      A
 Frequencies --   3137.4801              3157.6759              3359.0527
 Red. masses --      1.1017                 1.1044                 1.0561
 Frc consts  --      6.3897                 6.4877                 7.0209
 IR Inten    --     21.0916                11.1632                30.9394

                     43                     44                     45
                      A                      A                      A
 Frequencies --   3498.0300              3535.1269              3591.8771
 Red. masses --      1.0491                 1.0840                 1.0936
 Frc consts  --      7.5633                 7.9819                 8.3125
 IR Inten    --      0.7695                 0.7033                 0.1362

 - Thermochemistry -
 -------------------
 Temperature   298.150 Kelvin.  Pressure   1.00000 Atm.
 Atom     1 has atomic number  6 and mass  12.00000

 Molecular mass:    89.09530 amu.
 Principal axes and moments of inertia in atomic units:
                           1         2         3
     Eigenvalues --   392.44438 654.30532 741.53363
           X            0.99956  -0.02530   0.01521
           Y            0.02552   0.99957  -0.01470
           Z           -0.01483   0.01508   0.99978
 This molecule is an asymmetric top.
 Rotational symmetry number  1.
 Rotational temperatures (Kelvin)      0.22070     0.13238     0.11680
 Rotational constants (GHZ):           4.59872     2.75826     2.43380
 Zero-point vibrational energy     407453.8 (Joules/Mol)
                                   97.38379 (Kcal/Mol)
 Warning -- explicit consideration of  11 degrees of freedom as
           vibrations may cause significant error
 Vibrational temperatures:    171.82   307.06   377.74   383.81   419.26
          (Kelvin)            442.42   452.76   562.95   669.66   723.42
                              820.52  1094.80  1230.77  1296.50  1346.25
                             1410.47  1460.97  1591.26  1656.05  1680.29
                             1745.30  1774.23  1853.23  1936.26  1989.66
                             2028.70  2059.33  2084.70  2154.30  2172.59
                             2174.05  2199.64  2367.07  2407.70  4210.81
                             4261.81  4382.23  4463.92  4469.16  4514.13
                             4543.19  4832.92  5032.88  5086.25  5167.90

 Zero-point correction=                           0.155191 (Hartree/Particle)
 Thermal correction to Energy=                    0.162903
 Thermal correction to Enthalpy=                  0.163847
 Thermal correction to Gibbs Free Energy=         0.124481
 Sum of electronic and zero-point Energies=           -285.009142
 Sum of electronic and thermal Energies=              -285.001430
 Sum of electronic and thermal Enthalpies=            -285.000486
 Sum of electronic and thermal Free Energies=         -285.039851

                     E (Thermal)             CV                S
                      KCal/Mol        Cal/Mol-Kelvin    Cal/Mol-Kelvin
 Total                  102.223             28.509             82.851
 Electronic               0.000              0.000              0.000
 Translational            0.889              2.981             39.374
 Rotational               0.889              2.981             26.746
 Vibrational            100.446             22.547             16.732
 Vibration     1          0.609              1.933              3.110
 Vibration     2          0.644              1.820              2.014
 Vibration     3          0.670              1.741              1.645
 Vibration     4          0.672              1.734              1.617
 Vibration     5          0.687              1.690              1.466
 Vibration     6          0.697              1.659              1.376
 Vibration     7          0.702              1.646              1.338
 Vibration     8          0.759              1.489              0.995
 Vibration     9          0.823              1.327              0.750
 Vibration    10          0.858              1.244              0.651
 Vibration    11          0.926              1.096              0.504

 Normal termination of Gaussian 09 at Thu Sep  8 15:05:42 2022.
