 Gaussian 09, Revision E.01,
 Gaussian 09:  ES64L-G09RevE.01 30-Nov-2015

 --------------------------------
 #P OPT=calcfc Freq B3LYP/6-31G**
 --------------------------------

 --------
 Frag_237
 --------
 Symbolic Z-matrix:
 Charge =  0 Multiplicity = 1

 SCF Done:  E(RB3LYP) =  -303.782411313     A.U. after   14 cycles
 SCF Done:  E(RB3LYP) =  -303.791621918     A.U. after   18 cycles
 SCF Done:  E(RB3LYP) =  -303.791280808     A.U. after   18 cycles
 SCF Done:  E(RB3LYP) =  -303.791771271     A.U. after   13 cycles
 SCF Done:  E(RB3LYP) =  -303.792634546     A.U. after   17 cycles
 SCF Done:  E(RB3LYP) =  -303.793467779     A.U. after   16 cycles
 SCF Done:  E(RB3LYP) =  -303.793779121     A.U. after   17 cycles
 SCF Done:  E(RB3LYP) =  -303.793878652     A.U. after   14 cycles
 SCF Done:  E(RB3LYP) =  -303.793935960     A.U. after   13 cycles
 SCF Done:  E(RB3LYP) =  -303.793951722     A.U. after   13 cycles
 SCF Done:  E(RB3LYP) =  -303.793952905     A.U. after   10 cycles
 SCF Done:  E(RB3LYP) =  -303.793952857     A.U. after    9 cycles
 Optimization completed.
    -- Stationary point found.
 Normal termination of Gaussian 09 at Sat Aug 21 02:20:54 2021.

 ----------------------------------------------------------------------
 #P Geom=AllCheck Guess=TCheck SCRF=Check GenChk RB3LYP/6-31G(d,p) Freq
 ----------------------------------------------------------------------

 Structure from the checkpoint file:  "/public/home/users/caep010/.cache/gau_scr/Gau-49354.chk"
 --------
 Frag_237
 --------
 Charge =  0 Multiplicity = 1

                         Standard orientation:
 ---------------------------------------------------------------------
 Center     Atomic      Atomic             Coordinates (Angstroms)
 Number     Number       Type             X           Y           Z
 ---------------------------------------------------------------------
      1          6           0        1.323620    0.449776    1.033537
      2          6           0        0.344416   -0.044879   -0.028288
      3          6           0        0.069862   -1.539023    0.044932
      4          7           0        0.832189    0.324898   -1.352986
      5          7           0       -0.917479    0.808872    0.141852
      6          8           0       -1.956051    0.186819    0.197738
      7          1           0        1.395681    1.541952    1.007882
      8          1           0        0.996477    0.154098    2.034495
      9          1           0        2.314461    0.028692    0.843318
     10          1           0       -0.340328   -1.809827    1.020704
     11          1           0       -0.656845   -1.844052   -0.712960
     12          1           0        0.999497   -2.089268   -0.117239
     13          1           0        0.156235    0.057875   -2.066245
     14          1           0        0.952869    1.334346   -1.415009
 ---------------------------------------------------------------------

 SCF Done:  E(RB3LYP) =  -303.793952857     A.U. after    1 cycles

 The electronic state is 1-A.
 Alpha  occ. eigenvalues --  -19.20267 -14.43641 -14.33892 -10.25068 -10.18805
 Alpha  occ. eigenvalues --  -10.18248  -1.14678  -0.91816  -0.77725  -0.70602
 Alpha  occ. eigenvalues --   -0.68639  -0.55946  -0.50793  -0.50463  -0.47151
 Alpha  occ. eigenvalues --   -0.44274  -0.42639  -0.39583  -0.38889  -0.38531
 Alpha  occ. eigenvalues --   -0.37455  -0.35155  -0.27849  -0.20926
 Alpha virt. eigenvalues --   -0.07527   0.07275   0.11922   0.12762   0.13909
 Alpha virt. eigenvalues --    0.14555   0.15555   0.18741   0.20627   0.21469
 Alpha virt. eigenvalues --    0.22449   0.23402   0.25631   0.35994   0.49933

 Mulliken charges:
               1
     1  C   -0.304033
     2  C    0.187660
     3  C   -0.294219
     4  N   -0.557508
     5  N    0.031903
     6  O   -0.270434
     7  H    0.113534
     8  H    0.116066
     9  H    0.127570
    10  H    0.115943
    11  H    0.110855
    12  H    0.121173
    13  H    0.248807
    14  H    0.252684
 Sum of Mulliken charges =  -0.00000

 Dipole moment (field-independent basis, Debye):
    X=              1.4545    Y=             -0.2271    Z=             -0.3652  Tot=              1.5167
 Quadrupole moment (field-independent basis, Debye-Ang):
   XX=            -42.1006   YY=            -36.1298   ZZ=            -33.6962
   XY=              2.1674   XZ=              2.5492   YZ=             -1.4326

  Exact polarizability:  56.347   2.364  46.761  -2.043  -0.262  47.717
 Approx polarizability:  91.682   5.067  64.581  -9.265   0.046  68.482

                      1                      2                      3
                      A                      A                      A
 Frequencies --     95.5884               186.0909               226.0485
 Red. masses --      5.4912                 1.0251                 1.0753
 Frc consts  --      0.0296                 0.0209                 0.0324
 IR Inten    --      0.3275                 0.8851                 0.1077

                      4                      5                      6
                      A                      A                      A
 Frequencies --    293.6878               328.6836               345.4239
 Red. masses --      2.3321                 1.3741                 2.2138
 Frc consts  --      0.1185                 0.0875                 0.1556
 IR Inten    --     13.2076                25.6249                 7.7950

                      7                      8                      9
                      A                      A                      A
 Frequencies --    376.2135               418.2750               442.3325
 Red. masses --      3.2511                 2.9087                 3.0969
 Frc consts  --      0.2711                 0.2998                 0.3570
 IR Inten    --      4.8469                 5.3567                13.1954

                     10                     11                     12
                      A                      A                      A
 Frequencies --    589.4255               763.8252               817.0802
 Red. masses --      3.4050                 5.2443                 3.2845
 Frc consts  --      0.6970                 1.8027                 1.2920
 IR Inten    --      3.9249                 9.6144                 7.8983

                     13                     14                     15
                      A                      A                      A
 Frequencies --    857.7413               951.1524              1004.8329
 Red. masses --      1.4280                 1.4185                 1.3917
 Frc consts  --      0.6190                 0.7561                 0.8279
 IR Inten    --    204.7245                 0.1692                 5.5467

                     16                     17                     18
                      A                      A                      A
 Frequencies --   1009.9825              1100.1766              1180.6177
 Red. masses --      1.4922                 1.5890                 2.0847
 Frc consts  --      0.8968                 1.1332                 1.7120
 IR Inten    --      2.8278                 5.6594                14.0853

                     19                     20                     21
                      A                      A                      A
 Frequencies --   1260.7986              1367.9949              1416.5399
 Red. masses --      2.8428                 1.7118                 1.4489
 Frc consts  --      2.6625                 1.8875                 1.7130
 IR Inten    --     18.6760                 2.4178                15.8576

                     22                     23                     24
                      A                      A                      A
 Frequencies --   1426.7877              1492.5717              1495.9517
 Red. masses --      1.3038                 1.0456                 1.0733
 Frc consts  --      1.5638                 1.3724                 1.4152
 IR Inten    --     12.3759                 0.0539                 0.9207

                     25                     26                     27
                      A                      A                      A
 Frequencies --   1506.8894              1513.3138              1655.0318
 Red. masses --      1.0563                 1.0492                 3.7852
 Frc consts  --      1.4132                 1.4157                 6.1088
 IR Inten    --      3.3634                 8.3897               122.0857

                     28                     29                     30
                      A                      A                      A
 Frequencies --   1672.1218              3051.9096              3065.8077
 Red. masses --      1.3925                 1.0348                 1.0355
 Frc consts  --      2.2939                 5.6786                 5.7344
 IR Inten    --     38.2478                14.2793                 7.7131

                     31                     32                     33
                      A                      A                      A
 Frequencies --   3126.5104              3138.5984              3139.7712
 Red. masses --      1.1021                 1.1027                 1.1028
 Frc consts  --      6.3473                 6.3999                 6.4053
 IR Inten    --     18.3232                 8.8303                15.3727

                     34                     35                     36
                      A                      A                      A
 Frequencies --   3150.6329              3482.5711              3574.0935
 Red. masses --      1.1037                 1.0487                 1.0937
 Frc consts  --      6.4552                 7.4935                 8.2314
 IR Inten    --     14.4546                 0.3484                 0.7660

 - Thermochemistry -
 -------------------
 Temperature   298.150 Kelvin.  Pressure   1.00000 Atm.
 Atom     1 has atomic number  6 and mass  12.00000

 Molecular mass:    88.06366 amu.
 Principal axes and moments of inertia in atomic units:
                           1         2         3
     Eigenvalues --   393.32504 603.63276 618.68344
           X            0.99673   0.05765   0.05657
           Y           -0.05463   0.99707  -0.05364
           Z           -0.05950   0.05037   0.99696
 This molecule is an asymmetric top.
 Rotational symmetry number  1.
 Rotational temperatures (Kelvin)      0.22021     0.14349     0.14000
 Rotational constants (GHZ):           4.58842     2.98980     2.91707
 Zero-point vibrational energy     308188.4 (Joules/Mol)
                                   73.65879 (Kcal/Mol)
 Warning -- explicit consideration of  10 degrees of freedom as
           vibrations may cause significant error
 Vibrational temperatures:    137.53   267.74   325.23   422.55   472.90
          (Kelvin)            496.99   541.29   601.80   636.42   848.05
                             1098.97  1175.59  1234.10  1368.49  1445.73
                             1453.14  1582.91  1698.64  1814.01  1968.24
                             2038.08  2052.83  2147.48  2152.34  2168.08
                             2177.32  2381.22  2405.81  4391.01  4411.01
                             4498.35  4515.74  4517.42  4533.05  5010.64
                             5142.32

 Zero-point correction=                           0.117383 (Hartree/Particle)
 Thermal correction to Energy=                    0.124749
 Thermal correction to Enthalpy=                  0.125693
 Thermal correction to Gibbs Free Energy=         0.086810
 Sum of electronic and zero-point Energies=           -303.676570
 Sum of electronic and thermal Energies=              -303.669204
 Sum of electronic and thermal Enthalpies=            -303.668260
 Sum of electronic and thermal Free Energies=         -303.707143

                     E (Thermal)             CV                S
                      KCal/Mol        Cal/Mol-Kelvin    Cal/Mol-Kelvin
 Total                   78.281             26.276             81.836
 Electronic               0.000              0.000              0.000
 Translational            0.889              2.981             39.339
 Rotational               0.889              2.981             26.488
 Vibrational             76.504             20.315             16.009
 Vibration     1          0.603              1.952              3.542
 Vibration     2          0.632              1.859              2.266
 Vibration     3          0.650              1.801              1.910
 Vibration     4          0.688              1.686              1.453
 Vibration     5          0.712              1.618              1.267
 Vibration     6          0.724              1.585              1.187
 Vibration     7          0.747              1.521              1.054
 Vibration     8          0.781              1.431              0.898
 Vibration     9          0.802              1.378              0.819
 Vibration    10          0.947              1.054              0.468

 Optimization completed.
    -- Stationary point found.
 Normal termination of Gaussian 09 at Sat Aug 21 02:21:06 2021.
