 Gaussian 09, Revision E.01,
 Gaussian 09:  ES64L-G09RevE.01 30-Nov-2015

 ----------------------------
 #P OPT Freq B3LYP/6-31G(d,p)
 ----------------------------

 --------
 Frag_547
 --------
 Symbolic Z-matrix:
 Charge =  0 Multiplicity = 1

 SCF Done:  E(RB3LYP) =  -284.411835445     A.U. after   13 cycles
 SCF Done:  E(RB3LYP) =  -284.411900508     A.U. after    9 cycles
 SCF Done:  E(RB3LYP) =  -284.411903491     A.U. after    9 cycles
 SCF Done:  E(RB3LYP) =  -284.411907247     A.U. after    8 cycles
 Optimization completed.
    -- Stationary point found.
 Normal termination of Gaussian 09 at Thu Sep  8 15:13:27 2022.

 ----------------------------------------------------------------------
 #P Geom=AllCheck Guess=TCheck SCRF=Check GenChk RB3LYP/6-31G(d,p) Freq
 ----------------------------------------------------------------------

 Structure from the checkpoint file:  "B3LYP6-31Gdp.Frag_547.chk"
 --------
 Frag_547
 --------
 Charge =  0 Multiplicity = 1

                         Standard orientation:
 ---------------------------------------------------------------------
 Center     Atomic      Atomic             Coordinates (Angstroms)
 Number     Number       Type             X           Y           Z
 ---------------------------------------------------------------------
      1          7           0        0.650940    1.361521    0.040413
      2          6           0        0.541775    0.098243    0.019544
      3          8           0        1.630763   -0.701631   -0.073324
      4          6           0       -0.731098   -0.727062    0.099808
      5          8           0       -1.894623    0.070880    0.003479
      6          1           0       -0.278103    1.774253    0.146635
      7          1           0        2.399439   -0.107051   -0.083623
      8          1           0       -0.689857   -1.517084   -0.663148
      9          1           0       -0.765698   -1.226254    1.073927
     10          1           0       -1.975539    0.364413   -0.914034
 ---------------------------------------------------------------------

 SCF Done:  E(RB3LYP) =  -284.411907247     A.U. after    1 cycles

 The electronic state is 1-A.
 Alpha  occ. eigenvalues --  -19.18623 -19.16836 -14.30691 -10.28209 -10.25355
 Alpha  occ. eigenvalues --   -1.07729  -1.04069  -0.88465  -0.73045  -0.60671
 Alpha  occ. eigenvalues --   -0.53135  -0.50689  -0.48352  -0.46073  -0.39925
 Alpha  occ. eigenvalues --   -0.39193  -0.35029  -0.30211  -0.27472  -0.27250
 Alpha virt. eigenvalues --    0.02471   0.06031   0.08339   0.12669   0.15229
 Alpha virt. eigenvalues --    0.17286   0.19170   0.25020   0.30497   0.41554
 Alpha virt. eigenvalues --    0.53600   0.54578   0.54835   0.60110   0.63883

 Mulliken charges:
               1
     1  N   -0.565210
     2  C    0.443601
     3  O   -0.500879
     4  C    0.005454
     5  O   -0.525429
     6  H    0.234942
     7  H    0.327613
     8  H    0.119723
     9  H    0.147600
    10  H    0.312585
 Sum of Mulliken charges =  -0.00000

 Dipole moment (field-independent basis, Debye):
    X=             -0.3337    Y=             -0.8377    Z=             -1.1299  Tot=              1.4456
 Quadrupole moment (field-independent basis, Debye-Ang):
   XX=            -28.4626   YY=            -31.6759   ZZ=            -27.6412
   XY=             -1.4097   XZ=              2.8533   YZ=             -0.8629

  Exact polarizability:  37.697  -1.343  40.659   0.248  -0.335  23.625
 Approx polarizability:  48.708  -3.852  65.858  -0.378  -0.186  33.220

                      1                      2                      3
                      A                      A                      A
 Frequencies --    128.9213               278.9454               342.0930
 Red. masses --      2.5822                 4.7113                 1.1487
 Frc consts  --      0.0253                 0.2160                 0.0792
 IR Inten    --      7.1451                 1.7900               138.5927

                      4                      5                      6
                      A                      A                      A
 Frequencies --    461.7888               490.5802               611.6260
 Red. masses --      5.0088                 1.6358                 2.8221
 Frc consts  --      0.6293                 0.2319                 0.6220
 IR Inten    --     17.6961                41.7062                35.2340

                      7                      8                      9
                      A                      A                      A
 Frequencies --    632.4580               870.4314               902.1543
 Red. masses --      1.7035                 3.8050                 1.1494
 Frc consts  --      0.4015                 1.6985                 0.5512
 IR Inten    --    104.8107                15.6626                27.8827

                     10                     11                     12
                      A                      A                      A
 Frequencies --   1003.6209              1095.9782              1120.1884
 Red. masses --      1.5788                 3.1988                 2.4502
 Frc consts  --      0.9370                 2.2638                 1.8115
 IR Inten    --     22.3316               247.6115                36.2469

                     13                     14                     15
                      A                      A                      A
 Frequencies --   1205.4079              1249.3949              1360.9970
 Red. masses --      1.1347                 1.3539                 1.3758
 Frc consts  --      0.9714                 1.2452                 1.5015
 IR Inten    --     26.8252                91.9608                15.0667

                     16                     17                     18
                      A                      A                      A
 Frequencies --   1397.2869              1472.3169              1497.8154
 Red. masses --      1.2035                 2.3935                 1.0851
 Frc consts  --      1.3844                 3.0569                 1.4343
 IR Inten    --     34.9654                31.4106                 4.6691

                     19                     20                     21
                      A                      A                      A
 Frequencies --   1767.8728              3028.5206              3097.2066
 Red. masses --      8.6227                 1.0668                 1.0969
 Frc consts  --     15.8780                 5.7648                 6.1995
 IR Inten    --    207.0471                32.7905                13.2593

                     22                     23                     24
                      A                      A                      A
 Frequencies --   3491.1960              3752.4990              3811.0824
 Red. masses --      1.0734                 1.0641                 1.0665
 Frc consts  --      7.7085                 8.8282                 9.1265
 IR Inten    --      3.9543                42.9636                23.1161

 - Thermochemistry -
 -------------------
 Temperature   298.150 Kelvin.  Pressure   1.00000 Atm.
 Atom     1 has atomic number  7 and mass  14.00307

 Molecular mass:    75.03203 amu.
 Principal axes and moments of inertia in atomic units:
                           1         2         3
     Eigenvalues --   179.30289 462.06201 622.13538
           X            0.99993   0.00662   0.00962
           Y           -0.00654   0.99995  -0.00809
           Z           -0.00967   0.00803   0.99992
 This molecule is an asymmetric top.
 Rotational symmetry number  1.
 Rotational temperatures (Kelvin)      0.48306     0.18745     0.13922
 Rotational constants (GHZ):          10.06532     3.90584     2.90088
 Zero-point vibrational energy     209767.5 (Joules/Mol)
                                   50.13563 (Kcal/Mol)
 Warning -- explicit consideration of   6 degrees of freedom as
           vibrations may cause significant error
 Vibrational temperatures:    185.49   401.34   492.19   664.41   705.83
          (Kelvin)            879.99   909.96  1252.36  1298.00  1443.98
                             1576.87  1611.70  1734.31  1797.60  1958.17
                             2010.38  2118.33  2155.02  2543.57  4357.36
                             4456.18  5023.05  5399.00  5483.29

 Zero-point correction=                           0.079896 (Hartree/Particle)
 Thermal correction to Energy=                    0.085266
 Thermal correction to Enthalpy=                  0.086210
 Thermal correction to Gibbs Free Energy=         0.051556
 Sum of electronic and zero-point Energies=           -284.332011
 Sum of electronic and thermal Energies=              -284.326642
 Sum of electronic and thermal Enthalpies=            -284.325698
 Sum of electronic and thermal Free Energies=         -284.360351

                     E (Thermal)             CV                S
                      KCal/Mol        Cal/Mol-Kelvin    Cal/Mol-Kelvin
 Total                   53.505             18.516             72.935
 Electronic               0.000              0.000              0.000
 Translational            0.889              2.981             38.862
 Rotational               0.889              2.981             25.447
 Vibrational             51.727             12.554              8.626
 Vibration     1          0.611              1.924              2.962
 Vibration     2          0.679              1.712              1.540
 Vibration     3          0.721              1.591              1.202
 Vibration     4          0.820              1.335              0.761
 Vibration     5          0.846              1.271              0.682
 Vibration     6          0.971              1.007              0.430

 Normal termination of Gaussian 09 at Thu Sep  8 15:13:34 2022.
