 Gaussian 09, Revision E.01,
 Gaussian 09:  ES64L-G09RevE.01 30-Nov-2015

 -------------------------
 #P OPT Freq B3LYP/6-31G**
 -------------------------

 --------
 Frag_224
 --------
 Symbolic Z-matrix:
 Charge =  0 Multiplicity = 1

 SCF Done:  E(RB3LYP) =  -328.343247946     A.U. after   13 cycles
 SCF Done:  E(RB3LYP) =  -328.348841151     A.U. after   11 cycles
 SCF Done:  E(RB3LYP) =  -328.349170437     A.U. after   10 cycles
 SCF Done:  E(RB3LYP) =  -328.349306473     A.U. after   11 cycles
 SCF Done:  E(RB3LYP) =  -328.349400813     A.U. after   10 cycles
 SCF Done:  E(RB3LYP) =  -328.349459148     A.U. after    9 cycles
 SCF Done:  E(RB3LYP) =  -328.349516488     A.U. after   10 cycles
 SCF Done:  E(RB3LYP) =  -328.349538112     A.U. after    9 cycles
 SCF Done:  E(RB3LYP) =  -328.349545875     A.U. after    9 cycles
 SCF Done:  E(RB3LYP) =  -328.349546960     A.U. after    7 cycles
 SCF Done:  E(RB3LYP) =  -328.349547165     A.U. after    6 cycles
 Optimization completed.
    -- Stationary point found.
 Normal termination of Gaussian 09 at Sat Aug 21 01:39:54 2021.

 ----------------------------------------------------------------------
 #P Geom=AllCheck Guess=TCheck SCRF=Check GenChk RB3LYP/6-31G(d,p) Freq
 ----------------------------------------------------------------------

 Structure from the checkpoint file:  "/public/home/users/caep010/.cache/gau_scr/Gau-144831.chk"
 --------
 Frag_224
 --------
 Charge =  0 Multiplicity = 1

                         Standard orientation:
 ---------------------------------------------------------------------
 Center     Atomic      Atomic             Coordinates (Angstroms)
 Number     Number       Type             X           Y           Z
 ---------------------------------------------------------------------
      1          6           0       -1.793181   -1.009805   -0.056126
      2          6           0       -0.844981    0.124145   -0.452499
      3          8           0       -1.283804    1.366972    0.106510
      4          6           0        0.631845   -0.071838   -0.011412
      5          6           0        0.769176   -0.040217    1.523329
      6          6           0        1.478828    1.049990   -0.631764
      7          7           0        1.086077   -1.348868   -0.601522
      8          1           0       -1.481137   -1.958930   -0.500707
      9          1           0       -1.854040   -1.121256    1.030538
     10          1           0       -2.804319   -0.798242   -0.424263
     11          1           0       -0.827573    0.186606   -1.551717
     12          1           0       -2.182517    1.528607   -0.206780
     13          1           0        0.229721   -0.871638    1.990638
     14          1           0        0.375197    0.891055    1.938597
     15          1           0        1.823752   -0.129094    1.807394
     16          1           0        1.447518    0.989280   -1.724326
     17          1           0        2.525221    0.963758   -0.315420
     18          1           0        1.104910    2.028005   -0.323648
     19          1           0        0.758463   -2.126877   -0.032059
     20          1           0        2.102572   -1.388624   -0.558839
 ---------------------------------------------------------------------

 SCF Done:  E(RB3LYP) =  -328.349547165     A.U. after    1 cycles

 The electronic state is 1-A.
 Alpha  occ. eigenvalues --  -19.13756 -14.30634 -10.22573 -10.21292 -10.17319
 Alpha  occ. eigenvalues --  -10.16381 -10.16303  -1.01085  -0.88310  -0.75480
 Alpha  occ. eigenvalues --   -0.72563  -0.67807  -0.62643  -0.53608  -0.50366
 Alpha  occ. eigenvalues --   -0.48291  -0.44110  -0.43393  -0.41686  -0.40055
 Alpha  occ. eigenvalues --   -0.38516  -0.37766  -0.36380  -0.35847  -0.34023
 Alpha  occ. eigenvalues --   -0.32480  -0.30561  -0.26055  -0.23223
 Alpha virt. eigenvalues --    0.06872   0.09185   0.12293   0.13030   0.14368
 Alpha virt. eigenvalues --    0.14997   0.15777   0.17487   0.18211   0.18972
 Alpha virt. eigenvalues --    0.20355   0.20788   0.22498   0.23710   0.24250

 Mulliken charges:
               1
     1  C   -0.346043
     2  C    0.211288
     3  O   -0.552157
     4  C    0.130496
     5  C   -0.309938
     6  C   -0.312020
     7  N   -0.596581
     8  H    0.113606
     9  H    0.111243
    10  H    0.089880
    11  H    0.079373
    12  H    0.302281
    13  H    0.086220
    14  H    0.124921
    15  H    0.086970
    16  H    0.106093
    17  H    0.084772
    18  H    0.127051
    19  H    0.230399
    20  H    0.232145
 Sum of Mulliken charges =  -0.00000

 Dipole moment (field-independent basis, Debye):
    X=             -0.5073    Y=             -0.6846    Z=              0.2980  Tot=              0.9026
 Quadrupole moment (field-independent basis, Debye-Ang):
   XX=            -39.0568   YY=            -45.4578   ZZ=            -47.8257
   XY=             -1.9859   XZ=              2.2067   YZ=             -3.0925

  Exact polarizability:  71.052   0.162  64.042   0.254  -0.243  59.463
 Approx polarizability:  91.864  -2.024  89.588  -0.204   1.734  83.499

                      1                      2                      3
                      A                      A                      A
 Frequencies --     92.9221               214.0720               248.9018
 Red. masses --      2.9606                 1.0325                 1.6930
 Frc consts  --      0.0151                 0.0279                 0.0618
 IR Inten    --      2.5176                 2.8256                 9.5337

                      4                      5                      6
                      A                      A                      A
 Frequencies --    253.5793               255.1261               271.9807
 Red. masses --      1.0919                 1.3733                 1.2776
 Frc consts  --      0.0414                 0.0527                 0.0557
 IR Inten    --     29.2734                 5.3818                83.3588

                      7                      8                      9
                      A                      A                      A
 Frequencies --    290.0381               303.4155               351.5666
 Red. masses --      1.6950                 1.3137                 2.2169
 Frc consts  --      0.0840                 0.0713                 0.1614
 IR Inten    --     10.4268                19.9107                 3.5844

                     10                     11                     12
                      A                      A                      A
 Frequencies --    366.9524               418.7237               465.1842
 Red. masses --      2.6026                 2.7230                 2.3742
 Frc consts  --      0.2065                 0.2813                 0.3027
 IR Inten    --      0.7444                 8.3163                10.9411

                     13                     14                     15
                      A                      A                      A
 Frequencies --    489.9958               563.1483               719.2048
 Red. masses --      3.1911                 2.7827                 2.7905
 Frc consts  --      0.4514                 0.5199                 0.8504
 IR Inten    --      2.3559                 3.0489                 1.8883

                     16                     17                     18
                      A                      A                      A
 Frequencies --    850.0375               908.3228               937.6455
 Red. masses --      2.1697                 1.5663                 1.6566
 Frc consts  --      0.9237                 0.7614                 0.8581
 IR Inten    --     52.8176                48.9581                34.7558

                     19                     20                     21
                      A                      A                      A
 Frequencies --    939.1754               979.5649              1014.0072
 Red. masses --      1.6361                 1.7797                 1.3014
 Frc consts  --      0.8503                 1.0061                 0.7884
 IR Inten    --     22.3125                 2.0925                 8.4911

                     22                     23                     24
                      A                      A                      A
 Frequencies --   1037.0664              1078.3857              1112.3086
 Red. masses --      1.4484                 1.5950                 2.5133
 Frc consts  --      0.9178                 1.0929                 1.8321
 IR Inten    --      9.3657                26.8837                42.4988

                     25                     26                     27
                      A                      A                      A
 Frequencies --   1147.1739              1188.6802              1266.6543
 Red. masses --      2.0996                 1.5126                 2.5371
 Frc consts  --      1.6279                 1.2592                 2.3983
 IR Inten    --     19.9234                65.2817                 6.3933

                     28                     29                     30
                      A                      A                      A
 Frequencies --   1292.6748              1328.4507              1385.1594
 Red. masses --      1.7044                 1.6267                 1.2194
 Frc consts  --      1.6781                 1.6914                 1.3785
 IR Inten    --     19.0676                 8.4572                 2.5946

                     31                     32                     33
                      A                      A                      A
 Frequencies --   1404.9658              1413.4854              1421.1347
 Red. masses --      1.2912                 1.3037                 1.4335
 Frc consts  --      1.5016                 1.5347                 1.7058
 IR Inten    --      6.3730                12.2848                 6.3960

                     34                     35                     36
                      A                      A                      A
 Frequencies --   1435.6146              1494.6851              1505.0746
 Red. masses --      1.3627                 1.0528                 1.0497
 Frc consts  --      1.6548                 1.3858                 1.4010
 IR Inten    --     19.1755                 0.0731                 1.3233

                     37                     38                     39
                      A                      A                      A
 Frequencies --   1509.7433              1518.1259              1520.5149
 Red. masses --      1.0556                 1.0557                 1.0563
 Frc consts  --      1.4176                 1.4335                 1.4388
 IR Inten    --      4.9246                 3.1011                 5.2039

                     40                     41                     42
                      A                      A                      A
 Frequencies --   1529.9312              1669.3050              2995.9478
 Red. masses --      1.0774                 1.0934                 1.0843
 Frc consts  --      1.4858                 1.7951                 5.7342
 IR Inten    --      4.3468                30.2807                47.8177

                     43                     44                     45
                      A                      A                      A
 Frequencies --   3037.4830              3041.4534              3044.5227
 Red. masses --      1.0377                 1.0393                 1.0393
 Frc consts  --      5.6410                 5.6646                 5.6758
 IR Inten    --     23.1474                44.9154                 3.3304

                     46                     47                     48
                      A                      A                      A
 Frequencies --   3101.0355              3107.6535              3107.6865
 Red. masses --      1.1015                 1.0979                 1.0988
 Frc consts  --      6.2406                 6.2470                 6.2526
 IR Inten    --     31.6225                12.2593                59.0835

                     49                     50                     51
                      A                      A                      A
 Frequencies --   3133.5763              3138.2572              3152.4953
 Red. masses --      1.1006                 1.1027                 1.0999
 Frc consts  --      6.3671                 6.3987                 6.4403
 IR Inten    --     18.7210                21.1534                15.5835

                     52                     53                     54
                      A                      A                      A
 Frequencies --   3480.2700              3560.9520              3823.8296
 Red. masses --      1.0497                 1.0919                 1.0665
 Frc consts  --      7.4910                 8.1575                 9.1878
 IR Inten    --      1.9421                 0.8103                11.9999

 - Thermochemistry -
 -------------------
 Temperature   298.150 Kelvin.  Pressure   1.00000 Atm.
 Atom     1 has atomic number  6 and mass  12.00000

 Molecular mass:   103.09971 amu.
 Principal axes and moments of inertia in atomic units:
                           1         2         3
     Eigenvalues --   578.07114 802.85560 961.09962
           X            0.99650   0.08295   0.01036
           Y           -0.08226   0.99510  -0.05491
           Z           -0.01487   0.05386   0.99844
 This molecule is an asymmetric top.
 Rotational symmetry number  1.
 Warning -- assumption of classical behavior for rotation
           may cause significant error
 Rotational temperatures (Kelvin)      0.14983     0.10788     0.09012
 Rotational constants (GHZ):           3.12201     2.24790     1.87779
 Zero-point vibrational energy     478015.0 (Joules/Mol)
                                  114.24832 (Kcal/Mol)
 Warning -- explicit consideration of  14 degrees of freedom as
           vibrations may cause significant error
 Vibrational temperatures:    133.69   308.00   358.11   364.84   367.07
          (Kelvin)            391.32   417.30   436.55   505.83   527.96
                              602.45   669.30   704.99   810.24  1034.77
                             1223.01  1306.87  1349.06  1351.26  1409.37
                             1458.93  1492.11  1551.55  1600.36  1650.53
                             1710.24  1822.43  1859.87  1911.34  1992.93
                             2021.43  2033.69  2044.69  2065.53  2150.52
                             2165.46  2172.18  2184.24  2187.68  2201.23
                             2401.75  4310.50  4370.26  4375.97  4380.38
                             4461.69  4471.21  4471.26  4508.51  4515.25
                             4535.73  5007.33  5123.41  5501.63

 Zero-point correction=                           0.182066 (Hartree/Particle)
 Thermal correction to Energy=                    0.191210
 Thermal correction to Enthalpy=                  0.192154
 Thermal correction to Gibbs Free Energy=         0.149742
 Sum of electronic and zero-point Energies=           -328.167481
 Sum of electronic and thermal Energies=              -328.158337
 Sum of electronic and thermal Enthalpies=            -328.157393
 Sum of electronic and thermal Free Energies=         -328.199805

                     E (Thermal)             CV                S
                      KCal/Mol        Cal/Mol-Kelvin    Cal/Mol-Kelvin
 Total                  119.986             34.656             89.265
 Electronic               0.000              0.000              0.000
 Translational            0.889              2.981             39.809
 Rotational               0.889              2.981             27.591
 Vibrational            118.209             28.695             21.864
 Vibration     1          0.602              1.954              3.598
 Vibration     2          0.644              1.820              2.009
 Vibration     3          0.662              1.765              1.738
 Vibration     4          0.665              1.757              1.706
 Vibration     5          0.665              1.754              1.695
 Vibration     6          0.675              1.725              1.584
 Vibration     7          0.686              1.692              1.474
 Vibration     8          0.695              1.667              1.398
 Vibration     9          0.728              1.572              1.159
 Vibration    10          0.740              1.540              1.093
 Vibration    11          0.782              1.430              0.896
 Vibration    12          0.823              1.327              0.751
 Vibration    13          0.846              1.272              0.684
 Vibration    14          0.919              1.111              0.518

 Optimization completed.
    -- Stationary point found.
 Normal termination of Gaussian 09 at Sat Aug 21 01:40:14 2021.
