 Gaussian 09, Revision E.01,
 Gaussian 09:  ES64L-G09RevE.01 30-Nov-2015

 --------------------------------
 #P OPT=calcfc Freq B3LYP/6-31G**
 --------------------------------

 --------
 Frag_305
 --------
 Symbolic Z-matrix:
 Charge =  0 Multiplicity = 1

 SCF Done:  E(RB3LYP) =  -228.632605012     A.U. after   13 cycles
 SCF Done:  E(RB3LYP) =  -228.643363782     A.U. after   13 cycles
 SCF Done:  E(RB3LYP) =  -228.639350116     A.U. after   12 cycles
 SCF Done:  E(RB3LYP) =  -228.643392989     A.U. after    9 cycles
 SCF Done:  E(RB3LYP) =  -228.644147143     A.U. after   11 cycles
 SCF Done:  E(RB3LYP) =  -228.644214466     A.U. after   12 cycles
 SCF Done:  E(RB3LYP) =  -228.644238898     A.U. after   10 cycles
 SCF Done:  E(RB3LYP) =  -228.644240959     A.U. after    9 cycles
 SCF Done:  E(RB3LYP) =  -228.644243803     A.U. after    9 cycles
 SCF Done:  E(RB3LYP) =  -228.644243942     A.U. after    7 cycles
 Optimization completed.
    -- Stationary point found.
 Normal termination of Gaussian 09 at Fri Sep 10 17:32:02 2021.

 ----------------------------------------------------------------------
 #P Geom=AllCheck Guess=TCheck SCRF=Check GenChk RB3LYP/6-31G(d,p) Freq
 ----------------------------------------------------------------------

 Structure from the checkpoint file:  "/public/home/users/caep010/.cache/gau_scr/Gau-63609.chk"
 --------
 Frag_305
 --------
 Charge =  0 Multiplicity = 1

                         Standard orientation:
 ---------------------------------------------------------------------
 Center     Atomic      Atomic             Coordinates (Angstroms)
 Number     Number       Type             X           Y           Z
 ---------------------------------------------------------------------
      1          6           0       -1.934626   -0.186162   -0.002791
      2          7           0       -0.619253   -0.805755    0.013787
      3          6           0        0.402171   -0.032041    0.002192
      4          6           0        1.787385   -0.631048    0.000827
      5          7           0        0.371618    1.355005   -0.068237
      6          1           0       -2.108446    0.409935   -0.912771
      7          1           0       -2.108426    0.479792    0.860951
      8          1           0       -2.702358   -0.963464    0.034080
      9          1           0        1.702494   -1.716949   -0.001972
     10          1           0        2.351194   -0.309734   -0.882389
     11          1           0        2.354493   -0.319166    0.886710
     12          1           0        1.203916    1.852600    0.210910
     13          1           0       -0.489005    1.817739    0.184267
 ---------------------------------------------------------------------

 SCF Done:  E(RB3LYP) =  -228.644243942     A.U. after    1 cycles

 The electronic state is 1-A.
 Alpha  occ. eigenvalues --  -14.34613 -14.28779 -10.24631 -10.19282 -10.18042
 Alpha  occ. eigenvalues --   -0.94074  -0.85104  -0.73618  -0.66214  -0.55806
 Alpha  occ. eigenvalues --   -0.52221  -0.47453  -0.43474  -0.41240  -0.40425
 Alpha  occ. eigenvalues --   -0.38563  -0.36322  -0.32322  -0.23306  -0.22526
 Alpha virt. eigenvalues --    0.04009   0.07297   0.11232   0.14442   0.15889
 Alpha virt. eigenvalues --    0.17159   0.17930   0.18444   0.20205   0.21741
 Alpha virt. eigenvalues --    0.25306   0.31352   0.43885   0.52838   0.55162

 Mulliken charges:
               1
     1  C   -0.198791
     2  N   -0.447679
     3  C    0.443941
     4  C   -0.372104
     5  N   -0.618859
     6  H    0.100547
     7  H    0.082308
     8  H    0.112837
     9  H    0.143910
    10  H    0.121973
    11  H    0.109149
    12  H    0.259015
    13  H    0.263753
 Sum of Mulliken charges =   0.00000

 Dipole moment (field-independent basis, Debye):
    X=              0.9570    Y=              2.7048    Z=              0.7408  Tot=              2.9632
 Quadrupole moment (field-independent basis, Debye-Ang):
   XX=            -27.6847   YY=            -30.7563   ZZ=            -32.7895
   XY=             -0.5701   XZ=              0.3999   YZ=              1.7022

  Exact polarizability:  61.217   4.029  46.619  -0.052   0.354  32.014
 Approx polarizability:  78.896  12.149  70.732  -0.535  -0.333  44.728

                      1                      2                      3
                      A                      A                      A
 Frequencies --    139.2417               146.7554               246.8923
 Red. masses --      1.0996                 1.0495                 2.2995
 Frc consts  --      0.0126                 0.0133                 0.0826
 IR Inten    --      0.7502                 0.9572                 7.5577

                      4                      5                      6
                      A                      A                      A
 Frequencies --    292.5951               409.0749               426.0503
 Red. masses --      2.7476                 2.3733                 1.1273
 Frc consts  --      0.1386                 0.2340                 0.1206
 IR Inten    --      3.4432                 9.3407                36.4567

                      7                      8                      9
                      A                      A                      A
 Frequencies --    446.2835               582.8402               625.7173
 Red. masses --      1.1847                 3.0070                 3.1807
 Frc consts  --      0.1390                 0.6018                 0.7337
 IR Inten    --    212.4959                 2.9538                10.3525

                     10                     11                     12
                      A                      A                      A
 Frequencies --    852.2755               988.0771              1024.2116
 Red. masses --      3.1968                 1.6874                 2.3248
 Frc consts  --      1.3681                 0.9706                 1.4369
 IR Inten    --      3.7420                10.9141                 5.3572

                     13                     14                     15
                      A                      A                      A
 Frequencies --   1056.0300              1113.6541              1127.3541
 Red. masses --      1.5681                 1.3655                 1.4652
 Frc consts  --      1.0303                 0.9978                 1.0971
 IR Inten    --      4.0673                 0.1583                 1.7351

                     16                     17                     18
                      A                      A                      A
 Frequencies --   1217.3381              1343.5907              1417.4859
 Red. masses --      1.9318                 2.4386                 1.5015
 Frc consts  --      1.6867                 2.5937                 1.7775
 IR Inten    --      6.8300                63.4857                25.2561

                     19                     20                     21
                      A                      A                      A
 Frequencies --   1448.1566              1492.6301              1498.5509
 Red. masses --      1.2080                 1.0595                 1.0465
 Frc consts  --      1.4927                 1.3908                 1.3847
 IR Inten    --     31.4836                 6.9398                 6.7867

                     22                     23                     24
                      A                      A                      A
 Frequencies --   1504.5419              1520.3854              1655.2776
 Red. masses --      1.0611                 1.0447                 1.1844
 Frc consts  --      1.4152                 1.4228                 1.9121
 IR Inten    --      3.3573                 3.9529                66.8303

                     25                     26                     27
                      A                      A                      A
 Frequencies --   1750.0040              2954.8143              3011.2530
 Red. masses --      6.6201                 1.0486                 1.0939
 Frc consts  --     11.9452                 5.3942                 5.8441
 IR Inten    --    233.4664                69.4528                58.7319

                     28                     29                     30
                      A                      A                      A
 Frequencies --   3038.8953              3095.4185              3108.3153
 Red. masses --      1.0410                 1.0996                 1.0930
 Frc consts  --      5.6642                 6.2077                 6.2219
 IR Inten    --     24.1530                20.6686                38.0131

                     31                     32                     33
                      A                      A                      A
 Frequencies --   3176.5981              3590.9901              3705.3704
 Red. masses --      1.0986                 1.0464                 1.1008
 Frc consts  --      6.5316                 7.9505                 8.9045
 IR Inten    --      5.8190                12.8852                15.9516

 - Thermochemistry -
 -------------------
 Temperature   298.150 Kelvin.  Pressure   1.00000 Atm.
 Atom     1 has atomic number  6 and mass  12.00000

 Molecular mass:    72.06875 amu.
 Principal axes and moments of inertia in atomic units:
                           1         2         3
     Eigenvalues --   194.69461 456.98325 628.11672
           X            0.99950  -0.03157   0.00128
           Y            0.03155   0.99939   0.01508
           Z           -0.00176  -0.01503   0.99989
 This molecule is an asymmetric top.
 Rotational symmetry number  1.
 Rotational temperatures (Kelvin)      0.44487     0.18953     0.13789
 Rotational constants (GHZ):           9.26960     3.94925     2.87326
 Zero-point vibrational energy     299106.3 (Joules/Mol)
                                   71.48812 (Kcal/Mol)
 Warning -- explicit consideration of   8 degrees of freedom as
           vibrations may cause significant error
 Vibrational temperatures:    200.34   211.15   355.22   420.98   588.57
          (Kelvin)            612.99   642.10   838.58   900.27  1226.23
                             1421.62  1473.61  1519.39  1602.30  1622.01
                             1751.48  1933.12  2039.44  2083.57  2147.56
                             2156.08  2164.70  2187.49  2381.57  2517.86
                             4251.31  4332.52  4372.29  4453.61  4472.17
                             4570.41  5166.63  5331.19

 Zero-point correction=                           0.113924 (Hartree/Particle)
 Thermal correction to Energy=                    0.120430
 Thermal correction to Enthalpy=                  0.121374
 Thermal correction to Gibbs Free Energy=         0.084696
 Sum of electronic and zero-point Energies=           -228.530320
 Sum of electronic and thermal Energies=              -228.523814
 Sum of electronic and thermal Enthalpies=            -228.522870
 Sum of electronic and thermal Free Energies=         -228.559548

                     E (Thermal)             CV                S
                      KCal/Mol        Cal/Mol-Kelvin    Cal/Mol-Kelvin
 Total                   75.571             22.554             77.195
 Electronic               0.000              0.000              0.000
 Translational            0.889              2.981             38.742
 Rotational               0.889              2.981             25.528
 Vibrational             73.794             16.593             12.926
 Vibration     1          0.615              1.914              2.814
 Vibration     2          0.617              1.906              2.714
 Vibration     3          0.661              1.768              1.753
 Vibration     4          0.688              1.688              1.459
 Vibration     5          0.773              1.451              0.930
 Vibration     6          0.788              1.414              0.872
 Vibration     7          0.806              1.369              0.807
 Vibration     8          0.940              1.068              0.480

 Optimization completed.
    -- Stationary point found.
 Normal termination of Gaussian 09 at Fri Sep 10 17:32:11 2021.
