 Gaussian 09, Revision E.01,
 Gaussian 09:  ES64L-G09RevE.01 30-Nov-2015

 ----------------------------
 #P OPT Freq B3LYP/6-31G(d,p)
 ----------------------------

 --------
 Frag_610
 --------
 Symbolic Z-matrix:
 Charge =  0 Multiplicity = 1

 SCF Done:  E(RB3LYP) =  -228.619619312     A.U. after   13 cycles
 SCF Done:  E(RB3LYP) =  -228.619655558     A.U. after   11 cycles
 SCF Done:  E(RB3LYP) =  -228.619657686     A.U. after    8 cycles
 SCF Done:  E(RB3LYP) =  -228.619659496     A.U. after    8 cycles
 SCF Done:  E(RB3LYP) =  -228.619659745     A.U. after    8 cycles
 SCF Done:  E(RB3LYP) =  -228.619659953     A.U. after    7 cycles
 SCF Done:  E(RB3LYP) =  -228.619660075     A.U. after    7 cycles
 SCF Done:  E(RB3LYP) =  -228.619660130     A.U. after    7 cycles
 Optimization completed.
    -- Stationary point found.
 Normal termination of Gaussian 09 at Thu Sep  8 15:04:29 2022.

 ----------------------------------------------------------------------
 #P Geom=AllCheck Guess=TCheck SCRF=Check GenChk RB3LYP/6-31G(d,p) Freq
 ----------------------------------------------------------------------

 Structure from the checkpoint file:  "B3LYP6-31Gdp.Frag_610.chk"
 --------
 Frag_610
 --------
 Charge =  0 Multiplicity = 1

                         Standard orientation:
 ---------------------------------------------------------------------
 Center     Atomic      Atomic             Coordinates (Angstroms)
 Number     Number       Type             X           Y           Z
 ---------------------------------------------------------------------
      1          6           0        1.822784   -0.120567   -0.277242
      2          7           0        0.869295   -0.662292    0.361248
      3          6           0       -0.425587    0.020784    0.434551
      4          6           0       -1.457308   -0.848584   -0.290339
      5          7           0       -0.432866    1.371339   -0.131627
      6          1           0        2.775977   -0.650518   -0.332950
      7          1           0        1.743766    0.844598   -0.788158
      8          1           0       -0.673627    0.016024    1.509696
      9          1           0       -1.255765   -0.840849   -1.365943
     10          1           0       -1.399188   -1.877773    0.069161
     11          1           0       -2.472378   -0.474165   -0.119462
     12          1           0       -0.026170    2.035861    0.522319
     13          1           0       -1.386958    1.673698   -0.303823
 ---------------------------------------------------------------------

 SCF Done:  E(RB3LYP) =  -228.619660130     A.U. after    1 cycles

 The electronic state is 1-A.
 Alpha  occ. eigenvalues --  -14.32014 -14.31768 -10.23848 -10.21084 -10.17684
 Alpha  occ. eigenvalues --   -0.92756  -0.85665  -0.73479  -0.63742  -0.54928
 Alpha  occ. eigenvalues --   -0.49523  -0.48569  -0.45836  -0.42160  -0.38436
 Alpha  occ. eigenvalues --   -0.37081  -0.36114  -0.29529  -0.24654  -0.24389
 Alpha virt. eigenvalues --    0.00582   0.07888   0.13060   0.13831   0.14985
 Alpha virt. eigenvalues --    0.16229   0.17583   0.18704   0.20695   0.23243
 Alpha virt. eigenvalues --    0.24638   0.27308   0.32650   0.51622   0.53902

 Mulliken charges:
               1
     1  C   -0.030588
     2  N   -0.340073
     3  C    0.172120
     4  C   -0.315913
     5  N   -0.607534
     6  H    0.096356
     7  H    0.109962
     8  H    0.091627
     9  H    0.120951
    10  H    0.126450
    11  H    0.094766
    12  H    0.241219
    13  H    0.240659
 Sum of Mulliken charges =  -0.00000

 Dipole moment (field-independent basis, Debye):
    X=             -1.0198    Y=              1.6137    Z=              0.2693  Tot=              1.9279
 Quadrupole moment (field-independent basis, Debye-Ang):
   XX=            -28.0121   YY=            -31.0539   ZZ=            -32.5212
   XY=              0.0784   XZ=             -1.1582   YZ=              2.6325

  Exact polarizability:  58.513   0.456  43.962  -4.660  -2.566  36.468
 Approx polarizability:  77.306   3.113  60.761  -9.479  -7.141  54.158

                      1                      2                      3
                      A                      A                      A
 Frequencies --    134.0960               209.0757               259.3415
 Red. masses --      2.9584                 1.0538                 1.0651
 Frc consts  --      0.0313                 0.0271                 0.0422
 IR Inten    --      7.2353                35.6491                 5.4348

                      4                      5                      6
                      A                      A                      A
 Frequencies --    344.9816               392.2831               447.2462
 Red. masses --      2.7920                 2.5130                 2.2233
 Frc consts  --      0.1958                 0.2278                 0.2620
 IR Inten    --     17.3486                 1.9963                10.9432

                      7                      8                      9
                      A                      A                      A
 Frequencies --    618.6515               752.5975               800.9547
 Red. masses --      2.7451                 1.3383                 1.9236
 Frc consts  --      0.6190                 0.4466                 0.7271
 IR Inten    --      3.5890                 4.6885                60.3476

                     10                     11                     12
                      A                      A                      A
 Frequencies --    851.7012               950.6346              1005.9677
 Red. masses --      1.6478                 1.8087                 1.6251
 Frc consts  --      0.7043                 0.9630                 0.9690
 IR Inten    --     58.2900                12.9040                 1.2248

                     13                     14                     15
                      A                      A                      A
 Frequencies --   1076.5287              1094.2152              1162.4063
 Red. masses --      1.3667                 1.8017                 2.0234
 Frc consts  --      0.9332                 1.2710                 1.6108
 IR Inten    --     18.2574                12.7951                24.2648

                     16                     17                     18
                      A                      A                      A
 Frequencies --   1233.8627              1256.4457              1378.9824
 Red. masses --      1.5281                 1.3391                 1.4639
 Frc consts  --      1.3707                 1.2456                 1.6402
 IR Inten    --     11.4915                 5.1120                16.1564

                     19                     20                     21
                      A                      A                      A
 Frequencies --   1389.2140              1417.3816              1489.2700
 Red. masses --      1.2485                 1.3262                 1.1302
 Frc consts  --      1.4196                 1.5698                 1.4769
 IR Inten    --     27.0260                12.4260                 7.8537

                     22                     23                     24
                      A                      A                      A
 Frequencies --   1504.0567              1512.1209              1660.5461
 Red. masses --      1.0427                 1.0567                 1.0954
 Frc consts  --      1.3897                 1.4236                 1.7795
 IR Inten    --      6.4553                 1.2465                32.3166

                     25                     26                     27
                      A                      A                      A
 Frequencies --   1739.8222              2965.2459              3049.6373
 Red. masses --      6.5139                 1.0828                 1.0369
 Frc consts  --     11.6171                 5.6096                 5.6818
 IR Inten    --     19.0578                64.3013                24.0008

                     28                     29                     30
                      A                      A                      A
 Frequencies --   3063.2908              3122.2200              3151.3732
 Red. masses --      1.0540                 1.1021                 1.1020
 Frc consts  --      5.8274                 6.3297                 6.4480
 IR Inten    --     28.3206                28.6308                11.0702

                     31                     32                     33
                      A                      A                      A
 Frequencies --   3155.0276              3502.4617              3591.8530
 Red. masses --      1.1166                 1.0503                 1.0927
 Frc consts  --      6.5485                 7.5909                 8.3061
 IR Inten    --     35.9831                 0.1039                 0.3219

 - Thermochemistry -
 -------------------
 Temperature   298.150 Kelvin.  Pressure   1.00000 Atm.
 Atom     1 has atomic number  6 and mass  12.00000

 Molecular mass:    72.06875 amu.
 Principal axes and moments of inertia in atomic units:
                           1         2         3
     Eigenvalues --   233.52002 411.40912 562.64301
           X            0.99904   0.04266  -0.00977
           Y           -0.04237   0.99872   0.02755
           Z            0.01093  -0.02711   0.99957
 This molecule is an asymmetric top.
 Rotational symmetry number  1.
 Rotational temperatures (Kelvin)      0.37091     0.21053     0.15394
 Rotational constants (GHZ):           7.72842     4.38673     3.20761
 Zero-point vibrational energy     300762.1 (Joules/Mol)
                                   71.88386 (Kcal/Mol)
 Warning -- explicit consideration of   7 degrees of freedom as
           vibrations may cause significant error
 Vibrational temperatures:    192.93   300.81   373.13   496.35   564.41
          (Kelvin)            643.49   890.10  1082.82  1152.39  1225.41
                             1367.75  1447.36  1548.88  1574.33  1672.44
                             1775.25  1807.74  1984.05  1998.77  2039.29
                             2142.72  2164.00  2175.60  2389.15  2503.21
                             4266.32  4387.74  4407.39  4492.17  4534.12
                             4539.38  5039.25  5167.87

 Zero-point correction=                           0.114554 (Hartree/Particle)
 Thermal correction to Energy=                    0.120637
 Thermal correction to Enthalpy=                  0.121581
 Thermal correction to Gibbs Free Energy=         0.085745
 Sum of electronic and zero-point Energies=           -228.505106
 Sum of electronic and thermal Energies=              -228.499023
 Sum of electronic and thermal Enthalpies=            -228.498079
 Sum of electronic and thermal Free Energies=         -228.533915

                     E (Thermal)             CV                S
                      KCal/Mol        Cal/Mol-Kelvin    Cal/Mol-Kelvin
 Total                   75.701             21.434             75.424
 Electronic               0.000              0.000              0.000
 Translational            0.889              2.981             38.742
 Rotational               0.889              2.981             25.495
 Vibrational             73.923             15.473             11.188
 Vibration     1          0.613              1.919              2.886
 Vibration     2          0.642              1.827              2.052
 Vibration     3          0.668              1.747              1.666
 Vibration     4          0.723              1.585              1.189
 Vibration     5          0.760              1.487              0.991
 Vibration     6          0.806              1.367              0.804
 Vibration     7          0.979              0.993              0.419

 Optimization completed.
    -- Stationary point found.
 Normal termination of Gaussian 09 at Thu Sep  8 15:04:38 2022.
