 Gaussian 09, Revision E.01,
 Gaussian 09:  ES64L-G09RevE.01 30-Nov-2015

 ----------------------------
 #P OPT Freq B3LYP/6-31G(d,p)
 ----------------------------

 --------
 Frag_566
 --------
 Symbolic Z-matrix:
 Charge =  0 Multiplicity = 1

 SCF Done:  E(RB3LYP) =  -338.576273248     A.U. after   15 cycles
 SCF Done:  E(RB3LYP) =  -338.576392002     A.U. after   11 cycles
 SCF Done:  E(RB3LYP) =  -338.576218302     A.U. after   12 cycles
 SCF Done:  E(RB3LYP) =  -338.576403390     A.U. after    7 cycles
 SCF Done:  E(RB3LYP) =  -338.576407134     A.U. after    9 cycles
 SCF Done:  E(RB3LYP) =  -338.576407535     A.U. after    8 cycles
 Optimization completed.
    -- Stationary point found.
 Normal termination of Gaussian 09 at Thu Sep  8 15:23:20 2022.

 ----------------------------------------------------------------------
 #P Geom=AllCheck Guess=TCheck SCRF=Check GenChk RB3LYP/6-31G(d,p) Freq
 ----------------------------------------------------------------------

 Structure from the checkpoint file:  "B3LYP6-31Gdp.Frag_566.chk"
 --------
 Frag_566
 --------
 Charge =  0 Multiplicity = 1

                         Standard orientation:
 ---------------------------------------------------------------------
 Center     Atomic      Atomic             Coordinates (Angstroms)
 Number     Number       Type             X           Y           Z
 ---------------------------------------------------------------------
      1          7           0       -1.358142   -1.252997   -0.075628
      2          6           0       -0.763273   -0.123814   -0.001968
      3          7           0       -1.307842    1.135505    0.116944
      4          6           0        0.759657   -0.161273    0.008720
      5          8           0        1.436684   -1.153751    0.074376
      6          8           0        1.289519    1.091793   -0.079555
      7          1           0       -2.375243   -1.129210   -0.075392
      8          1           0       -2.289735    1.247821   -0.085319
      9          1           0       -0.715449    1.931601   -0.061250
     10          1           0        2.254390    0.978419   -0.066331
 ---------------------------------------------------------------------

 SCF Done:  E(RB3LYP) =  -338.576407535     A.U. after    1 cycles

 The electronic state is 1-A.
 Alpha  occ. eigenvalues --  -19.21106 -19.14939 -14.36332 -14.31117 -10.33167
 Alpha  occ. eigenvalues --  -10.27697  -1.11741  -1.02707  -0.95625  -0.86089
 Alpha  occ. eigenvalues --   -0.70145  -0.58755  -0.54892  -0.53223  -0.48219
 Alpha  occ. eigenvalues --   -0.46083  -0.45530  -0.41021  -0.37483  -0.33077
 Alpha  occ. eigenvalues --   -0.28609  -0.27458  -0.25157
 Alpha virt. eigenvalues --   -0.04101   0.06222   0.07398   0.09715   0.12562
 Alpha virt. eigenvalues --    0.14023   0.23328   0.27755   0.31233   0.33442
 Alpha virt. eigenvalues --    0.47240   0.52101   0.54119   0.56179   0.62570

 Mulliken charges:
               1
     1  N   -0.526762
     2  C    0.399948
     3  N   -0.625645
     4  C    0.596877
     5  O   -0.428833
     6  O   -0.515486
     7  H    0.214991
     8  H    0.265195
     9  H    0.288842
    10  H    0.330873
 Sum of Mulliken charges =  -0.00000

 Dipole moment (field-independent basis, Debye):
    X=             -1.1175    Y=              4.4521    Z=             -0.5746  Tot=              4.6261
 Quadrupole moment (field-independent basis, Debye-Ang):
   XX=            -24.0461   YY=            -37.8660   ZZ=            -34.8054
   XY=              1.0524   XZ=              0.6868   YZ=             -0.8979

  Exact polarizability:  49.030   2.918  49.522   0.566   0.450  18.227
 Approx polarizability:  64.355   3.991  89.298   1.252   1.650  26.783

                      1                      2                      3
                      A                      A                      A
 Frequencies --     50.1541               299.7958               363.2879
 Red. masses --      7.8621                 5.3577                 1.3371
 Frc consts  --      0.0117                 0.2837                 0.1040
 IR Inten    --      0.4167                 8.8136               219.7301

                      4                      5                      6
                      A                      A                      A
 Frequencies --    405.8608               441.5166               458.7334
 Red. masses --      1.6433                 4.2171                 1.3495
 Frc consts  --      0.1595                 0.4843                 0.1673
 IR Inten    --     33.4441                12.7253                10.0837

                      7                      8                      9
                      A                      A                      A
 Frequencies --    524.5068               608.6994               641.5149
 Red. masses --      4.3566                 3.4781                 1.3207
 Frc consts  --      0.7062                 0.7593                 0.3202
 IR Inten    --     20.9900                64.0665               101.5048

                     10                     11                     12
                      A                      A                      A
 Frequencies --    778.0178               797.2011               886.3066
 Red. masses --      3.3320                 8.7903                 1.3128
 Frc consts  --      1.1883                 3.2915                 0.6076
 IR Inten    --      4.5758                 4.3131                95.8118

                     13                     14                     15
                      A                      A                      A
 Frequencies --   1099.8134              1124.4434              1166.2597
 Red. masses --      1.3773                 2.5759                 2.0937
 Frc consts  --      0.9816                 1.9189                 1.6779
 IR Inten    --     76.5127               130.2295               140.7933

                     16                     17                     18
                      A                      A                      A
 Frequencies --   1317.2955              1435.9298              1634.3791
 Red. masses --      1.7677                 3.1126                 1.2048
 Frc consts  --      1.8073                 3.7813                 1.8962
 IR Inten    --     26.0086               186.0800                82.8974

                     19                     20                     21
                      A                      A                      A
 Frequencies --   1733.4750              1874.6196              3449.9573
 Red. masses --      7.1061                10.6641                 1.0750
 Frc consts  --     12.5810                22.0801                 7.5386
 IR Inten    --    189.2348               181.4492                 7.0547

                     22                     23                     24
                      A                      A                      A
 Frequencies --   3598.2617              3725.0483              3765.1549
 Red. masses --      1.0460                 1.1030                 1.0646
 Frc consts  --      7.9795                 9.0172                 8.8919
 IR Inten    --     35.5682                39.5887                67.9004

 - Thermochemistry -
 -------------------
 Temperature   298.150 Kelvin.  Pressure   1.00000 Atm.
 Atom     1 has atomic number  7 and mass  14.00307

 Molecular mass:    88.02728 amu.
 Principal axes and moments of inertia in atomic units:
                           1         2         3
     Eigenvalues --   317.27840 501.00764 814.84675
           X            0.99994   0.01044   0.00198
           Y           -0.01044   0.99994  -0.00243
           Z           -0.00200   0.00241   1.00000
 This molecule is an asymmetric top.
 Rotational symmetry number  1.
 Rotational temperatures (Kelvin)      0.27299     0.17288     0.10629
 Rotational constants (GHZ):           5.68819     3.60222     2.21482
 Zero-point vibrational energy     192480.5 (Joules/Mol)
                                   46.00395 (Kcal/Mol)
 Warning -- explicit consideration of   8 degrees of freedom as
           vibrations may cause significant error
 Vibrational temperatures:     72.16   431.34   522.69   583.94   635.24
          (Kelvin)            660.01   754.65   875.78   923.00  1119.39
                             1146.99  1275.20  1582.38  1617.82  1677.99
                             1895.29  2065.98  2351.50  2494.08  2697.16
                             4963.71  5177.09  5359.51  5417.21

 Zero-point correction=                           0.073312 (Hartree/Particle)
 Thermal correction to Energy=                    0.079388
 Thermal correction to Enthalpy=                  0.080332
 Thermal correction to Gibbs Free Energy=         0.043371
 Sum of electronic and zero-point Energies=           -338.503096
 Sum of electronic and thermal Energies=              -338.497019
 Sum of electronic and thermal Enthalpies=            -338.496075
 Sum of electronic and thermal Free Energies=         -338.533037

                     E (Thermal)             CV                S
                      KCal/Mol        Cal/Mol-Kelvin    Cal/Mol-Kelvin
 Total                   49.817             21.455             77.793
 Electronic               0.000              0.000              0.000
 Translational            0.889              2.981             39.338
 Rotational               0.889              2.981             26.363
 Vibrational             48.039             15.494             12.092
 Vibration     1          0.595              1.978              4.811
 Vibration     2          0.692              1.674              1.418
 Vibration     3          0.737              1.548              1.108
 Vibration     4          0.771              1.457              0.941
 Vibration     5          0.801              1.380              0.822
 Vibration     6          0.817              1.342              0.770
 Vibration     7          0.879              1.196              0.600
 Vibration     8          0.968              1.013              0.435

 Normal termination of Gaussian 09 at Thu Sep  8 15:23:28 2022.
