 Gaussian 09, Revision E.01,
 Gaussian 09:  ES64L-G09RevE.01 30-Nov-2015

 --------------------------------
 #P OPT=calcfc Freq B3LYP/6-31G**
 --------------------------------

 --------
 Frag_175
 --------
 Symbolic Z-matrix:
 Charge =  0 Multiplicity = 1

 SCF Done:  E(RB3LYP) =  -300.322108455     A.U. after   16 cycles
 SCF Done:  E(RB3LYP) =  -300.349115467     A.U. after   14 cycles
 SCF Done:  E(RB3LYP) =  -300.350973379     A.U. after   15 cycles
 SCF Done:  E(RB3LYP) =  -300.350492916     A.U. after   15 cycles
 SCF Done:  E(RB3LYP) =  -300.351065779     A.U. after   11 cycles
 SCF Done:  E(RB3LYP) =  -300.332365821     A.U. after   15 cycles
 SCF Done:  E(RB3LYP) =  -300.351134793     A.U. after   10 cycles
 SCF Done:  E(RB3LYP) =  -300.351187136     A.U. after   12 cycles
 SCF Done:  E(RB3LYP) =  -300.351282030     A.U. after   12 cycles
 SCF Done:  E(RB3LYP) =  -300.351751270     A.U. after   14 cycles
 SCF Done:  E(RB3LYP) =  -300.351920724     A.U. after   13 cycles
 SCF Done:  E(RB3LYP) =  -300.352168648     A.U. after   13 cycles
 SCF Done:  E(RB3LYP) =  -300.351996990     A.U. after   14 cycles
 SCF Done:  E(RB3LYP) =  -300.352285469     A.U. after    9 cycles
 SCF Done:  E(RB3LYP) =  -300.352332657     A.U. after   12 cycles
 SCF Done:  E(RB3LYP) =  -300.352336801     A.U. after    9 cycles
 SCF Done:  E(RB3LYP) =  -300.352336998     A.U. after    8 cycles
 Optimization completed.
    -- Stationary point found.
 Normal termination of Gaussian 09 at Sat Aug 21 02:19:47 2021.

 ----------------------------------------------------------------------
 #P Geom=AllCheck Guess=TCheck SCRF=Check GenChk RB3LYP/6-31G(d,p) Freq
 ----------------------------------------------------------------------

 Structure from the checkpoint file:  "/public/home/users/caep010/.cache/gau_scr/Gau-66506.chk"
 --------
 Frag_175
 --------
 Charge =  0 Multiplicity = 1

                         Standard orientation:
 ---------------------------------------------------------------------
 Center     Atomic      Atomic             Coordinates (Angstroms)
 Number     Number       Type             X           Y           Z
 ---------------------------------------------------------------------
      1          6           0       -1.812170    0.017696    0.086051
      2          7           0       -0.558499   -0.663574   -0.200291
      3          7           0        0.612974    0.050613   -0.020821
      4          8           0        0.526732    1.275318   -0.026783
      5          8           0        1.638422   -0.619194    0.084766
      6          1           0       -2.612506   -0.703729   -0.088818
      7          1           0       -1.931785    0.857182   -0.598408
      8          1           0       -1.869547    0.389233    1.116109
      9          1           0       -0.415707   -1.607121    0.138731
 ---------------------------------------------------------------------

 SCF Done:  E(RB3LYP) =  -300.352336998     A.U. after    2 cycles

 The electronic state is 1-A.
 Alpha  occ. eigenvalues --  -19.17967 -19.17612 -14.59926 -14.41457 -10.24501
 Alpha  occ. eigenvalues --   -1.24062  -1.05925  -0.97035  -0.75453  -0.64617
 Alpha  occ. eigenvalues --   -0.56210  -0.54905  -0.53230  -0.48351  -0.44998
 Alpha  occ. eigenvalues --   -0.42947  -0.32448  -0.30994  -0.29245  -0.29122
 Alpha virt. eigenvalues --   -0.04773   0.06901   0.10934   0.11866   0.15308
 Alpha virt. eigenvalues --    0.16829   0.18570   0.27817   0.35759   0.49760
 Alpha virt. eigenvalues --    0.52342   0.53227   0.59378   0.64934   0.66401

 Mulliken charges:
               1
     1  C   -0.177223
     2  N   -0.320848
     3  N    0.605199
     4  O   -0.408975
     5  O   -0.416426
     6  H    0.129542
     7  H    0.164461
     8  H    0.136530
     9  H    0.287740
 Sum of Mulliken charges =  -0.00000

 Dipole moment (field-independent basis, Debye):
    X=             -3.7924    Y=             -1.7990    Z=              0.5701  Tot=              4.2360
 Quadrupole moment (field-independent basis, Debye-Ang):
   XX=            -29.2665   YY=            -28.9568   ZZ=            -28.4272
   XY=              0.9740   XZ=             -0.6895   YZ=             -0.8475

  Exact polarizability:  43.030  -1.064  36.432   0.876  -0.378  20.601
 Approx polarizability:  63.953  -7.044  67.982   3.301  -0.566  28.795

                      1                      2                      3
                      A                      A                      A
 Frequencies --    139.2637               182.6381               308.4367
 Red. masses --      1.4633                 2.0589                 3.3152
 Frc consts  --      0.0167                 0.0405                 0.1858
 IR Inten    --      0.7498                 1.2700                 9.0440

                      4                      5                      6
                      A                      A                      A
 Frequencies --    542.6665               585.0590               746.1752
 Red. masses --      1.5990                 6.2918                 2.8064
 Frc consts  --      0.2774                 1.2689                 0.9206
 IR Inten    --    113.6482                 5.8041                54.8789

                      7                      8                      9
                      A                      A                      A
 Frequencies --    779.5734               950.0289              1117.3619
 Red. masses --     10.8407                 3.1217                 3.1259
 Frc consts  --      3.8817                 1.6600                 2.2994
 IR Inten    --     13.5245                19.4849                37.9407

                     10                     11                     12
                      A                      A                      A
 Frequencies --   1148.6462              1205.7586              1379.8794
 Red. masses --      1.2945                 2.0244                 4.7159
 Frc consts  --      1.0063                 1.7340                 5.2905
 IR Inten    --     20.5224                 3.0478               233.8190

                     13                     14                     15
                      A                      A                      A
 Frequencies --   1430.5727              1469.7199              1494.7976
 Red. masses --      1.4697                 1.2779                 1.0962
 Frc consts  --      1.7721                 1.6264                 1.4431
 IR Inten    --     52.7371                56.4872                13.5959

                     16                     17                     18
                      A                      A                      A
 Frequencies --   1526.9100              1697.0270              3046.6208
 Red. masses --      1.0521                 6.0225                 1.0432
 Frc consts  --      1.4453                10.2189                 5.7047
 IR Inten    --     21.2429               242.5475                27.5572

                     19                     20                     21
                      A                      A                      A
 Frequencies --   3134.5805              3174.4861              3608.2178
 Red. masses --      1.0942                 1.1042                 1.0775
 Frc consts  --      6.3344                 6.5561                 8.2654
 IR Inten    --     14.3991                 4.5825                39.6879

 - Thermochemistry -
 -------------------
 Temperature   298.150 Kelvin.  Pressure   1.00000 Atm.
 Atom     1 has atomic number  6 and mass  12.00000

 Molecular mass:    76.02728 amu.
 Principal axes and moments of inertia in atomic units:
                           1         2         3
     Eigenvalues --   159.80371 401.98682 544.54150
           X            0.99997   0.00306  -0.00744
           Y           -0.00311   0.99998  -0.00620
           Z            0.00742   0.00622   0.99995
 This molecule is an asymmetric top.
 Rotational symmetry number  1.
 Rotational temperatures (Kelvin)      0.54200     0.21546     0.15906
 Rotational constants (GHZ):          11.29349     4.48955     3.31424
 Zero-point vibrational energy     177456.6 (Joules/Mol)
                                   42.41314 (Kcal/Mol)
 Warning -- explicit consideration of   5 degrees of freedom as
           vibrations may cause significant error
 Vibrational temperatures:    200.37   262.78   443.77   780.78   841.77
          (Kelvin)           1073.58  1121.63  1366.88  1607.63  1652.64
                             1734.82  1985.34  2058.27  2114.60  2150.68
                             2196.88  2441.64  4383.40  4509.96  4567.37
                             5191.41

 Zero-point correction=                           0.067590 (Hartree/Particle)
 Thermal correction to Energy=                    0.072762
 Thermal correction to Enthalpy=                  0.073706
 Thermal correction to Gibbs Free Energy=         0.039351
 Sum of electronic and zero-point Energies=           -300.284747
 Sum of electronic and thermal Energies=              -300.279575
 Sum of electronic and thermal Enthalpies=            -300.278631
 Sum of electronic and thermal Free Energies=         -300.312986

                     E (Thermal)             CV                S
                      KCal/Mol        Cal/Mol-Kelvin    Cal/Mol-Kelvin
 Total                   45.659             16.661             72.305
 Electronic               0.000              0.000              0.000
 Translational            0.889              2.981             38.901
 Rotational               0.889              2.981             25.062
 Vibrational             43.881             10.700              8.342
 Vibration     1          0.615              1.914              2.814
 Vibration     2          0.630              1.863              2.301
 Vibration     3          0.698              1.658              1.371
 Vibration     4          0.898              1.156              0.560
 Vibration     5          0.942              1.064              0.476

 Optimization completed.
    -- Stationary point found.
 Normal termination of Gaussian 09 at Sat Aug 21 02:19:54 2021.
