 Gaussian 09, Revision E.01,
 Gaussian 09:  ES64L-G09RevE.01 30-Nov-2015

 ----------------------------
 #P OPT Freq B3LYP/6-31G(d,p)
 ----------------------------

 --------
 Frag_622
 --------
 Symbolic Z-matrix:
 Charge =  0 Multiplicity = 1

 SCF Done:  E(RB3LYP) =  -229.820341159     A.U. after   12 cycles
 SCF Done:  E(RB3LYP) =  -229.820365368     A.U. after   10 cycles
 SCF Done:  E(RB3LYP) =  -229.820368538     A.U. after    7 cycles
 SCF Done:  E(RB3LYP) =  -229.820368927     A.U. after    7 cycles
 Optimization completed.
    -- Stationary point found.
 Normal termination of Gaussian 09 at Thu Sep  8 15:17:48 2022.

 ----------------------------------------------------------------------
 #P Geom=AllCheck Guess=TCheck SCRF=Check GenChk RB3LYP/6-31G(d,p) Freq
 ----------------------------------------------------------------------

 Structure from the checkpoint file:  "B3LYP6-31Gdp.Frag_622.chk"
 --------
 Frag_622
 --------
 Charge =  0 Multiplicity = 1

                         Standard orientation:
 ---------------------------------------------------------------------
 Center     Atomic      Atomic             Coordinates (Angstroms)
 Number     Number       Type             X           Y           Z
 ---------------------------------------------------------------------
      1          6           0       -0.620770    1.463337   -0.102153
      2          6           0       -0.434650    0.006850    0.323214
      3          6           0       -1.655386   -0.849980   -0.019208
      4          7           0        0.732545   -0.567548   -0.364014
      5          7           0        1.949425    0.016178    0.110118
      6          1           0        0.292318    2.029788    0.092770
      7          1           0       -1.446571    1.925543    0.449127
      8          1           0       -0.839811    1.519730   -1.173887
      9          1           0       -0.292008   -0.014781    1.421071
     10          1           0       -1.530138   -1.885922    0.319319
     11          1           0       -1.819710   -0.863595   -1.101769
     12          1           0       -2.553692   -0.451389    0.461070
     13          1           0        0.730237   -1.577582   -0.210326
     14          1           0        2.307173   -0.470414    0.934872
     15          1           0        2.643248   -0.073032   -0.626090
 ---------------------------------------------------------------------

 SCF Done:  E(RB3LYP) =  -229.820368927     A.U. after    1 cycles

 The electronic state is 1-A.
 Alpha  occ. eigenvalues --  -14.33525 -14.33497 -10.20398 -10.17131 -10.15583
 Alpha  occ. eigenvalues --   -0.95003  -0.80024  -0.70922  -0.67539  -0.56104
 Alpha  occ. eigenvalues --   -0.50003  -0.47745  -0.46501  -0.42661  -0.37992
 Alpha  occ. eigenvalues --   -0.37305  -0.35417  -0.33483  -0.32658  -0.24402
 Alpha  occ. eigenvalues --   -0.22443
 Alpha virt. eigenvalues --    0.07459   0.10195   0.13636   0.15046   0.15601
 Alpha virt. eigenvalues --    0.16477   0.17220   0.18392   0.19680   0.21244
 Alpha virt. eigenvalues --    0.23925   0.24333   0.26151   0.27829   0.51483

 Mulliken charges:
               1
     1  C   -0.294401
     2  C    0.102375
     3  C   -0.328171
     4  N   -0.404689
     5  N   -0.468325
     6  H    0.125135
     7  H    0.086695
     8  H    0.100698
     9  H    0.061196
    10  H    0.088878
    11  H    0.115793
    12  H    0.105588
    13  H    0.225080
    14  H    0.229436
    15  H    0.254712
 Sum of Mulliken charges =   0.00000

 Dipole moment (field-independent basis, Debye):
    X=              0.6261    Y=             -1.6479    Z=              0.7845  Tot=              1.9295
 Quadrupole moment (field-independent basis, Debye-Ang):
   XX=            -28.9302   YY=            -32.3606   ZZ=            -33.5235
   XY=             -2.9087   XZ=              0.1051   YZ=             -1.0057

  Exact polarizability:  55.734   0.045  47.197   0.029  -0.293  42.885
 Approx polarizability:  68.494   0.300  61.283  -0.290   0.139  61.776

                      1                      2                      3
                      A                      A                      A
 Frequencies --    139.2393               225.2137               239.8188
 Red. masses --      2.5399                 1.0521                 1.1347
 Frc consts  --      0.0290                 0.0314                 0.0385
 IR Inten    --      6.0342                 0.3630                 7.2567

                      4                      5                      6
                      A                      A                      A
 Frequencies --    277.2162               292.6344               356.1256
 Red. masses --      1.1409                 2.2318                 2.1999
 Frc consts  --      0.0517                 0.1126                 0.1644
 IR Inten    --     31.3969                 5.6587                 0.3201

                      7                      8                      9
                      A                      A                      A
 Frequencies --    474.7337               509.0253               774.4517
 Red. masses --      2.1106                 3.2306                 1.8703
 Frc consts  --      0.2803                 0.4932                 0.6609
 IR Inten    --      7.2730                11.1029                28.9633

                     10                     11                     12
                      A                      A                      A
 Frequencies --    828.7021               919.1359               937.4434
 Red. masses --      1.9414                 1.7754                 1.2025
 Frc consts  --      0.7855                 0.8837                 0.6226
 IR Inten    --     19.0231                60.4572                 5.6097

                     13                     14                     15
                      A                      A                      A
 Frequencies --    965.7369               998.3847              1124.8666
 Red. masses --      1.3576                 1.7011                 1.9358
 Frc consts  --      0.7460                 0.9990                 1.4432
 IR Inten    --      3.5865                34.8447                17.8917

                     16                     17                     18
                      A                      A                      A
 Frequencies --   1164.9597              1182.7244              1214.6815
 Red. masses --      1.9765                 1.8608                 1.8390
 Frc consts  --      1.5804                 1.5336                 1.5986
 IR Inten    --      5.6317                 1.6953                 3.7685

                     19                     20                     21
                      A                      A                      A
 Frequencies --   1306.7910              1362.4404              1393.8465
 Red. masses --      1.3439                 1.3433                 1.2688
 Frc consts  --      1.3521                 1.4692                 1.4523
 IR Inten    --     19.0475                 3.9014                 7.1939

                     22                     23                     24
                      A                      A                      A
 Frequencies --   1407.4465              1426.3227              1487.2411
 Red. masses --      1.3201                 1.2746                 1.0816
 Frc consts  --      1.5408                 1.5277                 1.4095
 IR Inten    --     14.3871                11.8726                 4.3803

                     25                     26                     27
                      A                      A                      A
 Frequencies --   1502.0280              1505.8837              1519.9416
 Red. masses --      1.0863                 1.0460                 1.1307
 Frc consts  --      1.4440                 1.3976                 1.5390
 IR Inten    --      3.8553                 0.0819                 0.3471

                     28                     29                     30
                      A                      A                      A
 Frequencies --   1529.8209              1675.6702              2922.6610
 Red. masses --      1.0570                 1.0858                 1.0822
 Frc consts  --      1.4575                 1.7963                 5.4463
 IR Inten    --      4.7312                 8.8210                77.4282

                     31                     32                     33
                      A                      A                      A
 Frequencies --   3035.7684              3046.1462              3103.2136
 Red. masses --      1.0381                 1.0371                 1.0986
 Frc consts  --      5.6369                 5.6698                 6.2334
 IR Inten    --     29.7601                19.9705                35.1331

                     34                     35                     36
                      A                      A                      A
 Frequencies --   3113.9420              3127.7378              3144.9116
 Red. masses --      1.1028                 1.1023                 1.1004
 Frc consts  --      6.3003                 6.3532                 6.4122
 IR Inten    --     23.4137                37.7161                15.1287

                     37                     38                     39
                      A                      A                      A
 Frequencies --   3408.8401              3427.2721              3561.4913
 Red. masses --      1.0619                 1.0671                 1.0878
 Frc consts  --      7.2700                 7.3852                 8.1296
 IR Inten    --     26.8577                11.0284                 0.2298

 - Thermochemistry -
 -------------------
 Temperature   298.150 Kelvin.  Pressure   1.00000 Atm.
 Atom     1 has atomic number  6 and mass  12.00000

 Molecular mass:    74.08440 amu.
 Principal axes and moments of inertia in atomic units:
                           1         2         3
     Eigenvalues --   236.66268 494.65559 660.69419
           X            0.99998  -0.00383   0.00519
           Y            0.00391   0.99989  -0.01438
           Z           -0.00513   0.01440   0.99988
 This molecule is an asymmetric top.
 Rotational symmetry number  1.
 Rotational temperatures (Kelvin)      0.36598     0.17510     0.13110
 Rotational constants (GHZ):           7.62580     3.64848     2.73158
 Zero-point vibrational energy     362674.9 (Joules/Mol)
                                   86.68138 (Kcal/Mol)
 Warning -- explicit consideration of   8 degrees of freedom as
           vibrations may cause significant error
 Vibrational temperatures:    200.33   324.03   345.05   398.85   421.04
          (Kelvin)            512.38   683.04   732.37  1114.26  1192.32
                             1322.43  1348.77  1389.48  1436.45  1618.43
                             1676.12  1701.67  1747.65  1880.18  1960.25
                             2005.43  2025.00  2052.16  2139.81  2161.08
                             2166.63  2186.85  2201.07  2410.91  4205.05
                             4367.79  4382.72  4464.83  4480.26  4500.11
                             4524.82  4904.55  4931.07  5124.19

 Zero-point correction=                           0.138136 (Hartree/Particle)
 Thermal correction to Energy=                    0.144824
 Thermal correction to Enthalpy=                  0.145768
 Thermal correction to Gibbs Free Energy=         0.108739
 Sum of electronic and zero-point Energies=           -229.682233
 Sum of electronic and thermal Energies=              -229.675545
 Sum of electronic and thermal Enthalpies=            -229.674601
 Sum of electronic and thermal Free Energies=         -229.711630

                     E (Thermal)             CV                S
                      KCal/Mol        Cal/Mol-Kelvin    Cal/Mol-Kelvin
 Total                   90.878             23.856             77.933
 Electronic               0.000              0.000              0.000
 Translational            0.889              2.981             38.824
 Rotational               0.889              2.981             25.851
 Vibrational             89.101             17.895             13.259
 Vibration     1          0.615              1.914              2.814
 Vibration     2          0.650              1.803              1.917
 Vibration     3          0.657              1.780              1.804
 Vibration     4          0.678              1.716              1.551
 Vibration     5          0.688              1.687              1.459
 Vibration     6          0.732              1.563              1.139
 Vibration     7          0.831              1.306              0.724
 Vibration     8          0.864              1.230              0.636

 Optimization completed.
    -- Stationary point found.
 Normal termination of Gaussian 09 at Thu Sep  8 15:17:59 2022.
