 Gaussian 09, Revision E.01,
 Gaussian 09:  ES64L-G09RevE.01 30-Nov-2015

 ----------------------------
 #P OPT Freq B3LYP/6-31G(d,p)
 ----------------------------

 --------
 Frag_581
 --------
 Symbolic Z-matrix:
 Charge =  0 Multiplicity = 1

 SCF Done:  E(RB3LYP) =  -324.893055466     A.U. after   13 cycles
 SCF Done:  E(RB3LYP) =  -324.893111189     A.U. after   10 cycles
 SCF Done:  E(RB3LYP) =  -324.893120273     A.U. after    9 cycles
 SCF Done:  E(RB3LYP) =  -324.893123447     A.U. after    8 cycles
 SCF Done:  E(RB3LYP) =  -324.893123897     A.U. after    7 cycles
 SCF Done:  E(RB3LYP) =  -324.893124074     A.U. after    7 cycles
 Optimization completed.
    -- Stationary point found.
 Normal termination of Gaussian 09 at Thu Sep  8 15:06:28 2022.

 ----------------------------------------------------------------------
 #P Geom=AllCheck Guess=TCheck SCRF=Check GenChk RB3LYP/6-31G(d,p) Freq
 ----------------------------------------------------------------------

 Structure from the checkpoint file:  "B3LYP6-31Gdp.Frag_581.chk"
 --------
 Frag_581
 --------
 Charge =  0 Multiplicity = 1

                         Standard orientation:
 ---------------------------------------------------------------------
 Center     Atomic      Atomic             Coordinates (Angstroms)
 Number     Number       Type             X           Y           Z
 ---------------------------------------------------------------------
      1          6           0       -1.618408   -0.663037   -0.542622
      2          6           0       -0.381206    0.023640    0.029396
      3          6           0       -0.388848    1.534592   -0.188362
      4          8           0       -0.274919   -0.172259    1.431397
      5          8           0        0.710137   -0.629011   -0.637978
      6          7           0        2.009946   -0.230921   -0.182551
      7          1           0       -1.551047   -1.743822   -0.382180
      8          1           0       -2.518449   -0.283653   -0.052751
      9          1           0       -1.695297   -0.487950   -1.618464
     10          1           0        0.487285    1.999499    0.270483
     11          1           0       -1.275543    1.974968    0.273405
     12          1           0       -0.395840    1.759523   -1.257865
     13          1           0       -0.346758   -1.125419    1.588410
     14          1           0        2.148348    0.726247   -0.516894
     15          1           0        1.926704   -0.163951    0.835896
 ---------------------------------------------------------------------

 SCF Done:  E(RB3LYP) =  -324.893124074     A.U. after    1 cycles

 The electronic state is 1-A.
 Alpha  occ. eigenvalues --  -19.16811 -19.15882 -14.36139 -10.29045 -10.18373
 Alpha  occ. eigenvalues --  -10.18353  -1.07722  -1.01260  -0.81960  -0.75122
 Alpha  occ. eigenvalues --   -0.70284  -0.59152  -0.53767  -0.49948  -0.47073
 Alpha  occ. eigenvalues --   -0.45552  -0.41954  -0.40221  -0.38906  -0.38203
 Alpha  occ. eigenvalues --   -0.37345  -0.32792  -0.30654  -0.27560  -0.24695
 Alpha virt. eigenvalues --    0.06434   0.08706   0.09764   0.13411   0.13760
 Alpha virt. eigenvalues --    0.15580   0.16361   0.18126   0.19468   0.19930
 Alpha virt. eigenvalues --    0.21841   0.23631   0.25888   0.26712   0.50288

 Mulliken charges:
               1
     1  C   -0.325731
     2  C    0.448232
     3  C   -0.317277
     4  O   -0.534174
     5  O   -0.418985
     6  N   -0.344687
     7  H    0.110064
     8  H    0.115696
     9  H    0.122645
    10  H    0.101606
    11  H    0.120843
    12  H    0.116069
    13  H    0.308466
    14  H    0.247546
    15  H    0.249687
 Sum of Mulliken charges =  -0.00000

 Dipole moment (field-independent basis, Debye):
    X=             -1.3982    Y=              0.9982    Z=              0.6779  Tot=              1.8468
 Quadrupole moment (field-independent basis, Debye-Ang):
   XX=            -37.9876   YY=            -35.3160   ZZ=            -38.3997
   XY=              4.5245   XZ=              2.6783   YZ=             -4.0944

  Exact polarizability:  53.414   2.251  46.817   1.401  -1.597  44.043
 Approx polarizability:  69.215   2.096  63.115   0.802  -0.327  64.305

                      1                      2                      3
                      A                      A                      A
 Frequencies --    154.4811               206.0112               241.8516
 Red. masses --      2.2406                 1.1805                 1.0575
 Frc consts  --      0.0315                 0.0295                 0.0364
 IR Inten    --      7.0245                 8.4294                 5.4698

                      4                      5                      6
                      A                      A                      A
 Frequencies --    277.6369               327.0135               348.6048
 Red. masses --      2.8842                 1.4293                 1.9995
 Frc consts  --      0.1310                 0.0901                 0.1432
 IR Inten    --      7.0463                40.0899                 3.6242

                      7                      8                      9
                      A                      A                      A
 Frequencies --    398.5767               426.3798               446.7953
 Red. masses --      2.9303                 2.2088                 1.2450
 Frc consts  --      0.2743                 0.2366                 0.1464
 IR Inten    --     19.6181                27.8236                59.4920

                     10                     11                     12
                      A                      A                      A
 Frequencies --    515.5008               605.1396               768.6517
 Red. masses --      2.8883                 3.5729                 4.7557
 Frc consts  --      0.4522                 0.7709                 1.6555
 IR Inten    --     20.9452                10.9734                12.8062

                     13                     14                     15
                      A                      A                      A
 Frequencies --    860.0545               930.0935               954.2418
 Red. masses --      2.8053                 1.7260                 3.0794
 Frc consts  --      1.2226                 0.8797                 1.6521
 IR Inten    --     49.5825                 3.4414                11.3446

                     16                     17                     18
                      A                      A                      A
 Frequencies --    978.5642              1013.6270              1138.5434
 Red. masses --      2.4100                 1.3222                 1.5483
 Frc consts  --      1.3597                 0.8004                 1.1825
 IR Inten    --     37.1439                 2.3788                69.7544

                     19                     20                     21
                      A                      A                      A
 Frequencies --   1202.4937              1223.9009              1258.7857
 Red. masses --      2.2611                 1.4382                 2.9552
 Frc consts  --      1.9264                 1.2692                 2.7590
 IR Inten    --     63.0551               143.0211                81.6596

                     22                     23                     24
                      A                      A                      A
 Frequencies --   1343.4267              1376.5993              1423.4250
 Red. masses --      1.1485                 1.3685                 1.4032
 Frc consts  --      1.2213                 1.5280                 1.6751
 IR Inten    --      4.1851                24.7070                26.6713

                     25                     26                     27
                      A                      A                      A
 Frequencies --   1431.0998              1493.1344              1495.7150
 Red. masses --      1.4647                 1.0465                 1.0724
 Frc consts  --      1.7675                 1.3746                 1.4135
 IR Inten    --     30.9757                 0.5531                 1.7770

                     28                     29                     30
                      A                      A                      A
 Frequencies --   1512.3855              1518.9116              1660.0570
 Red. masses --      1.0705                 1.0506                 1.0679
 Frc consts  --      1.4427                 1.4280                 1.7339
 IR Inten    --      2.4801                 2.6950                18.9456

                     31                     32                     33
                      A                      A                      A
 Frequencies --   3056.8944              3066.7492              3132.4927
 Red. masses --      1.0359                 1.0354                 1.1013
 Frc consts  --      5.7036                 5.7376                 6.3671
 IR Inten    --     12.9758                 5.8098                18.5829

                     34                     35                     36
                      A                      A                      A
 Frequencies --   3141.9820              3145.8956              3151.9440
 Red. masses --      1.1019                 1.1043                 1.1037
 Frc consts  --      6.4091                 6.4393                 6.4604
 IR Inten    --     19.0828                 1.2260                28.4291

                     37                     38                     39
                      A                      A                      A
 Frequencies --   3391.2333              3494.3755              3785.4994
 Red. masses --      1.0453                 1.0960                 1.0655
 Frc consts  --      7.0829                 7.8851                 8.9959
 IR Inten    --      9.5045                 1.5933                15.4096

 - Thermochemistry -
 -------------------
 Temperature   298.150 Kelvin.  Pressure   1.00000 Atm.
 Atom     1 has atomic number  6 and mass  12.00000

 Molecular mass:    91.06333 amu.
 Principal axes and moments of inertia in atomic units:
                           1         2         3
     Eigenvalues --   388.13044 622.87060 646.42877
           X            0.99710   0.06734   0.03553
           Y           -0.05468   0.95807  -0.28128
           Z           -0.05298   0.27852   0.95897
 This molecule is an asymmetric top.
 Rotational symmetry number  1.
 Rotational temperatures (Kelvin)      0.22316     0.13906     0.13399
 Rotational constants (GHZ):           4.64983     2.89746     2.79186
 Zero-point vibrational energy     340330.2 (Joules/Mol)
                                   81.34087 (Kcal/Mol)
 Warning -- explicit consideration of  11 degrees of freedom as
           vibrations may cause significant error
 Vibrational temperatures:    222.26   296.40   347.97   399.46   470.50
          (Kelvin)            501.56   573.46   613.46   642.84   741.69
                              870.66  1105.92  1237.43  1338.20  1372.94
                             1407.93  1458.38  1638.11  1730.12  1760.92
                             1811.11  1932.89  1980.62  2047.99  2059.03
                             2148.28  2152.00  2175.98  2185.37  2388.45
                             4398.18  4412.36  4506.95  4520.61  4526.24
                             4534.94  4879.22  5027.62  5446.48

 Zero-point correction=                           0.129625 (Hartree/Particle)
 Thermal correction to Energy=                    0.137010
 Thermal correction to Enthalpy=                  0.137955
 Thermal correction to Gibbs Free Energy=         0.099331
 Sum of electronic and zero-point Energies=           -324.763499
 Sum of electronic and thermal Energies=              -324.756114
 Sum of electronic and thermal Enthalpies=            -324.755170
 Sum of electronic and thermal Free Energies=         -324.793793

                     E (Thermal)             CV                S
                      KCal/Mol        Cal/Mol-Kelvin    Cal/Mol-Kelvin
 Total                   85.975             27.371             81.289
 Electronic               0.000              0.000              0.000
 Translational            0.889              2.981             39.439
 Rotational               0.889              2.981             26.549
 Vibrational             84.198             21.409             15.301
 Vibration     1          0.620              1.898              2.616
 Vibration     2          0.640              1.831              2.079
 Vibration     3          0.658              1.776              1.789
 Vibration     4          0.679              1.715              1.548
 Vibration     5          0.711              1.621              1.275
 Vibration     6          0.726              1.578              1.172
 Vibration     7          0.765              1.473              0.968
 Vibration     8          0.788              1.413              0.871
 Vibration     9          0.806              1.368              0.806
 Vibration    10          0.871              1.216              0.620
 Vibration    11          0.964              1.021              0.441

 Optimization completed.
    -- Stationary point found.
 Normal termination of Gaussian 09 at Thu Sep  8 15:06:41 2022.
