 Gaussian 09, Revision E.01,
 Gaussian 09:  ES64L-G09RevE.01 30-Nov-2015

 ----------------------------
 #P OPT Freq B3LYP/6-31G(d,p)
 ----------------------------

 --------
 Frag_599
 --------
 Symbolic Z-matrix:
 Charge =  0 Multiplicity = 1

 SCF Done:  E(RB3LYP) =  -308.896657072     A.U. after   12 cycles
 SCF Done:  E(RB3LYP) =  -308.896706222     A.U. after   10 cycles
 SCF Done:  E(RB3LYP) =  -308.896709403     A.U. after    8 cycles
 SCF Done:  E(RB3LYP) =  -308.896710480     A.U. after    7 cycles
 SCF Done:  E(RB3LYP) =  -308.896710835     A.U. after    7 cycles
 Optimization completed.
    -- Stationary point found.
 Normal termination of Gaussian 09 at Thu Sep  8 15:13:59 2022.

 ----------------------------------------------------------------------
 #P Geom=AllCheck Guess=TCheck SCRF=Check GenChk RB3LYP/6-31G(d,p) Freq
 ----------------------------------------------------------------------

 Structure from the checkpoint file:  "B3LYP6-31Gdp.Frag_599.chk"
 --------
 Frag_599
 --------
 Charge =  0 Multiplicity = 1

                         Standard orientation:
 ---------------------------------------------------------------------
 Center     Atomic      Atomic             Coordinates (Angstroms)
 Number     Number       Type             X           Y           Z
 ---------------------------------------------------------------------
      1          6           0        0.567414   -1.118691    1.003929
      2          6           0        0.420870    0.004774   -0.027509
      3          6           0        0.584523    1.380251    0.617333
      4          8           0        1.453468   -0.085295   -1.021276
      5          6           0       -0.929249   -0.094517   -0.758679
      6          8           0       -1.986498    0.003612    0.188532
      7          1           0        0.498892   -2.101358    0.519249
      8          1           0        1.538470   -1.049830    1.502805
      9          1           0       -0.225783   -1.064554    1.753453
     10          1           0        1.539660    1.440424    1.146607
     11          1           0       -0.229734    1.568837    1.320570
     12          1           0        0.571625    2.157844   -0.152439
     13          1           0        1.473567   -0.998555   -1.339174
     14          1           0       -0.974192    0.709134   -1.508073
     15          1           0       -0.966874   -1.056840   -1.298791
     16          1           0       -2.822732    0.017454   -0.292698
 ---------------------------------------------------------------------

 SCF Done:  E(RB3LYP) =  -308.896710835     A.U. after    1 cycles

 The electronic state is 1-A.
 Alpha  occ. eigenvalues --  -19.14693 -19.13745 -10.23624 -10.22694 -10.16999
 Alpha  occ. eigenvalues --  -10.16339  -1.02185  -1.00838  -0.77524  -0.68493
 Alpha  occ. eigenvalues --   -0.67619  -0.56074  -0.51766  -0.47797  -0.45707
 Alpha  occ. eigenvalues --   -0.43980  -0.41348  -0.37565  -0.37194  -0.36846
 Alpha  occ. eigenvalues --   -0.34935  -0.33376  -0.31382  -0.26982  -0.26292
 Alpha virt. eigenvalues --    0.06864   0.07458   0.12600   0.14423   0.15244
 Alpha virt. eigenvalues --    0.16009   0.16993   0.18460   0.20788   0.20965
 Alpha virt. eigenvalues --    0.22356   0.23424   0.25640   0.26715   0.28067

 Mulliken charges:
               1
     1  C   -0.317619
     2  C    0.246220
     3  C   -0.301410
     4  O   -0.552584
     5  C    0.060522
     6  O   -0.538541
     7  H    0.080878
     8  H    0.108625
     9  H    0.127545
    10  H    0.104847
    11  H    0.119584
    12  H    0.105371
    13  H    0.296822
    14  H    0.089062
    15  H    0.060643
    16  H    0.310036
 Sum of Mulliken charges =  -0.00000

 Dipole moment (field-independent basis, Debye):
    X=             -1.3568    Y=             -1.1525    Z=             -0.8719  Tot=              1.9822
 Quadrupole moment (field-independent basis, Debye-Ang):
   XX=            -35.8639   YY=            -36.4533   ZZ=            -37.6680
   XY=             -2.0479   XZ=              4.0289   YZ=              2.0503

  Exact polarizability:  52.759  -0.580  50.674   0.738   1.265  49.418
 Approx polarizability:  70.297  -0.488  67.069  -2.551   2.099  68.452

                      1                      2                      3
                      A                      A                      A
 Frequencies --    135.1700               224.6492               228.4548
 Red. masses --      3.0240                 1.1432                 1.1037
 Frc consts  --      0.0326                 0.0340                 0.0339
 IR Inten    --     10.8992                 5.3983               106.1644

                      4                      5                      6
                      A                      A                      A
 Frequencies --    238.8511               275.9000               314.3746
 Red. masses --      1.8025                 1.2899                 1.0682
 Frc consts  --      0.0606                 0.0579                 0.0622
 IR Inten    --      5.3121                 1.5901               106.4834

                      7                      8                      9
                      A                      A                      A
 Frequencies --    349.3160               358.5361               438.7821
 Red. masses --      2.2077                 2.7003                 3.1365
 Frc consts  --      0.1587                 0.2045                 0.3558
 IR Inten    --      2.3573                 2.7667                 7.6235

                     10                     11                     12
                      A                      A                      A
 Frequencies --    460.6687               523.7914               751.4484
 Red. masses --      2.5104                 3.4212                 3.4707
 Frc consts  --      0.3139                 0.5530                 1.1547
 IR Inten    --     13.1168                 2.1965                 6.9026

                     13                     14                     15
                      A                      A                      A
 Frequencies --    924.7705               929.7409               969.3925
 Red. masses --      2.1589                 1.7228                 1.2362
 Frc consts  --      1.0878                 0.8774                 0.6845
 IR Inten    --      2.5923                 0.2125                 1.2033

                     16                     17                     18
                      A                      A                      A
 Frequencies --    995.0361              1038.0770              1085.6335
 Red. masses --      1.9351                 1.4093                 6.4776
 Frc consts  --      1.1289                 0.8948                 4.4981
 IR Inten    --     55.4901                 6.9437                72.6208

                     19                     20                     21
                      A                      A                      A
 Frequencies --   1159.4585              1184.1213              1245.9596
 Red. masses --      1.5074                 1.4499                 1.7217
 Frc consts  --      1.1940                 1.1978                 1.5747
 IR Inten    --     28.4770               127.7163                 8.7403

                     22                     23                     24
                      A                      A                      A
 Frequencies --   1251.2127              1294.1244              1380.5234
 Red. masses --      1.2484                 1.9452                 1.3877
 Frc consts  --      1.1515                 1.9194                 1.5582
 IR Inten    --      2.9002                13.9419                30.1204

                     25                     26                     27
                      A                      A                      A
 Frequencies --   1419.2901              1424.6377              1458.7587
 Red. masses --      1.3614                 1.5193                 1.3969
 Frc consts  --      1.6158                 1.8168                 1.7514
 IR Inten    --     14.7722                20.1750                 4.9349

                     28                     29                     30
                      A                      A                      A
 Frequencies --   1498.1457              1500.4349              1511.0025
 Red. masses --      1.0468                 1.0643                 1.0670
 Frc consts  --      1.3843                 1.4117                 1.4353
 IR Inten    --      0.7460                 1.4553                 7.0267

                     31                     32                     33
                      A                      A                      A
 Frequencies --   1523.3511              1538.2821              2961.0748
 Red. masses --      1.0721                 1.0793                 1.0656
 Frc consts  --      1.4658                 1.5047                 5.5047
 IR Inten    --      5.5630                 1.3825                72.9785

                     34                     35                     36
                      A                      A                      A
 Frequencies --   3027.3201              3033.8105              3057.5139
 Red. masses --      1.0965                 1.0430                 1.0358
 Frc consts  --      5.9206                 5.6562                 5.7048
 IR Inten    --     50.3893                36.9263                13.7915

                     37                     38                     39
                      A                      A                      A
 Frequencies --   3107.8526              3128.9139              3143.9371
 Red. masses --      1.0942                 1.1027                 1.1024
 Frc consts  --      6.2269                 6.3605                 6.4201
 IR Inten    --     28.0076                28.4681                 5.4288

                     40                     41                     42
                      A                      A                      A
 Frequencies --   3150.7425              3796.2133              3831.1448
 Red. masses --      1.1023                 1.0660                 1.0668
 Frc consts  --      6.4473                 9.0512                 9.2255
 IR Inten    --     23.6540                 5.6611                18.8891

 - Thermochemistry -
 -------------------
 Temperature   298.150 Kelvin.  Pressure   1.00000 Atm.
 Atom     1 has atomic number  6 and mass  12.00000

 Molecular mass:    90.06808 amu.
 Principal axes and moments of inertia in atomic units:
                           1         2         3
     Eigenvalues --   399.32493 679.44376 685.94538
           X            0.99795  -0.02302   0.05972
           Y            0.00700   0.96675   0.25565
           Z           -0.06362  -0.25470   0.96492
 This molecule is an asymmetric top.
 Rotational symmetry number  1.
 Rotational temperatures (Kelvin)      0.21690     0.12748     0.12627
 Rotational constants (GHZ):           4.51948     2.65620     2.63103
 Zero-point vibrational energy     370067.3 (Joules/Mol)
                                   88.44820 (Kcal/Mol)
 Warning -- explicit consideration of  11 degrees of freedom as
           vibrations may cause significant error
 Vibrational temperatures:    194.48   323.22   328.70   343.65   396.96
          (Kelvin)            452.31   502.59   515.85   631.31   662.80
                              753.62  1081.17  1330.54  1337.69  1394.74
                             1431.63  1493.56  1561.98  1668.20  1703.68
                             1792.66  1800.21  1861.95  1986.26  2042.04
                             2049.73  2098.83  2155.49  2158.79  2173.99
                             2191.76  2213.24  4260.32  4355.63  4364.97
                             4399.08  4471.50  4501.80  4523.42  4533.21
                             5461.90  5512.16

 Zero-point correction=                           0.140951 (Hartree/Particle)
 Thermal correction to Energy=                    0.148755
 Thermal correction to Enthalpy=                  0.149699
 Thermal correction to Gibbs Free Energy=         0.110180
 Sum of electronic and zero-point Energies=           -308.755760
 Sum of electronic and thermal Energies=              -308.747956
 Sum of electronic and thermal Enthalpies=            -308.747012
 Sum of electronic and thermal Free Energies=         -308.786531

                     E (Thermal)             CV                S
                      KCal/Mol        Cal/Mol-Kelvin    Cal/Mol-Kelvin
 Total                   93.345             28.471             83.175
 Electronic               0.000              0.000              0.000
 Translational            0.889              2.981             39.406
 Rotational               0.889              2.981             26.723
 Vibrational             91.568             22.509             17.046
 Vibration     1          0.613              1.918              2.871
 Vibration     2          0.649              1.804              1.921
 Vibration     3          0.651              1.798              1.891
 Vibration     4          0.657              1.781              1.811
 Vibration     5          0.678              1.718              1.559
 Vibration     6          0.702              1.646              1.339
 Vibration     7          0.727              1.577              1.169
 Vibration     8          0.733              1.558              1.128
 Vibration     9          0.799              1.386              0.830
 Vibration    10          0.818              1.337              0.764
 Vibration    11          0.879              1.197              0.601

 Normal termination of Gaussian 09 at Thu Sep  8 15:14:13 2022.
