 Gaussian 09, Revision E.01,
 Gaussian 09:  ES64L-G09RevE.01 30-Nov-2015

 ----------------------------
 #P OPT Freq B3LYP/6-31G(d,p)
 ----------------------------

 --------
 Frag_475
 --------
 Symbolic Z-matrix:
 Charge =  0 Multiplicity = 1

 SCF Done:  E(RB3LYP) =  -268.397447261     A.U. after   14 cycles
 SCF Done:  E(RB3LYP) =  -268.397529186     A.U. after   11 cycles
 SCF Done:  E(RB3LYP) =  -268.397442492     A.U. after   11 cycles
 SCF Done:  E(RB3LYP) =  -268.397540989     A.U. after   11 cycles
 SCF Done:  E(RB3LYP) =  -268.397542813     A.U. after    8 cycles
 SCF Done:  E(RB3LYP) =  -268.397546699     A.U. after   10 cycles
 SCF Done:  E(RB3LYP) =  -268.397548179     A.U. after   10 cycles
 SCF Done:  E(RB3LYP) =  -268.397548537     A.U. after    9 cycles
 SCF Done:  E(RB3LYP) =  -268.397548586     A.U. after    8 cycles
 Optimization completed.
    -- Stationary point found.
 Normal termination of Gaussian 09 at Thu Sep  8 15:17:37 2022.

 ----------------------------------------------------------------------
 #P Geom=AllCheck Guess=TCheck SCRF=Check GenChk RB3LYP/6-31G(d,p) Freq
 ----------------------------------------------------------------------

 Structure from the checkpoint file:  "B3LYP6-31Gdp.Frag_475.chk"
 --------
 Frag_475
 --------
 Charge =  0 Multiplicity = 1

                         Standard orientation:
 ---------------------------------------------------------------------
 Center     Atomic      Atomic             Coordinates (Angstroms)
 Number     Number       Type             X           Y           Z
 ---------------------------------------------------------------------
      1          6           0       -1.867824    0.068459   -0.329221
      2          6           0       -0.719999   -0.558735    0.478354
      3          6           0        0.669181   -0.103992    0.046692
      4          8           0        1.558331   -0.849134   -0.277455
      5          8           0        0.880658    1.243003    0.048008
      6          1           0       -2.827490   -0.343929   -0.006286
      7          1           0       -1.928009    1.155704   -0.201995
      8          1           0       -1.755543   -0.134633   -1.398069
      9          1           0       -0.841622   -0.324386    1.544666
     10          1           0       -0.731011   -1.645930    0.382746
     11          1           0        0.083612    1.707835    0.339574
 ---------------------------------------------------------------------

 SCF Done:  E(RB3LYP) =  -268.397548586     A.U. after    1 cycles

 The electronic state is 1-A.
 Alpha  occ. eigenvalues --  -19.19442 -19.13164 -10.31759 -10.21353 -10.20698
 Alpha  occ. eigenvalues --   -1.09667  -1.01536  -0.79558  -0.67057  -0.61043
 Alpha  occ. eigenvalues --   -0.51837  -0.48266  -0.45273  -0.42965  -0.41038
 Alpha  occ. eigenvalues --   -0.39312  -0.37403  -0.36499  -0.31365  -0.26711
 Alpha virt. eigenvalues --    0.00963   0.04325   0.11977   0.13004   0.14000
 Alpha virt. eigenvalues --    0.15272   0.17793   0.20242   0.22176   0.32573
 Alpha virt. eigenvalues --    0.35405   0.49597   0.50756   0.53669   0.55198

 Mulliken charges:
               1
     1  C   -0.332249
     2  C   -0.283236
     3  C    0.578579
     4  O   -0.434508
     5  O   -0.475394
     6  H    0.125595
     7  H    0.096047
     8  H    0.135473
     9  H    0.127570
    10  H    0.144415
    11  H    0.317708
 Sum of Mulliken charges =   0.00000

 Dipole moment (field-independent basis, Debye):
    X=             -4.0172    Y=              1.3102    Z=              1.2211  Tot=              4.3984
 Quadrupole moment (field-independent basis, Debye-Ang):
   XX=            -34.4765   YY=            -29.3017   ZZ=            -28.9893
   XY=              0.6399   XZ=              0.9126   YZ=              0.4140

  Exact polarizability:  41.794  -3.342  39.448  -1.904   1.277  29.967
 Approx polarizability:  55.860  -8.784  60.098  -5.050   4.235  41.935

                      1                      2                      3
                      A                      A                      A
 Frequencies --     23.0191               219.4856               261.0464
 Red. masses --      2.3799                 1.2468                 2.6458
 Frc consts  --      0.0007                 0.0354                 0.1062
 IR Inten    --      7.1075                 2.2216                 5.8226

                      4                      5                      6
                      A                      A                      A
 Frequencies --    438.0097               477.9696               573.8730
 Red. masses --      2.1887                 1.2758                 4.5468
 Frc consts  --      0.2474                 0.1717                 0.8822
 IR Inten    --     27.4159                81.2067                 5.9397

                      7                      8                      9
                      A                      A                      A
 Frequencies --    691.9544               804.8805               823.3850
 Red. masses --      3.0823                 1.3225                 3.7969
 Frc consts  --      0.8695                 0.5048                 1.5167
 IR Inten    --      1.3077                 0.9950                16.7763

                     10                     11                     12
                      A                      A                      A
 Frequencies --    993.4572              1065.2121              1094.7697
 Red. masses --      2.0534                 1.8956                 1.7625
 Frc consts  --      1.1941                 1.2673                 1.2446
 IR Inten    --     18.2568                14.3689                 1.2947

                     13                     14                     15
                      A                      A                      A
 Frequencies --   1203.3841              1278.6751              1322.7243
 Red. masses --      1.6438                 1.2828                 1.7165
 Frc consts  --      1.4025                 1.2358                 1.7694
 IR Inten    --      2.9424               103.0108               193.6961

                     16                     17                     18
                      A                      A                      A
 Frequencies --   1355.5477              1435.8556              1490.9847
 Red. masses --      1.7978                 1.2194                 1.0680
 Frc consts  --      1.9463                 1.4812                 1.3988
 IR Inten    --     80.7072                 1.3125                 2.3591

                     19                     20                     21
                      A                      A                      A
 Frequencies --   1512.2374              1520.5559              1881.1601
 Red. masses --      1.0623                 1.0418                10.1469
 Frc consts  --      1.4314                 1.4192                21.1560
 IR Inten    --      9.9817                12.3891               254.7051

                     22                     23                     24
                      A                      A                      A
 Frequencies --   3041.3269              3043.6598              3107.4018
 Red. masses --      1.0699                 1.0405                 1.0953
 Frc consts  --      5.8308                 5.6792                 6.2316
 IR Inten    --     13.4976                21.6470                19.5140

                     25                     26                     27
                      A                      A                      A
 Frequencies --   3134.6395              3139.4507              3801.7927
 Red. masses --      1.1014                 1.0978                 1.0658
 Frc consts  --      6.3764                 6.3747                 9.0758
 IR Inten    --     17.3048                17.5902                24.0596

 - Thermochemistry -
 -------------------
 Temperature   298.150 Kelvin.  Pressure   1.00000 Atm.
 Atom     1 has atomic number  6 and mass  12.00000

 Molecular mass:    74.03678 amu.
 Principal axes and moments of inertia in atomic units:
                           1         2         3
     Eigenvalues --   205.09297 464.37173 598.10052
           X            0.99991   0.00783   0.01108
           Y           -0.00766   0.99985  -0.01544
           Z           -0.01120   0.01535   0.99982
 This molecule is an asymmetric top.
 Rotational symmetry number  1.
 Rotational temperatures (Kelvin)      0.42231     0.18652     0.14481
 Rotational constants (GHZ):           8.79962     3.88641     3.01745
 Zero-point vibrational energy     237676.8 (Joules/Mol)
                                   56.80612 (Kcal/Mol)
 Warning -- explicit consideration of   6 degrees of freedom as
           vibrations may cause significant error
 Vibrational temperatures:     33.12   315.79   375.59   630.20   687.69
          (Kelvin)            825.67   995.57  1158.04  1184.67  1429.36
                             1532.60  1575.13  1731.40  1839.73  1903.10
                             1950.33  2065.87  2145.19  2175.77  2187.74
                             2706.57  4375.79  4379.14  4470.85  4510.04
                             4516.96  5469.92

 Zero-point correction=                           0.090526 (Hartree/Particle)
 Thermal correction to Energy=                    0.096370
 Thermal correction to Enthalpy=                  0.097314
 Thermal correction to Gibbs Free Energy=         0.060493
 Sum of electronic and zero-point Energies=           -268.307022
 Sum of electronic and thermal Energies=              -268.301179
 Sum of electronic and thermal Enthalpies=            -268.300235
 Sum of electronic and thermal Free Energies=         -268.337055

                     E (Thermal)             CV                S
                      KCal/Mol        Cal/Mol-Kelvin    Cal/Mol-Kelvin
 Total                   60.473             19.310             77.496
 Electronic               0.000              0.000              0.000
 Translational            0.889              2.981             38.822
 Rotational               0.889              2.981             25.547
 Vibrational             58.696             13.349             13.127
 Vibration     1          0.593              1.985              6.355
 Vibration     2          0.647              1.811              1.963
 Vibration     3          0.669              1.744              1.655
 Vibration     4          0.798              1.387              0.833
 Vibration     5          0.834              1.299              0.716
 Vibration     6          0.930              1.088              0.497

 Optimization completed.
    -- Stationary point found.
 Normal termination of Gaussian 09 at Thu Sep  8 15:17:45 2022.
