 Gaussian 09, Revision E.01,
 Gaussian 09:  ES64L-G09RevE.01 30-Nov-2015

 ----------------------------
 #P OPT Freq B3LYP/6-31G(d,p)
 ----------------------------

 --------
 Frag_950
 --------
 Symbolic Z-matrix:
 Charge =  0 Multiplicity = 1

 SCF Done:  E(RB3LYP) =  -319.904148359     A.U. after   14 cycles
 SCF Done:  E(RB3LYP) =  -319.904212907     A.U. after   10 cycles
 SCF Done:  E(RB3LYP) =  -319.904217397     A.U. after   10 cycles
 SCF Done:  E(RB3LYP) =  -319.904219167     A.U. after    8 cycles
 Optimization completed.
    -- Stationary point found.
 Normal termination of Gaussian 09 at Thu Sep  8 15:00:28 2022.

 ----------------------------------------------------------------------
 #P Geom=AllCheck Guess=TCheck SCRF=Check GenChk RB3LYP/6-31G(d,p) Freq
 ----------------------------------------------------------------------

 Structure from the checkpoint file:  "B3LYP6-31Gdp.Frag_950.chk"
 --------
 Frag_950
 --------
 Charge =  0 Multiplicity = 1

                         Standard orientation:
 ---------------------------------------------------------------------
 Center     Atomic      Atomic             Coordinates (Angstroms)
 Number     Number       Type             X           Y           Z
 ---------------------------------------------------------------------
      1          7           0        1.625745   -0.976809   -0.481038
      2          6           0        0.819684   -0.052971   -0.110207
      3          7           0        1.080829    1.080726    0.632982
      4          6           0       -0.670282   -0.270344   -0.381911
      5          7           0       -1.369266   -0.954929    0.698602
      6          8           0       -1.267881    1.003020   -0.576181
      7          1           0        2.586145   -0.768993   -0.189955
      8          1           0        2.044533    1.376726    0.699699
      9          1           0        0.404351    1.823691    0.507313
     10          1           0       -0.746185   -0.897937   -1.277799
     11          1           0       -1.061196   -0.581991    1.595276
     12          1           0       -1.129777   -1.943183    0.687136
     13          1           0       -2.212384    0.864501   -0.413334
 ---------------------------------------------------------------------

 SCF Done:  E(RB3LYP) =  -319.904219167     A.U. after    1 cycles

 The electronic state is 1-A.
 Alpha  occ. eigenvalues --  -19.15202 -14.34575 -14.32658 -14.29062 -10.26448
 Alpha  occ. eigenvalues --  -10.25028  -1.03651  -0.93715  -0.87823  -0.84162
 Alpha  occ. eigenvalues --   -0.68193  -0.57424  -0.53373  -0.51591  -0.49566
 Alpha  occ. eigenvalues --   -0.48950  -0.42041  -0.41422  -0.36174  -0.35543
 Alpha  occ. eigenvalues --   -0.28739  -0.27031  -0.24710  -0.23731
 Alpha virt. eigenvalues --    0.03368   0.07298   0.09893   0.11201   0.13531
 Alpha virt. eigenvalues --    0.14549   0.15891   0.18953   0.22330   0.27233
 Alpha virt. eigenvalues --    0.27706   0.32009   0.44715   0.56422   0.56743

 Mulliken charges:
               1
     1  N   -0.577179
     2  C    0.417862
     3  N   -0.617573
     4  C    0.254342
     5  N   -0.600990
     6  O   -0.552285
     7  H    0.202477
     8  H    0.255803
     9  H    0.284553
    10  H    0.113767
    11  H    0.248009
    12  H    0.256903
    13  H    0.314310
 Sum of Mulliken charges =  -0.00000

 Dipole moment (field-independent basis, Debye):
    X=              0.1357    Y=              1.4802    Z=              1.6918  Tot=              2.2521
 Quadrupole moment (field-independent basis, Debye-Ang):
   XX=            -31.5856   YY=            -35.0260   ZZ=            -37.1383
   XY=              3.9646   XZ=              2.4131   YZ=             -0.4685

  Exact polarizability:  52.552  -3.147  48.059  -0.874   5.638  34.824
 Approx polarizability:  69.194  -9.188  74.293  -3.553  12.197  51.407

                      1                      2                      3
                      A                      A                      A
 Frequencies --     75.7201               251.3771               272.4554
 Red. masses --      5.0548                 3.1113                 1.2187
 Frc consts  --      0.0171                 0.1158                 0.0533
 IR Inten    --      4.4398                13.0913                31.8712

                      4                      5                      6
                      A                      A                      A
 Frequencies --    326.8878               377.9768               469.8219
 Red. masses --      2.8214                 1.9265                 1.6374
 Frc consts  --      0.1776                 0.1622                 0.2129
 IR Inten    --     21.3252                51.4853                17.6592

                      7                      8                      9
                      A                      A                      A
 Frequencies --    493.7498               527.9725               589.9470
 Red. masses --      1.2107                 1.7808                 1.9382
 Frc consts  --      0.1739                 0.2925                 0.3974
 IR Inten    --     50.9139                44.0897               181.7432

                     10                     11                     12
                      A                      A                      A
 Frequencies --    623.7060               720.8204               837.6945
 Red. masses --      2.0562                 3.7981                 2.2200
 Frc consts  --      0.4713                 1.1627                 0.9179
 IR Inten    --     74.5818                 2.5074                73.8771

                     13                     14                     15
                      A                      A                      A
 Frequencies --    868.6021               915.5197              1008.8547
 Red. masses --      1.3904                 1.7330                 2.9559
 Frc consts  --      0.6181                 0.8558                 1.7726
 IR Inten    --     45.9041               174.1323                75.0969

                     16                     17                     18
                      A                      A                      A
 Frequencies --   1102.4142              1127.5327              1154.4895
 Red. masses --      1.7199                 1.8128                 1.7478
 Frc consts  --      1.2315                 1.3579                 1.3726
 IR Inten    --      2.2250               112.5128                13.9589

                     19                     20                     21
                      A                      A                      A
 Frequencies --   1224.2212              1281.2687              1383.9240
 Red. masses --      1.3430                 1.2604                 1.4605
 Frc consts  --      1.1859                 1.2191                 1.6480
 IR Inten    --     74.0575                74.5790                30.0974

                     22                     23                     24
                      A                      A                      A
 Frequencies --   1427.6748              1451.6687              1625.3565
 Red. masses --      1.2965                 2.3600                 1.2014
 Frc consts  --      1.5570                 2.9302                 1.8700
 IR Inten    --     40.5493                47.2189                92.0207

                     25                     26                     27
                      A                      A                      A
 Frequencies --   1662.5380              1745.6214              3062.0273
 Red. masses --      1.1125                 6.7997                 1.0868
 Frc consts  --      1.8117                12.2079                 6.0034
 IR Inten    --     35.2208               184.8796                32.7546

                     28                     29                     30
                      A                      A                      A
 Frequencies --   3436.7349              3489.1614              3556.8863
 Red. masses --      1.0746                 1.0506                 1.0463
 Frc consts  --      7.4779                 7.5356                 7.7994
 IR Inten    --     13.5339                 0.7170                32.3922

                     31                     32                     33
                      A                      A                      A
 Frequencies --   3584.8430              3681.1241              3792.0775
 Red. masses --      1.0918                 1.1005                 1.0652
 Frc consts  --      8.2665                 8.7860                 9.0247
 IR Inten    --      3.3888                32.2045                34.7908

 - Thermochemistry -
 -------------------
 Temperature   298.150 Kelvin.  Pressure   1.00000 Atm.
 Atom     1 has atomic number  7 and mass  14.00307

 Molecular mass:    89.05891 amu.
 Principal axes and moments of inertia in atomic units:
                           1         2         3
     Eigenvalues --   355.04443 594.47083 745.96472
           X            0.99892   0.04618   0.00535
           Y           -0.04625   0.99884   0.01331
           Z           -0.00473  -0.01354   0.99990
 This molecule is an asymmetric top.
 Rotational symmetry number  1.
 Rotational temperatures (Kelvin)      0.24395     0.14570     0.11611
 Rotational constants (GHZ):           5.08314     3.03588     2.41934
 Zero-point vibrational energy     288005.0 (Joules/Mol)
                                   68.83484 (Kcal/Mol)
 Warning -- explicit consideration of   9 degrees of freedom as
           vibrations may cause significant error
 Vibrational temperatures:    108.94   361.68   392.00   470.32   543.82
          (Kelvin)            675.97   710.39   759.63   848.80   897.37
                             1037.10  1205.25  1249.72  1317.23  1451.52
                             1586.13  1622.27  1661.05  1761.38  1843.46
                             1991.16  2054.10  2088.62  2338.52  2392.02
                             2511.56  4405.57  4944.69  5020.12  5117.56
                             5157.78  5296.31  5455.95

 Zero-point correction=                           0.109695 (Hartree/Particle)
 Thermal correction to Energy=                    0.116405
 Thermal correction to Enthalpy=                  0.117349
 Thermal correction to Gibbs Free Energy=         0.079540
 Sum of electronic and zero-point Energies=           -319.794524
 Sum of electronic and thermal Energies=              -319.787814
 Sum of electronic and thermal Enthalpies=            -319.786870
 Sum of electronic and thermal Free Energies=         -319.824679

                     E (Thermal)             CV                S
                      KCal/Mol        Cal/Mol-Kelvin    Cal/Mol-Kelvin
 Total                   73.045             24.663             79.576
 Electronic               0.000              0.000              0.000
 Translational            0.889              2.981             39.373
 Rotational               0.889              2.981             26.557
 Vibrational             71.268             18.701             13.646
 Vibration     1          0.599              1.965              3.999
 Vibration     2          0.663              1.760              1.721
 Vibration     3          0.675              1.724              1.581
 Vibration     4          0.711              1.622              1.275
 Vibration     5          0.748              1.517              1.047
 Vibration     6          0.827              1.317              0.738
 Vibration     7          0.849              1.264              0.674
 Vibration     8          0.883              1.188              0.592
 Vibration     9          0.947              1.053              0.467

 Normal termination of Gaussian 09 at Thu Sep  8 15:00:39 2022.
