 Gaussian 09, Revision E.01,
 Gaussian 09:  ES64L-G09RevE.01 30-Nov-2015

 ----------------------------
 #P OPT Freq B3LYP/6-31G(d,p)
 ----------------------------

 ---------
 Frag_1085
 ---------
 Symbolic Z-matrix:
 Charge =  0 Multiplicity = 1

 SCF Done:  E(RB3LYP) =  -304.985006805     A.U. after   13 cycles
 SCF Done:  E(RB3LYP) =  -304.985060098     A.U. after   10 cycles
 SCF Done:  E(RB3LYP) =  -304.985068379     A.U. after   10 cycles
 SCF Done:  E(RB3LYP) =  -304.985072233     A.U. after    8 cycles
 SCF Done:  E(RB3LYP) =  -304.985072439     A.U. after    7 cycles
 SCF Done:  E(RB3LYP) =  -304.985072524     A.U. after    6 cycles
 Optimization completed.
    -- Stationary point found.
 Normal termination of Gaussian 09 at Thu Sep  8 14:49:10 2022.

 ----------------------------------------------------------------------
 #P Geom=AllCheck Guess=TCheck SCRF=Check GenChk RB3LYP/6-31G(d,p) Freq
 ----------------------------------------------------------------------

 Structure from the checkpoint file:  "B3LYP6-31Gdp.Frag_1085.chk"
 ---------
 Frag_1085
 ---------
 Charge =  0 Multiplicity = 1

                         Standard orientation:
 ---------------------------------------------------------------------
 Center     Atomic      Atomic             Coordinates (Angstroms)
 Number     Number       Type             X           Y           Z
 ---------------------------------------------------------------------
      1          6           0       -0.884556    1.241358    0.660920
      2          7           0       -0.621670    0.262902   -0.401556
      3          6           0       -1.689798   -0.725027   -0.508389
      4          7           0        0.619115   -0.393995   -0.345519
      5          6           0        1.728815    0.513980   -0.623094
      6          8           0        0.877895   -0.899349    1.019726
      7          1           0       -0.095729    1.995592    0.686988
      8          1           0       -1.824067    1.750711    0.429533
      9          1           0       -0.962605    0.777945    1.653926
     10          1           0       -1.832186   -1.304184    0.419295
     11          1           0       -1.451538   -1.412490   -1.322566
     12          1           0       -2.629096   -0.213779   -0.739317
     13          1           0        1.858005    1.298167    0.135048
     14          1           0        2.644842   -0.078396   -0.660989
     15          1           0        1.548931    0.972253   -1.597623
     16          1           0        0.811408   -1.855240    0.890802
 ---------------------------------------------------------------------

 SCF Done:  E(RB3LYP) =  -304.985072524     A.U. after    1 cycles

 The electronic state is 1-A.
 Alpha  occ. eigenvalues --  -19.15652 -14.39320 -14.35098 -10.19937 -10.19883
 Alpha  occ. eigenvalues --  -10.19720  -1.05124  -0.93235  -0.80089  -0.70510
 Alpha  occ. eigenvalues --   -0.66989  -0.58110  -0.50977  -0.48447  -0.46728
 Alpha  occ. eigenvalues --   -0.43725  -0.41265  -0.40071  -0.39020  -0.38177
 Alpha  occ. eigenvalues --   -0.37156  -0.36311  -0.28694  -0.23624  -0.22178
 Alpha virt. eigenvalues --    0.07242   0.09745   0.12575   0.13651   0.14564
 Alpha virt. eigenvalues --    0.15571   0.16403   0.17680   0.18327   0.18779
 Alpha virt. eigenvalues --    0.19638   0.21173   0.24004   0.25096   0.27578

 Mulliken charges:
               1
     1  C   -0.164130
     2  N   -0.267115
     3  C   -0.152098
     4  N   -0.132703
     5  C   -0.125463
     6  O   -0.454131
     7  H    0.109324
     8  H    0.107678
     9  H    0.112699
    10  H    0.086717
    11  H    0.117601
    12  H    0.106364
    13  H    0.098429
    14  H    0.114517
    15  H    0.121479
    16  H    0.320834
 Sum of Mulliken charges =  -0.00000

 Dipole moment (field-independent basis, Debye):
    X=             -0.4215    Y=             -0.2740    Z=             -0.0557  Tot=              0.5059
 Quadrupole moment (field-independent basis, Debye-Ang):
   XX=            -35.6403   YY=            -33.9168   ZZ=            -40.4666
   XY=              0.2611   XZ=             -1.4070   YZ=             -0.3043

  Exact polarizability:  58.825  -0.463  52.968  -0.034  -1.028  47.125
 Approx polarizability:  73.398  -2.670  72.564   2.388  -3.798  69.143

                      1                      2                      3
                      A                      A                      A
 Frequencies --    113.1117               212.0356               223.4464
 Red. masses --      2.3304                 1.1079                 1.2556
 Frc consts  --      0.0176                 0.0293                 0.0369
 IR Inten    --      0.9532                 1.9189                 4.2787

                      4                      5                      6
                      A                      A                      A
 Frequencies --    246.1230               280.4875               314.6548
 Red. masses --      1.1343                 2.0756                 1.5709
 Frc consts  --      0.0405                 0.0962                 0.0916
 IR Inten    --      2.3276                 8.9353                50.4827

                      7                      8                      9
                      A                      A                      A
 Frequencies --    325.6967               381.3107               445.1578
 Red. masses --      1.7543                 2.1577                 2.3719
 Frc consts  --      0.1096                 0.1848                 0.2769
 IR Inten    --     36.2608                 4.5117                 1.1248

                     10                     11                     12
                      A                      A                      A
 Frequencies --    541.5408               594.6904               746.7205
 Red. masses --      3.1699                 3.9261                 6.7775
 Frc consts  --      0.5477                 0.8181                 2.2266
 IR Inten    --      9.8974                11.7567                52.6032

                     13                     14                     15
                      A                      A                      A
 Frequencies --    773.6430               960.4802              1040.1743
 Red. masses --      4.0905                 3.0224                 1.6422
 Frc consts  --      1.4425                 1.6428                 1.0469
 IR Inten    --     45.0723                29.8118                13.4846

                     16                     17                     18
                      A                      A                      A
 Frequencies --   1109.9082              1122.3177              1149.3987
 Red. masses --      1.2311                 2.3744                 1.3541
 Frc consts  --      0.8936                 1.7621                 1.0540
 IR Inten    --      2.6081                 9.2667                10.6029

                     19                     20                     21
                      A                      A                      A
 Frequencies --   1176.0898              1208.9006              1253.9796
 Red. masses --      1.5573                 1.8894                 2.6559
 Frc consts  --      1.2691                 1.6269                 2.4606
 IR Inten    --      7.7789                 4.6917                11.1512

                     22                     23                     24
                      A                      A                      A
 Frequencies --   1285.2344              1327.3530              1434.2487
 Red. masses --      2.0044                 1.5371                 1.1712
 Frc consts  --      1.9507                 1.5957                 1.4195
 IR Inten    --     15.6536                29.2345                 0.1198

                     25                     26                     27
                      A                      A                      A
 Frequencies --   1445.5611              1464.1152              1487.3906
 Red. masses --      1.1833                 1.1740                 1.0524
 Frc consts  --      1.4568                 1.4828                 1.3718
 IR Inten    --      0.5573                 0.5932                 5.2552

                     28                     29                     30
                      A                      A                      A
 Frequencies --   1495.3186              1505.2902              1515.3475
 Red. masses --      1.0521                 1.0529                 1.0488
 Frc consts  --      1.3860                 1.4057                 1.4189
 IR Inten    --      8.8871                 9.3526                 3.0531

                     31                     32                     33
                      A                      A                      A
 Frequencies --   1524.5559              1530.3444              2979.0370
 Red. masses --      1.0514                 1.0490                 1.0549
 Frc consts  --      1.4399                 1.4475                 5.5157
 IR Inten    --      3.1995                 6.8054                63.1184

                     34                     35                     36
                      A                      A                      A
 Frequencies --   3021.3108              3026.5722              3090.1679
 Red. masses --      1.0440                 1.0468                 1.0795
 Frc consts  --      5.6147                 5.6495                 6.0737
 IR Inten    --     31.8951                48.7338                26.7554

                     37                     38                     39
                      A                      A                      A
 Frequencies --   3105.8163              3115.4113              3142.0265
 Red. masses --      1.0916                 1.0872                 1.1014
 Frc consts  --      6.2042                 6.2173                 6.4064
 IR Inten    --     31.0532                28.4760                24.0390

                     40                     41                     42
                      A                      A                      A
 Frequencies --   3143.8632              3157.8821              3810.7753
 Red. masses --      1.1029                 1.1055                 1.0681
 Frc consts  --      6.4229                 6.4952                 9.1387
 IR Inten    --     22.4841                17.6493                30.2418

 - Thermochemistry -
 -------------------
 Temperature   298.150 Kelvin.  Pressure   1.00000 Atm.
 Atom     1 has atomic number  6 and mass  12.00000

 Molecular mass:    90.07931 amu.
 Principal axes and moments of inertia in atomic units:
                           1         2         3
     Eigenvalues --   373.95221 629.31036 695.75939
           X            0.99865   0.04538  -0.02517
           Y           -0.04274   0.99435   0.09714
           Z            0.02944  -0.09593   0.99495
 This molecule is an asymmetric top.
 Rotational symmetry number  1.
 Rotational temperatures (Kelvin)      0.23162     0.13763     0.12449
 Rotational constants (GHZ):           4.82613     2.86781     2.59392
 Zero-point vibrational energy     369810.5 (Joules/Mol)
                                   88.38683 (Kcal/Mol)
 Warning -- explicit consideration of  11 degrees of freedom as
           vibrations may cause significant error
 Vibrational temperatures:    162.74   305.07   321.49   354.12   403.56
          (Kelvin)            452.72   468.60   548.62   640.48   779.16
                              855.63  1074.36  1113.10  1381.92  1496.58
                             1596.91  1614.76  1653.73  1692.13  1739.34
                             1804.19  1849.16  1909.76  2063.56  2079.84
                             2106.53  2140.02  2151.43  2165.77  2180.24
                             2193.49  2201.82  4286.16  4346.99  4354.56
                             4446.06  4468.57  4482.38  4520.67  4523.31
                             4543.48  5482.85

 Zero-point correction=                           0.140853 (Hartree/Particle)
 Thermal correction to Energy=                    0.148585
 Thermal correction to Enthalpy=                  0.149529
 Thermal correction to Gibbs Free Energy=         0.110058
 Sum of electronic and zero-point Energies=           -304.844219
 Sum of electronic and thermal Energies=              -304.836487
 Sum of electronic and thermal Enthalpies=            -304.835543
 Sum of electronic and thermal Free Energies=         -304.875014

                     E (Thermal)             CV                S
                      KCal/Mol        Cal/Mol-Kelvin    Cal/Mol-Kelvin
 Total                   93.239             27.917             83.074
 Electronic               0.000              0.000              0.000
 Translational            0.889              2.981             39.407
 Rotational               0.889              2.981             26.596
 Vibrational             91.461             21.956             17.071
 Vibration     1          0.607              1.939              3.215
 Vibration     2          0.643              1.823              2.026
 Vibration     3          0.649              1.805              1.931
 Vibration     4          0.661              1.769              1.758
 Vibration     5          0.680              1.710              1.531
 Vibration     6          0.702              1.646              1.338
 Vibration     7          0.710              1.624              1.281
 Vibration     8          0.751              1.510              1.034
 Vibration     9          0.805              1.372              0.811
 Vibration    10          0.897              1.158              0.562
 Vibration    11          0.952              1.043              0.459

 Optimization completed.
    -- Stationary point found.
 Normal termination of Gaussian 09 at Thu Sep  8 14:49:24 2022.
