 Gaussian 09, Revision E.01,
 Gaussian 09:  ES64L-G09RevE.01 30-Nov-2015

 ----------------------------
 #P OPT Freq B3LYP/6-31G(d,p)
 ----------------------------

 --------
 Frag_749
 --------
 Symbolic Z-matrix:
 Charge =  0 Multiplicity = 1

 SCF Done:  E(RB3LYP) =  -154.740299543     A.U. after   13 cycles
 SCF Done:  E(RB3LYP) =  -154.740412086     A.U. after   11 cycles
 SCF Done:  E(RB3LYP) =  -154.739827651     A.U. after   13 cycles
 SCF Done:  E(RB3LYP) =  -154.740422646     A.U. after    8 cycles
 SCF Done:  E(RB3LYP) =  -154.740426486     A.U. after    8 cycles
 SCF Done:  E(RB3LYP) =  -154.740426152     A.U. after    8 cycles
 SCF Done:  E(RB3LYP) =  -154.740426652     A.U. after    8 cycles
 Optimization completed.
    -- Stationary point found.
 Normal termination of Gaussian 09 at Thu Sep  8 15:18:01 2022.

 ----------------------------------------------------------------------
 #P Geom=AllCheck Guess=TCheck SCRF=Check GenChk RB3LYP/6-31G(d,p) Freq
 ----------------------------------------------------------------------

 Structure from the checkpoint file:  "B3LYP6-31Gdp.Frag_749.chk"
 --------
 Frag_749
 --------
 Charge =  0 Multiplicity = 1

                         Standard orientation:
 ---------------------------------------------------------------------
 Center     Atomic      Atomic             Coordinates (Angstroms)
 Number     Number       Type             X           Y           Z
 ---------------------------------------------------------------------
      1          6           0       -1.912966   -0.171187    0.000002
      2          6           0       -0.735363    0.110902   -0.000024
      3          6           0        0.637477    0.490269    0.000002
      4          6           0        1.663143   -0.373033    0.000004
      5          1           0       -2.944249   -0.438052    0.000064
      6          1           0        0.837557    1.561046    0.000019
      7          1           0        2.688329   -0.018328    0.000021
      8          1           0        1.504614   -1.446369   -0.000013
 ---------------------------------------------------------------------

 SCF Done:  E(RB3LYP) =  -154.740426652     A.U. after    1 cycles

 The electronic state is 1-A.
 Alpha  occ. eigenvalues --  -10.21464 -10.19804 -10.19128 -10.18533  -0.80165
 Alpha  occ. eigenvalues --   -0.72813  -0.61783  -0.52771  -0.48911  -0.44542
 Alpha  occ. eigenvalues --   -0.38159  -0.33250  -0.27200  -0.24160
 Alpha virt. eigenvalues --   -0.02677   0.04744   0.12413   0.12858   0.13783
 Alpha virt. eigenvalues --    0.14261   0.18634   0.30027   0.34648   0.42184
 Alpha virt. eigenvalues --    0.45913   0.51751   0.52714   0.57544   0.58850

 Mulliken charges:
               1
     1  C   -0.421812
     2  C    0.277784
     3  C   -0.153793
     4  C   -0.206418
     5  H    0.160378
     6  H    0.119482
     7  H    0.110207
     8  H    0.114171
 Sum of Mulliken charges =  -0.00000

 Dipole moment (field-independent basis, Debye):
    X=              0.3423    Y=              0.0065    Z=              0.0001  Tot=              0.3424
 Quadrupole moment (field-independent basis, Debye-Ang):
   XX=            -17.9130   YY=            -22.4406   ZZ=            -25.8011
   XY=              1.1285   XZ=             -0.0002   YZ=              0.0000

  Exact polarizability:  71.443  -0.665  30.253  -0.000   0.000  15.007
 Approx polarizability: 123.951  -2.234  43.742  -0.000  -0.000  20.412

                      1                      2                      3
                      A                      A                      A
 Frequencies --    228.3667               338.3703               557.7372
 Red. masses --      3.1256                 2.3364                 3.6970
 Frc consts  --      0.0960                 0.1576                 0.6776
 IR Inten    --      1.5916                 4.0717                 1.6300

                      4                      5                      6
                      A                      A                      A
 Frequencies --    601.3133               638.8058               713.1347
 Red. masses --      1.2757                 1.2161                 1.9326
 Frc consts  --      0.2718                 0.2924                 0.5791
 IR Inten    --     48.7335                45.9157                 1.4360

                      7                      8                      9
                      A                      A                      A
 Frequencies --    897.8919               947.0368              1012.2472
 Red. masses --      2.5352                 1.3619                 1.0937
 Frc consts  --      1.2042                 0.7196                 0.6603
 IR Inten    --      2.2134                34.4086                16.3397

                     10                     11                     12
                      A                      A                      A
 Frequencies --   1115.3541              1326.0959              1453.2955
 Red. masses --      1.6760                 1.2846                 1.2207
 Frc consts  --      1.2284                 1.3309                 1.5191
 IR Inten    --      4.8050                 0.7245                 1.8597

                     13                     14                     15
                      A                      A                      A
 Frequencies --   1686.8669              2222.8951              3154.6462
 Red. masses --      4.1269                 6.1451                 1.0825
 Frc consts  --      6.9189                17.8904                 6.3471
 IR Inten    --      6.7766                 0.1393                 8.1566

                     16                     17                     18
                      A                      A                      A
 Frequencies --   3170.9023              3262.4934              3490.0767
 Red. masses --      1.0654                 1.1178                 1.1568
 Frc consts  --      6.3115                 7.0098                 8.3018
 IR Inten    --      3.6149                 8.7274                66.2472

 - Thermochemistry -
 -------------------
 Temperature   298.150 Kelvin.  Pressure   1.00000 Atm.
 Atom     1 has atomic number  6 and mass  12.00000

 Molecular mass:    52.03130 amu.
 Principal axes and moments of inertia in atomic units:
                           1         2         3
     Eigenvalues --    35.02492 383.52887 418.55379
           X            0.99999   0.00364  -0.00000
           Y           -0.00364   0.99999   0.00000
           Z            0.00000  -0.00000   1.00000
 This molecule is an asymmetric top.
 Rotational symmetry number  1.
 Rotational temperatures (Kelvin)      2.47292     0.22583     0.20694
 Rotational constants (GHZ):          51.52735     4.70562     4.31185
 Zero-point vibrational energy     160404.4 (Joules/Mol)
                                   38.33758 (Kcal/Mol)
 Warning -- explicit consideration of   4 degrees of freedom as
           vibrations may cause significant error
 Vibrational temperatures:    328.57   486.84   802.46   865.15   919.10
          (Kelvin)           1026.04  1291.86  1362.57  1456.40  1604.74
                             1907.95  2090.97  2427.02  3198.25  4538.83
                             4562.22  4693.99  5021.44

 Zero-point correction=                           0.061095 (Hartree/Particle)
 Thermal correction to Energy=                    0.065587
 Thermal correction to Enthalpy=                  0.066532
 Thermal correction to Gibbs Free Energy=         0.035063
 Sum of electronic and zero-point Energies=           -154.679332
 Sum of electronic and thermal Energies=              -154.674839
 Sum of electronic and thermal Enthalpies=            -154.673895
 Sum of electronic and thermal Free Energies=         -154.705364

                     E (Thermal)             CV                S
                      KCal/Mol        Cal/Mol-Kelvin    Cal/Mol-Kelvin
 Total                   41.157             15.106             66.231
 Electronic               0.000              0.000              0.000
 Translational            0.889              2.981             37.771
 Rotational               0.889              2.981             23.246
 Vibrational             39.379              9.144              5.215
 Vibration     1          0.651              1.798              1.892
 Vibration     2          0.719              1.599              1.220
 Vibration     3          0.913              1.123              0.528
 Vibration     4          0.960              1.029              0.447

 Optimization completed.
    -- Stationary point found.
 Normal termination of Gaussian 09 at Thu Sep  8 15:18:07 2022.
