 Gaussian 09, Revision E.01,
 Gaussian 09:  ES64L-G09RevE.01 30-Nov-2015

 ----------------------------
 #P OPT Freq B3LYP/6-31G(d,p)
 ----------------------------

 --------
 Frag_961
 --------
 Symbolic Z-matrix:
 Charge =  0 Multiplicity = 1

 SCF Done:  E(RB3LYP) =  -267.946537457     A.U. after   14 cycles
 SCF Done:  E(RB3LYP) =  -267.946583575     A.U. after    9 cycles
 SCF Done:  E(RB3LYP) =  -267.946585568     A.U. after    7 cycles
 Optimization completed.
    -- Stationary point found.
 Normal termination of Gaussian 09 at Thu Sep  8 15:15:04 2022.

 ----------------------------------------------------------------------
 #P Geom=AllCheck Guess=TCheck SCRF=Check GenChk RB3LYP/6-31G(d,p) Freq
 ----------------------------------------------------------------------

 Structure from the checkpoint file:  "B3LYP6-31Gdp.Frag_961.chk"
 --------
 Frag_961
 --------
 Charge =  0 Multiplicity = 1

                         Standard orientation:
 ---------------------------------------------------------------------
 Center     Atomic      Atomic             Coordinates (Angstroms)
 Number     Number       Type             X           Y           Z
 ---------------------------------------------------------------------
      1          6           0       -1.117904   -1.261730   -0.408006
      2          6           0       -0.351066    0.000001    0.033439
      3          6           0       -1.117951    1.261655   -0.408145
      4          7           0       -0.260293    0.000081    1.495244
      5          6           0        1.011006   -0.000013   -0.656730
      6          7           0        2.094740    0.000009    0.009829
      7          1           0       -2.112572   -1.262477    0.045757
      8          1           0       -0.593892   -2.168674   -0.087026
      9          1           0       -1.228472   -1.303238   -1.496666
     10          1           0       -2.112614    1.262421    0.045629
     11          1           0       -0.593965    2.168655   -0.087278
     12          1           0       -1.228533    1.303030   -1.496809
     13          1           0        0.303672   -0.801281    1.777222
     14          1           0        0.303563    0.801548    1.777142
     15          1           0        0.973513   -0.000070   -1.758654
     16          1           0        2.903667   -0.000023   -0.618175
 ---------------------------------------------------------------------

 SCF Done:  E(RB3LYP) =  -267.946585568     A.U. after    1 cycles

 The electronic state is 1-A.
 Alpha  occ. eigenvalues --  -14.32310 -14.30189 -10.22985 -10.22317 -10.17817
 Alpha  occ. eigenvalues --  -10.17817  -0.91507  -0.86851  -0.75679  -0.68989
 Alpha  occ. eigenvalues --   -0.62834  -0.53756  -0.50212  -0.47265  -0.45583
 Alpha  occ. eigenvalues --   -0.43303  -0.39706  -0.37903  -0.36789  -0.34885
 Alpha  occ. eigenvalues --   -0.34636  -0.30740  -0.26586  -0.23485
 Alpha virt. eigenvalues --   -0.00056   0.07755   0.10847   0.12631   0.14186
 Alpha virt. eigenvalues --    0.14947   0.15778   0.16523   0.19350   0.20700
 Alpha virt. eigenvalues --    0.21873   0.21994   0.24355   0.24810   0.28926

 Mulliken charges:
               1
     1  C   -0.303007
     2  C    0.107158
     3  C   -0.303011
     4  N   -0.577503
     5  C    0.137887
     6  N   -0.492515
     7  H    0.123214
     8  H    0.104500
     9  H    0.096487
    10  H    0.123214
    11  H    0.104499
    12  H    0.096489
    13  H    0.240081
    14  H    0.240078
    15  H    0.070956
    16  H    0.231474
 Sum of Mulliken charges =  -0.00000

 Dipole moment (field-independent basis, Debye):
    X=              0.4282    Y=             -0.0000    Z=             -2.0624  Tot=              2.1064
 Quadrupole moment (field-independent basis, Debye-Ang):
   XX=            -38.5020   YY=            -37.0964   ZZ=            -38.3786
   XY=             -0.0001   XZ=             -0.7437   YZ=              0.0001

  Exact polarizability:  65.054   0.000  48.885   2.555   0.000  55.149
 Approx polarizability:  90.447   0.000  65.971   7.974   0.001  80.879

                      1                      2                      3
                      A                      A                      A
 Frequencies --     72.6988               198.1068               252.5217
 Red. masses --      2.5282                 1.1372                 1.0453
 Frc consts  --      0.0079                 0.0263                 0.0393
 IR Inten    --     20.8624                20.1095                 8.2778

                      4                      5                      6
                      A                      A                      A
 Frequencies --    260.9847               298.4316               326.3269
 Red. masses --      1.2116                 2.1557                 2.0107
 Frc consts  --      0.0486                 0.1131                 0.1262
 IR Inten    --      1.4371                 5.6195                15.6166

                      7                      8                      9
                      A                      A                      A
 Frequencies --    349.7226               411.7335               435.9162
 Red. masses --      2.5640                 2.6058                 2.2631
 Frc consts  --      0.1848                 0.2603                 0.2534
 IR Inten    --      2.9357                 4.0173                 0.5763

                     10                     11                     12
                      A                      A                      A
 Frequencies --    611.1107               768.2456               804.4592
 Red. masses --      3.7156                 3.2116                 1.5736
 Frc consts  --      0.8176                 1.1168                 0.6000
 IR Inten    --     13.2695                20.7613                46.0813

                     13                     14                     15
                      A                      A                      A
 Frequencies --    883.8673               932.7963               946.9820
 Red. masses --      2.0214                 1.7742                 1.5149
 Frc consts  --      0.9304                 0.9096                 0.8004
 IR Inten    --      8.7225               122.2586                 0.0006

                     16                     17                     18
                      A                      A                      A
 Frequencies --   1015.2886              1039.9879              1084.5201
 Red. masses --      1.2746                 1.3835                 1.6124
 Frc consts  --      0.7741                 0.8816                 1.1174
 IR Inten    --      0.0292                46.2385                13.8482

                     19                     20                     21
                      A                      A                      A
 Frequencies --   1123.6591              1185.2448              1241.4547
 Red. masses --      1.2632                 1.2920                 2.3714
 Frc consts  --      0.9397                 1.0693                 2.1533
 IR Inten    --      7.9077                52.9963                27.4988

                     22                     23                     24
                      A                      A                      A
 Frequencies --   1310.6443              1350.0259              1406.6125
 Red. masses --      2.1269                 1.6806                 1.2745
 Frc consts  --      2.1526                 1.8046                 1.4858
 IR Inten    --      2.9527                 3.2548                 6.2704

                     25                     26                     27
                      A                      A                      A
 Frequencies --   1416.0575              1435.9926              1496.3669
 Red. masses --      1.3254                 1.3605                 1.0513
 Frc consts  --      1.5659                 1.6530                 1.3869
 IR Inten    --     27.5390                 6.8184                 0.8488

                     28                     29                     30
                      A                      A                      A
 Frequencies --   1502.5718              1510.9116              1523.1914
 Red. masses --      1.0489                 1.0590                 1.0555
 Frc consts  --      1.3952                 1.4244                 1.4428
 IR Inten    --      0.6045                 1.2917                 7.2308

                     31                     32                     33
                      A                      A                      A
 Frequencies --   1682.7412              1731.0713              2995.7621
 Red. masses --      1.1012                 6.6698                 1.0864
 Frc consts  --      1.8372                11.7759                 5.7444
 IR Inten    --     18.0532                63.9605                57.9722

                     34                     35                     36
                      A                      A                      A
 Frequencies --   3041.5325              3046.1480              3111.7606
 Red. masses --      1.0348                 1.0363                 1.1027
 Frc consts  --      5.6400                 5.6654                 6.2908
 IR Inten    --     30.9954                12.4340                14.6773

                     37                     38                     39
                      A                      A                      A
 Frequencies --   3114.3560              3131.3044              3135.4575
 Red. masses --      1.1018                 1.1030                 1.1021
 Frc consts  --      6.2962                 6.3719                 6.3838
 IR Inten    --     43.3167                 2.7536                34.3855

                     40                     41                     42
                      A                      A                      A
 Frequencies --   3447.2982              3474.8213              3544.0650
 Red. masses --      1.0761                 1.0508                 1.0895
 Frc consts  --      7.5347                 7.4751                 8.0623
 IR Inten    --      4.3839                 0.0932                 0.0051

 - Thermochemistry -
 -------------------
 Temperature   298.150 Kelvin.  Pressure   1.00000 Atm.
 Atom     1 has atomic number  6 and mass  12.00000

 Molecular mass:    86.08440 amu.
 Principal axes and moments of inertia in atomic units:
                           1         2         3
     Eigenvalues --   394.42608 654.37710 657.15801
           X            0.99986   0.00000   0.01667
           Y            0.00000   1.00000  -0.00004
           Z           -0.01667   0.00004   0.99986
 This molecule is an asymmetric top.
 Rotational symmetry number  1.
 Rotational temperatures (Kelvin)      0.21959     0.13236     0.13180
 Rotational constants (GHZ):           4.57561     2.75795     2.74628
 Zero-point vibrational energy     374746.7 (Joules/Mol)
                                   89.56660 (Kcal/Mol)
 Warning -- explicit consideration of  10 degrees of freedom as
           vibrations may cause significant error
 Vibrational temperatures:    104.60   285.03   363.32   375.50   429.38
          (Kelvin)            469.51   503.17   592.39   627.19   879.25
                             1105.33  1157.44  1271.69  1342.08  1362.49
                             1460.77  1496.31  1560.38  1616.69  1705.30
                             1786.17  1885.72  1942.38  2023.80  2037.39
                             2066.07  2152.94  2161.86  2173.86  2191.53
                             2421.09  2490.62  4310.23  4376.08  4382.72
                             4477.12  4480.86  4505.24  4511.22  4959.89
                             4999.49  5099.11

 Zero-point correction=                           0.142733 (Hartree/Particle)
 Thermal correction to Energy=                    0.150299
 Thermal correction to Enthalpy=                  0.151243
 Thermal correction to Gibbs Free Energy=         0.111850
 Sum of electronic and zero-point Energies=           -267.803852
 Sum of electronic and thermal Energies=              -267.796287
 Sum of electronic and thermal Enthalpies=            -267.795343
 Sum of electronic and thermal Free Energies=         -267.834736

                     E (Thermal)             CV                S
                      KCal/Mol        Cal/Mol-Kelvin    Cal/Mol-Kelvin
 Total                   94.314             27.334             82.910
 Electronic               0.000              0.000              0.000
 Translational            0.889              2.981             39.271
 Rotational               0.889              2.981             26.631
 Vibrational             92.536             21.372             17.008
 Vibration     1          0.599              1.967              4.079
 Vibration     2          0.637              1.843              2.151
 Vibration     3          0.664              1.759              1.713
 Vibration     4          0.669              1.744              1.655
 Vibration     5          0.692              1.677              1.426
 Vibration     6          0.710              1.623              1.278
 Vibration     7          0.727              1.576              1.167
 Vibration     8          0.776              1.445              0.921
 Vibration     9          0.796              1.392              0.840
 Vibration    10          0.970              1.008              0.431

 Optimization completed.
    -- Stationary point found.
 Normal termination of Gaussian 09 at Thu Sep  8 15:15:17 2022.
