 Gaussian 09, Revision E.01,
 Gaussian 09:  ES64L-G09RevE.01 30-Nov-2015

 ----------------------------
 #P OPT Freq B3LYP/6-31G(d,p)
 ----------------------------

 --------
 Frag_513
 --------
 Symbolic Z-matrix:
 Charge =  0 Multiplicity = 1

 SCF Done:  E(RB3LYP) =  -305.034649612     A.U. after   13 cycles
 SCF Done:  E(RB3LYP) =  -305.034703907     A.U. after   10 cycles
 SCF Done:  E(RB3LYP) =  -305.034710999     A.U. after    8 cycles
 SCF Done:  E(RB3LYP) =  -305.034712526     A.U. after    8 cycles
 SCF Done:  E(RB3LYP) =  -305.034712931     A.U. after    7 cycles
 Optimization completed.
    -- Stationary point found.
 Normal termination of Gaussian 09 at Thu Sep  8 15:01:42 2022.

 ----------------------------------------------------------------------
 #P Geom=AllCheck Guess=TCheck SCRF=Check GenChk RB3LYP/6-31G(d,p) Freq
 ----------------------------------------------------------------------

 Structure from the checkpoint file:  "B3LYP6-31Gdp.Frag_513.chk"
 --------
 Frag_513
 --------
 Charge =  0 Multiplicity = 1

                         Standard orientation:
 ---------------------------------------------------------------------
 Center     Atomic      Atomic             Coordinates (Angstroms)
 Number     Number       Type             X           Y           Z
 ---------------------------------------------------------------------
      1          6           0        1.107385    1.159440    0.720178
      2          6           0        0.696675    0.249152   -0.447893
      3          8           0        1.583876   -0.833795   -0.564222
      4          7           0       -0.682908   -0.276029   -0.367903
      5          6           0       -1.730129    0.731885   -0.394451
      6          7           0       -0.773069   -1.165737    0.745668
      7          1           0        0.470516    2.047450    0.798344
      8          1           0        2.138416    1.490980    0.572949
      9          1           0        1.064451    0.612466    1.667957
     10          1           0        0.748829    0.813691   -1.387102
     11          1           0        1.266163   -1.465653    0.104601
     12          1           0       -1.566236    1.403095   -1.243701
     13          1           0       -1.785137    1.347231    0.523100
     14          1           0       -2.701237    0.244702   -0.532627
     15          1           0       -1.110932   -0.684220    1.584959
     16          1           0       -1.447599   -1.889878    0.513935
 ---------------------------------------------------------------------

 SCF Done:  E(RB3LYP) =  -305.034712931     A.U. after    1 cycles

 The electronic state is 1-A.
 Alpha  occ. eigenvalues --  -19.12169 -14.35504 -14.35036 -10.25074 -10.21131
 Alpha  occ. eigenvalues --  -10.16907  -1.01919  -0.95874  -0.80111  -0.72696
 Alpha  occ. eigenvalues --   -0.67013  -0.59121  -0.51519  -0.49375  -0.48639
 Alpha  occ. eigenvalues --   -0.43450  -0.42671  -0.41482  -0.40057  -0.37959
 Alpha  occ. eigenvalues --   -0.36182  -0.32408  -0.27100  -0.25600  -0.22235
 Alpha virt. eigenvalues --    0.06335   0.11092   0.12904   0.13741   0.13979
 Alpha virt. eigenvalues --    0.15734   0.15930   0.16233   0.18226   0.18679
 Alpha virt. eigenvalues --    0.20261   0.24501   0.25244   0.27040   0.29268

 Mulliken charges:
               1
     1  C   -0.334923
     2  C    0.329933
     3  O   -0.551024
     4  N   -0.321640
     5  C   -0.162647
     6  N   -0.482557
     7  H    0.090974
     8  H    0.120133
     9  H    0.102261
    10  H    0.091917
    11  H    0.312891
    12  H    0.116069
    13  H    0.081478
    14  H    0.107602
    15  H    0.233230
    16  H    0.266303
 Sum of Mulliken charges =  -0.00000

 Dipole moment (field-independent basis, Debye):
    X=             -2.6768    Y=              0.8400    Z=              1.6667  Tot=              3.2632
 Quadrupole moment (field-independent basis, Debye-Ang):
   XX=            -38.2643   YY=            -36.2499   ZZ=            -38.3465
   XY=              2.6133   XZ=              0.3281   YZ=             -2.9206

  Exact polarizability:  54.860   0.731  52.333  -1.015  -3.127  47.368
 Approx polarizability:  69.865  -0.706  72.010  -3.713  -4.688  68.191

                      1                      2                      3
                      A                      A                      A
 Frequencies --    103.8185               245.6886               266.2963
 Red. masses --      3.0265                 1.2966                 1.7695
 Frc consts  --      0.0192                 0.0461                 0.0739
 IR Inten    --      0.8844                 1.2744                 4.3897

                      4                      5                      6
                      A                      A                      A
 Frequencies --    275.4253               309.0665               358.6542
 Red. masses --      1.0841                 2.7133                 1.1321
 Frc consts  --      0.0485                 0.1527                 0.0858
 IR Inten    --      0.8780                 5.5742                 8.4890

                      7                      8                      9
                      A                      A                      A
 Frequencies --    387.7402               442.4097               499.4781
 Red. masses --      2.6665                 2.5097                 2.8232
 Frc consts  --      0.2362                 0.2894                 0.4150
 IR Inten    --      4.3804                 1.8473                 1.3712

                     10                     11                     12
                      A                      A                      A
 Frequencies --    535.8175               613.4725               767.6748
 Red. masses --      1.2473                 2.6010                 3.0091
 Frc consts  --      0.2110                 0.5768                 1.0448
 IR Inten    --    132.3720                 6.7479                18.0720

                     13                     14                     15
                      A                      A                      A
 Frequencies --    874.9740               931.2803              1037.0443
 Red. masses --      2.5229                 1.8955                 1.4338
 Frc consts  --      1.1380                 0.9686                 0.9085
 IR Inten    --     41.5975                57.1262                25.9617

                     16                     17                     18
                      A                      A                      A
 Frequencies --   1053.3909              1095.1652              1132.4238
 Red. masses --      1.6590                 2.1502                 1.7282
 Frc consts  --      1.0846                 1.5195                 1.3058
 IR Inten    --     28.5618                24.6160               114.4055

                     19                     20                     21
                      A                      A                      A
 Frequencies --   1158.5877              1169.8308              1276.4483
 Red. masses --      1.6011                 3.5738                 2.1545
 Frc consts  --      1.2663                 2.8815                 2.0683
 IR Inten    --     47.0244                21.5969                 2.5461

                     22                     23                     24
                      A                      A                      A
 Frequencies --   1311.2613              1341.7673              1378.9666
 Red. masses --      1.3474                 1.6180                 1.2354
 Frc consts  --      1.3649                 1.7163                 1.3841
 IR Inten    --     10.7777                 5.8634                13.7812

                     25                     26                     27
                      A                      A                      A
 Frequencies --   1412.4677              1438.5005              1463.5417
 Red. masses --      1.2906                 1.2060                 1.1725
 Frc consts  --      1.5170                 1.4703                 1.4797
 IR Inten    --     24.7737               104.1927                10.6359

                     28                     29                     30
                      A                      A                      A
 Frequencies --   1496.0915              1506.0651              1509.0311
 Red. masses --      1.0557                 1.0536                 1.0591
 Frc consts  --      1.3923                 1.4080                 1.4210
 IR Inten    --     14.3983                10.9469                 2.1956

                     31                     32                     33
                      A                      A                      A
 Frequencies --   1524.4507              1675.8344              2943.6189
 Red. masses --      1.0564                 1.0825                 1.0584
 Frc consts  --      1.4464                 1.7912                 5.4035
 IR Inten    --      1.0990                21.4729                69.7524

                     34                     35                     36
                      A                      A                      A
 Frequencies --   3045.4333              3052.7843              3067.6092
 Red. masses --      1.0363                 1.0868                 1.0746
 Frc consts  --      5.6631                 5.9677                 5.9579
 IR Inten    --     14.8846                25.7123                49.6234

                     37                     38                     39
                      A                      A                      A
 Frequencies --   3113.8094              3117.6499              3134.1916
 Red. masses --      1.1030                 1.1018                 1.1014
 Frc consts  --      6.3012                 6.3097                 6.3744
 IR Inten    --     17.5219                44.4472                23.3464

                     40                     41                     42
                      A                      A                      A
 Frequencies --   3386.7307              3548.3853              3704.9263
 Red. masses --      1.0566                 1.0851                 1.0641
 Frc consts  --      7.1402                 8.0497                 8.6055
 IR Inten    --     14.6152                 0.8124                58.3346

 - Thermochemistry -
 -------------------
 Temperature   298.150 Kelvin.  Pressure   1.00000 Atm.
 Atom     1 has atomic number  6 and mass  12.00000

 Molecular mass:    90.07931 amu.
 Principal axes and moments of inertia in atomic units:
                           1         2         3
     Eigenvalues --   384.67612 613.53673 742.73375
           X            0.99939   0.02644   0.02270
           Y           -0.02591   0.99940  -0.02310
           Z           -0.02330   0.02250   0.99948
 This molecule is an asymmetric top.
 Rotational symmetry number  1.
 Rotational temperatures (Kelvin)      0.22516     0.14117     0.11661
 Rotational constants (GHZ):           4.69159     2.94154     2.42986
 Zero-point vibrational energy     375076.0 (Joules/Mol)
                                   89.64531 (Kcal/Mol)
 Warning -- explicit consideration of  11 degrees of freedom as
           vibrations may cause significant error
 Vibrational temperatures:    149.37   353.49   383.14   396.28   444.68
          (Kelvin)            516.02   557.87   636.53   718.64   770.92
                              882.65  1104.51  1258.89  1339.90  1492.07
                             1515.59  1575.70  1629.30  1666.95  1683.12
                             1836.52  1886.61  1930.50  1984.02  2032.22
                             2069.68  2105.71  2152.54  2166.89  2171.16
                             2193.34  2411.15  4235.21  4381.69  4392.27
                             4413.60  4480.07  4485.60  4509.40  4872.74
                             5105.33  5330.56

 Zero-point correction=                           0.142859 (Hartree/Particle)
 Thermal correction to Energy=                    0.150180
 Thermal correction to Enthalpy=                  0.151124
 Thermal correction to Gibbs Free Energy=         0.112421
 Sum of electronic and zero-point Energies=           -304.891854
 Sum of electronic and thermal Energies=              -304.884533
 Sum of electronic and thermal Enthalpies=            -304.883588
 Sum of electronic and thermal Free Energies=         -304.922291

                     E (Thermal)             CV                S
                      KCal/Mol        Cal/Mol-Kelvin    Cal/Mol-Kelvin
 Total                   94.240             27.157             81.457
 Electronic               0.000              0.000              0.000
 Translational            0.889              2.981             39.407
 Rotational               0.889              2.981             26.663
 Vibrational             92.462             21.196             15.387
 Vibration     1          0.605              1.946              3.381
 Vibration     2          0.660              1.770              1.761
 Vibration     3          0.672              1.735              1.620
 Vibration     4          0.677              1.719              1.562
 Vibration     5          0.698              1.656              1.367
 Vibration     6          0.733              1.557              1.128
 Vibration     7          0.756              1.496              1.009
 Vibration     8          0.802              1.378              0.819
 Vibration     9          0.855              1.251              0.659
 Vibration    10          0.891              1.171              0.574
 Vibration    11          0.973              1.003              0.427

 Normal termination of Gaussian 09 at Thu Sep  8 15:01:56 2022.
