 Gaussian 09, Revision E.01,
 Gaussian 09:  ES64L-G09RevE.01 30-Nov-2015

 ----------------------------
 #P OPT Freq B3LYP/6-31G(d,p)
 ----------------------------

 ---------
 Frag_1116
 ---------
 Symbolic Z-matrix:
 Charge =  0 Multiplicity = 1

 SCF Done:  E(RB3LYP) =  -344.318414876     A.U. after   13 cycles
 SCF Done:  E(RB3LYP) =  -344.318470101     A.U. after   10 cycles
 SCF Done:  E(RB3LYP) =  -344.318478363     A.U. after    9 cycles
 SCF Done:  E(RB3LYP) =  -344.318482424     A.U. after    9 cycles
 SCF Done:  E(RB3LYP) =  -344.318483674     A.U. after    8 cycles
 SCF Done:  E(RB3LYP) =  -344.318484342     A.U. after    7 cycles
 Optimization completed.
    -- Stationary point found.
 Normal termination of Gaussian 09 at Thu Sep  8 14:52:04 2022.

 ----------------------------------------------------------------------
 #P Geom=AllCheck Guess=TCheck SCRF=Check GenChk RB3LYP/6-31G(d,p) Freq
 ----------------------------------------------------------------------

 Structure from the checkpoint file:  "B3LYP6-31Gdp.Frag_1116.chk"
 ---------
 Frag_1116
 ---------
 Charge =  0 Multiplicity = 1

                         Standard orientation:
 ---------------------------------------------------------------------
 Center     Atomic      Atomic             Coordinates (Angstroms)
 Number     Number       Type             X           Y           Z
 ---------------------------------------------------------------------
      1          6           0       -0.663740   -0.098423    1.542638
      2          6           0       -0.602075   -0.015295    0.006482
      3          6           0       -1.256528    1.285348   -0.482884
      4          6           0       -1.310903   -1.218403   -0.635391
      5          7           0        0.804574   -0.017833   -0.516564
      6          7           0        1.498540   -1.161981   -0.085829
      7          8           0        1.478914    1.154753    0.065364
      8          1           0       -0.278054   -1.055024    1.909028
      9          1           0       -1.701088   -0.014929    1.881173
     10          1           0       -0.090033    0.713431    1.997566
     11          1           0       -0.795686    2.158769   -0.017555
     12          1           0       -1.158934    1.375482   -1.569753
     13          1           0       -2.322507    1.283318   -0.235535
     14          1           0       -0.863623   -2.158777   -0.309783
     15          1           0       -2.369954   -1.214000   -0.357888
     16          1           0       -1.240238   -1.166108   -1.726158
     17          1           0        1.774121   -1.058890    0.894467
     18          1           0        2.354029   -1.211181   -0.632511
     19          1           0        1.738341    1.649220   -0.724278
 ---------------------------------------------------------------------

 SCF Done:  E(RB3LYP) =  -344.318484342     A.U. after    1 cycles

 The electronic state is 1-A.
 Alpha  occ. eigenvalues --  -19.15967 -14.39262 -14.34306 -10.21694 -10.16642
 Alpha  occ. eigenvalues --  -10.16561 -10.16270  -1.05353  -0.91689  -0.81319
 Alpha  occ. eigenvalues --   -0.70133  -0.67983  -0.67627  -0.54098  -0.51882
 Alpha  occ. eigenvalues --   -0.49154  -0.46854  -0.43404  -0.41776  -0.41428
 Alpha  occ. eigenvalues --   -0.37867  -0.37379  -0.36512  -0.35609  -0.32836
 Alpha  occ. eigenvalues --   -0.32167  -0.29593  -0.25369  -0.23247
 Alpha virt. eigenvalues --    0.07231   0.08656   0.11103   0.12929   0.14353
 Alpha virt. eigenvalues --    0.15121   0.16277   0.16468   0.18512   0.19290
 Alpha virt. eigenvalues --    0.19695   0.20457   0.22507   0.23100   0.23836

 Mulliken charges:
               1
     1  C   -0.329416
     2  C    0.198782
     3  C   -0.311555
     4  C   -0.294977
     5  N   -0.166227
     6  N   -0.407620
     7  O   -0.452001
     8  H    0.101137
     9  H    0.101366
    10  H    0.122039
    11  H    0.111704
    12  H    0.100565
    13  H    0.096552
    14  H    0.122019
    15  H    0.092196
    16  H    0.103802
    17  H    0.239529
    18  H    0.252755
    19  H    0.319349
 Sum of Mulliken charges =  -0.00000

 Dipole moment (field-independent basis, Debye):
    X=              0.7074    Y=              0.4296    Z=             -0.1839  Tot=              0.8478
 Quadrupole moment (field-independent basis, Debye-Ang):
   XX=            -39.7948   YY=            -45.1702   ZZ=            -44.2195
   XY=             -0.3977   XZ=             -1.7844   YZ=             -2.6919

  Exact polarizability:  66.191  -0.573  64.093  -0.424  -1.539  58.148
 Approx polarizability:  87.179   0.967  90.479  -0.681  -1.432  82.011

                      1                      2                      3
                      A                      A                      A
 Frequencies --    106.4676               197.5012               246.0843
 Red. masses --      3.1145                 1.1272                 1.0284
 Frc consts  --      0.0208                 0.0259                 0.0367
 IR Inten    --      0.4956                 0.3205                10.9247

                      4                      5                      6
                      A                      A                      A
 Frequencies --    254.9755               280.0260               283.2748
 Red. masses --      1.1840                 2.2178                 1.5165
 Frc consts  --      0.0454                 0.1025                 0.0717
 IR Inten    --      1.6056                36.6642                37.8220

                      7                      8                      9
                      A                      A                      A
 Frequencies --    302.3917               358.2553               363.5564
 Red. masses --      1.6094                 2.7398                 1.5211
 Frc consts  --      0.0867                 0.2072                 0.1185
 IR Inten    --     32.2197                 2.2680                17.5666

                     10                     11                     12
                      A                      A                      A
 Frequencies --    384.0091               406.0518               502.5587
 Red. masses --      2.0178                 1.8676                 2.4624
 Frc consts  --      0.1753                 0.1814                 0.3664
 IR Inten    --      4.5696                11.8400                15.4070

                     13                     14                     15
                      A                      A                      A
 Frequencies --    507.8703               562.6866               713.6552
 Red. masses --      3.1796                 3.0273                 4.1037
 Frc consts  --      0.4832                 0.5647                 1.2314
 IR Inten    --     20.6597                14.6286                 6.0033

                     16                     17                     18
                      A                      A                      A
 Frequencies --    815.9857               884.9928               899.1548
 Red. masses --      3.6155                 4.0558                 2.2371
 Frc consts  --      1.4183                 1.8716                 1.0656
 IR Inten    --      9.1857                51.2266               105.1563

                     19                     20                     21
                      A                      A                      A
 Frequencies --    930.4569               936.8800               967.1730
 Red. masses --      1.6433                 1.6327                 1.1992
 Frc consts  --      0.8382                 0.8443                 0.6609
 IR Inten    --      0.2951                 0.1261                 0.0847

                     22                     23                     24
                      A                      A                      A
 Frequencies --   1047.9677              1054.1746              1193.6042
 Red. masses --      1.4066                 1.4146                 2.0644
 Frc consts  --      0.9101                 0.9262                 1.7329
 IR Inten    --      0.7956                 6.6809                15.8803

                     25                     26                     27
                      A                      A                      A
 Frequencies --   1255.7166              1259.9379              1276.8355
 Red. masses --      1.9649                 2.4697                 2.5338
 Frc consts  --      1.8254                 2.3099                 2.4338
 IR Inten    --     32.9071                19.3365                22.6258

                     28                     29                     30
                      A                      A                      A
 Frequencies --   1290.0316              1364.6459              1403.2200
 Red. masses --      1.4755                 1.3240                 1.2873
 Frc consts  --      1.4467                 1.4527                 1.4934
 IR Inten    --     22.7844                10.9935                14.0231

                     31                     32                     33
                      A                      A                      A
 Frequencies --   1406.5717              1433.2617              1486.1873
 Red. masses --      1.2832                 1.2365                 1.0494
 Frc consts  --      1.4957                 1.4965                 1.3656
 IR Inten    --      8.2301                 8.3568                 0.3002

                     34                     35                     36
                      A                      A                      A
 Frequencies --   1504.9345              1508.2162              1514.3293
 Red. masses --      1.0502                 1.0457                 1.0539
 Frc consts  --      1.4014                 1.4015                 1.4239
 IR Inten    --      1.5861                 0.2067                 1.3473

                     37                     38                     39
                      A                      A                      A
 Frequencies --   1516.0719              1541.8409              1688.7934
 Red. masses --      1.0544                 1.0569                 1.0768
 Frc consts  --      1.4278                 1.4803                 1.8094
 IR Inten    --      3.4782                 7.4364                16.9861

                     40                     41                     42
                      A                      A                      A
 Frequencies --   3048.9146              3049.7350              3057.1449
 Red. masses --      1.0358                 1.0363                 1.0374
 Frc consts  --      5.6728                 5.6786                 5.7126
 IR Inten    --     26.5809                13.7786                18.2777

                     43                     44                     45
                      A                      A                      A
 Frequencies --   3116.2625              3117.2879              3124.5098
 Red. masses --      1.1023                 1.1021                 1.1016
 Frc consts  --      6.3067                 6.3102                 6.3366
 IR Inten    --     13.6677                 3.2874                58.7585

                     46                     47                     48
                      A                      A                      A
 Frequencies --   3136.2735              3146.3922              3154.2818
 Red. masses --      1.1027                 1.1011                 1.1006
 Frc consts  --      6.3903                 6.4223                 6.4516
 IR Inten    --     11.9233                24.3480                18.0438

                     49                     50                     51
                      A                      A                      A
 Frequencies --   3416.2799              3552.0287              3805.8567
 Red. masses --      1.0543                 1.0867                 1.0681
 Frc consts  --      7.2494                 8.0781                 9.1153
 IR Inten    --      6.4971                 0.2520                31.1750

 - Thermochemistry -
 -------------------
 Temperature   298.150 Kelvin.  Pressure   1.00000 Atm.
 Atom     1 has atomic number  6 and mass  12.00000

 Molecular mass:   104.09496 amu.
 Principal axes and moments of inertia in atomic units:
                           1         2         3
     Eigenvalues --   569.96137 762.53225 912.42386
           X            0.99952  -0.03034   0.00589
           Y            0.03052   0.99899  -0.03290
           Z           -0.00489   0.03307   0.99944
 This molecule is an asymmetric top.
 Rotational symmetry number  1.
 Warning -- assumption of classical behavior for rotation
           may cause significant error
 Rotational temperatures (Kelvin)      0.15196     0.11359     0.09493
 Rotational constants (GHZ):           3.16643     2.36677     1.97796
 Zero-point vibrational energy     444863.2 (Joules/Mol)
                                  106.32485 (Kcal/Mol)
 Warning -- explicit consideration of  14 degrees of freedom as
           vibrations may cause significant error
 Vibrational temperatures:    153.18   284.16   354.06   366.85   402.89
          (Kelvin)            407.57   435.07   515.45   523.08   552.50
                              584.22   723.07   730.71   809.58  1026.79
                             1174.02  1273.31  1293.68  1338.72  1347.96
                             1391.54  1507.79  1516.72  1717.33  1806.69
                             1812.77  1837.08  1856.07  1963.42  2018.92
                             2023.74  2062.14  2138.29  2165.26  2169.98
                             2178.78  2181.29  2218.36  2429.79  4386.70
                             4387.88  4398.54  4483.60  4485.08  4495.47
                             4512.39  4526.95  4538.30  4915.26  5110.57
                             5475.77

 Zero-point correction=                           0.169439 (Hartree/Particle)
 Thermal correction to Energy=                    0.178402
 Thermal correction to Enthalpy=                  0.179346
 Thermal correction to Gibbs Free Energy=         0.137391
 Sum of electronic and zero-point Energies=           -344.149045
 Sum of electronic and thermal Energies=              -344.140082
 Sum of electronic and thermal Enthalpies=            -344.139138
 Sum of electronic and thermal Free Energies=         -344.181093

                     E (Thermal)             CV                S
                      KCal/Mol        Cal/Mol-Kelvin    Cal/Mol-Kelvin
 Total                  111.949             34.193             88.303
 Electronic               0.000              0.000              0.000
 Translational            0.889              2.981             39.838
 Rotational               0.889              2.981             27.475
 Vibrational            110.172             28.231             20.990
 Vibration     1          0.605              1.944              3.332
 Vibration     2          0.637              1.843              2.156
 Vibration     3          0.661              1.769              1.758
 Vibration     4          0.665              1.754              1.696
 Vibration     5          0.680              1.711              1.534
 Vibration     6          0.682              1.705              1.514
 Vibration     7          0.694              1.669              1.404
 Vibration     8          0.733              1.558              1.130
 Vibration     9          0.737              1.547              1.107
 Vibration    10          0.753              1.504              1.023
 Vibration    11          0.771              1.457              0.941
 Vibration    12          0.858              1.244              0.652
 Vibration    13          0.863              1.233              0.639
 Vibration    14          0.918              1.112              0.518

 Optimization completed.
    -- Stationary point found.
 Normal termination of Gaussian 09 at Thu Sep  8 14:52:23 2022.
