 Gaussian 09, Revision D.01,
 Gaussian 09:  ES64L-G09RevD.01 24-Apr-2013

 -------------------------
 #P OPT Freq B3LYP/6-31G**
 -------------------------

 -------
 Frag_30
 -------
 Symbolic Z-matrix:
 Charge =  0 Multiplicity = 1

 SCF Done:  E(RB3LYP) =  -174.500232085     A.U. after   12 cycles
 Optimization completed.
    -- Stationary point found.

 1\1\GINC-FN15\FOpt\RB3LYP\6-31G(d,p)\C3H9N1\LIUJ201281\22-Jul-2021\0\\
 #P OPT Freq B3LYP/6-31G**\\Frag_30\\0,1\C,-1.5633,-0.5271,0.1072\C,-0.
 6605,0.643,-0.2948\C,0.7545,0.576,0.3098\N,1.589,-0.5644,-0.0791\H,-1.
 1441,-1.4868,-0.2153\H,-1.6933,-0.5706,1.195\H,-2.5569,-0.4394,-0.343\
 H,-0.5781,0.6858,-1.3903\H,-1.1282,1.588,0.013\H,0.6799,0.5723,1.4053\
 H,1.2995,1.4903,0.0444\H,1.666,-0.6046,-1.0939\H,1.1476,-1.4356,0.2053
 \\Version=ES64L-G09RevD.01\State=1-A\HF=-174.5002321\RMSD=4.823e-09\RM
 SF=2.952e-05\Dipole=-0.4835705,-0.0709592,-0.2508198\Quadrupole=-3.027

 Normal termination of Gaussian 09 at Thu Jul 22 15:47:10 2021.

 ----------------------------------------------------------------------
 #P Geom=AllCheck Guess=TCheck SCRF=Check GenChk RB3LYP/6-31G(d,p) Freq
 ----------------------------------------------------------------------

 Structure from the checkpoint file:  "/vol2/users/liuj201281/HOFBenchmark/IsodesmicSplit/Sample60/Ring26/Running/Gau-465549.chk"
 -------
 Frag_30
 -------
 Charge =  0 Multiplicity = 1

                         Standard orientation:
 ---------------------------------------------------------------------
 Center     Atomic      Atomic             Coordinates (Angstroms)
 Number     Number       Type             X           Y           Z
 ---------------------------------------------------------------------
      1          6           0       -1.563279   -0.527128    0.107200
      2          6           0       -0.660500    0.642988   -0.294800
      3          6           0        0.754501    0.576014    0.309800
      4          7           0        1.589022   -0.564371   -0.079100
      5          1           0       -1.144061   -1.486821   -0.215300
      6          1           0       -1.693278   -0.570631    1.195000
      7          1           0       -2.556880   -0.439446   -0.343000
      8          1           0       -0.578101    0.685789   -1.390300
      9          1           0       -1.128217    1.587980    0.013000
     10          1           0        0.679901    0.572312    1.405300
     11          1           0        1.299485    1.490324    0.044400
     12          1           0        1.666023   -0.604570   -1.093900
     13          1           0        1.147638   -1.435579    0.205300
 ---------------------------------------------------------------------

 SCF Done:  E(RB3LYP) =  -174.500232085     A.U. after    1 cycles

 The electronic state is 1-A.
 Alpha  occ. eigenvalues --  -14.30735 -10.20105 -10.17906 -10.17604  -0.87363
 Alpha  occ. eigenvalues --   -0.75992  -0.66388  -0.57991  -0.48809  -0.44841
 Alpha  occ. eigenvalues --   -0.43163  -0.40935  -0.37719  -0.35291  -0.33543
 Alpha  occ. eigenvalues --   -0.32926  -0.22858
 Alpha virt. eigenvalues --    0.07651   0.12014   0.12707   0.14690   0.16148
 Alpha virt. eigenvalues --    0.17024   0.17887   0.19177   0.21293   0.23709
 Alpha virt. eigenvalues --    0.24004   0.29025   0.51751   0.52472   0.54467

 Mulliken charges:
               1
     1  C   -0.316502
     2  C   -0.177767
     3  C   -0.055508
     4  N   -0.592388
     5  H    0.091626
     6  H    0.103547
     7  H    0.104493
     8  H    0.085982
     9  H    0.090409
    10  H    0.099058
    11  H    0.099643
    12  H    0.231486
    13  H    0.235922
 Sum of Mulliken charges =   0.00000

 Dipole moment (field-independent basis, Debye):
    X=             -1.2291    Y=             -0.1804    Z=             -0.6375  Tot=              1.3963
 Quadrupole moment (field-independent basis, Debye-Ang):
   XX=            -32.0264   YY=            -25.8670   ZZ=            -25.9702
   XY=              0.3215   XZ=             -1.7690   YZ=              0.4135

  Exact polarizability:  42.600  -0.116  41.062  -1.225   0.186  38.651
 Approx polarizability:  52.466  -1.239  54.924  -2.029   0.115  54.105

                      1                      2                      3
                      A                      A                      A
 Frequencies --    139.8022               235.9903               295.1230
 Red. masses --      1.5768                 1.1491                 1.7079
 Frc consts  --      0.0182                 0.0377                 0.0876
 IR Inten    --      1.6432                 5.8002                19.7566

                      4                      5                      6
                      A                      A                      A
 Frequencies --    343.7338               463.7956               766.3833
 Red. masses --      1.3480                 1.8831                 1.1894
 Frc consts  --      0.0938                 0.2387                 0.4116
 IR Inten    --     25.1803                 9.4431                12.3798

                      7                      8                      9
                      A                      A                      A
 Frequencies --    817.3705               866.5627               911.4710
 Red. masses --      2.2833                 1.2690                 1.5682
 Frc consts  --      0.8988                 0.5615                 0.7676
 IR Inten    --     48.0665                27.7910               137.6091

                     10                     11                     12
                      A                      A                      A
 Frequencies --    995.9059              1045.9889              1083.0716
 Red. masses --      1.5847                 1.2619                 2.5887
 Frc consts  --      0.9260                 0.8135                 1.7891
 IR Inten    --      0.6467                 0.2429                13.9863

                     13                     14                     15
                      A                      A                      A
 Frequencies --   1148.8494              1235.2704              1305.7724
 Red. masses --      2.1297                 1.5311                 1.1910
 Frc consts  --      1.6561                 1.3765                 1.1965
 IR Inten    --      7.8966                 0.2615                 1.2269

                     16                     17                     18
                      A                      A                      A
 Frequencies --   1373.5755              1393.3926              1401.4037
 Red. masses --      1.4486                 1.2686                 1.1682
 Frc consts  --      1.6103                 1.4512                 1.3518
 IR Inten    --      1.9399                13.3047                 0.5504

                     19                     20                     21
                      A                      A                      A
 Frequencies --   1428.8297              1496.0951              1500.3363
 Red. masses --      1.2731                 1.0776                 1.0838
 Frc consts  --      1.5314                 1.4211                 1.4374
 IR Inten    --      5.9074                 1.2511                 0.3149

                     22                     23                     24
                      A                      A                      A
 Frequencies --   1516.0017              1522.1383              1672.2807
 Red. masses --      1.0532                 1.0525                 1.0895
 Frc consts  --      1.4261                 1.4368                 1.7951
 IR Inten    --      5.3508                 4.8976                16.5162

                     25                     26                     27
                      A                      A                      A
 Frequencies --   3016.9403              3029.9185              3037.8014
 Red. masses --      1.0620                 1.0633                 1.0375
 Frc consts  --      5.6954                 5.7514                 5.6411
 IR Inten    --     27.2294                31.6121                22.8216

                     28                     29                     30
                      A                      A                      A
 Frequencies --   3055.7907              3073.7302              3103.5833
 Red. masses --      1.0968                 1.1053                 1.1021
 Frc consts  --      6.0341                 6.1528                 6.2548
 IR Inten    --     39.1841                46.6055                57.3829

                     31                     32                     33
                      A                      A                      A
 Frequencies --   3113.7757              3482.5569              3570.4730
 Red. masses --      1.1011                 1.0493                 1.0919
 Frc consts  --      6.2899                 7.4981                 8.2013
 IR Inten    --     34.3964                 1.8151                 0.5516

 - Thermochemistry -
 -------------------
 Temperature   298.150 Kelvin.  Pressure   1.00000 Atm.
 Atom     1 has atomic number  6 and mass  12.00000

 Molecular mass:    59.07350 amu.
 Principal axes and moments of inertia in atomic units:
                           1         2         3
     Eigenvalues --   131.05989 373.55947 438.85876
           X            0.99979   0.01881  -0.00775
           Y           -0.01878   0.99981   0.00453
           Z            0.00783  -0.00439   0.99996
 This molecule is an asymmetric top.
 Rotational symmetry number  1.
 Rotational temperatures (Kelvin)      0.66087     0.23186     0.19736
 Rotational constants (GHZ):          13.77036     4.83120     4.11235
 Zero-point vibrational energy     319664.4 (Joules/Mol)
                                   76.40163 (Kcal/Mol)
 Warning -- explicit consideration of   5 degrees of freedom as
           vibrations may cause significant error
 Vibrational temperatures:    201.14   339.54   424.62   494.56   667.30
          (Kelvin)           1102.65  1176.01  1246.79  1311.40  1432.88
                             1504.94  1558.30  1652.94  1777.28  1878.71
                             1976.27  2004.78  2016.30  2055.76  2152.54
                             2158.65  2181.19  2190.01  2406.04  4340.70
                             4359.37  4370.71  4396.60  4422.41  4465.36
                             4480.02  5010.62  5137.11

 Zero-point correction=                           0.121754 (Hartree/Particle)
 Thermal correction to Energy=                    0.127268
 Thermal correction to Enthalpy=                  0.128212
 Thermal correction to Gibbs Free Energy=         0.094022
 Sum of electronic and zero-point Energies=           -174.378478
 Sum of electronic and thermal Energies=              -174.372964
 Sum of electronic and thermal Enthalpies=            -174.372020
 Sum of electronic and thermal Free Energies=         -174.406210

                     E (Thermal)             CV                S
                      KCal/Mol        Cal/Mol-Kelvin    Cal/Mol-Kelvin
 Total                   79.862             18.957             71.960
 Electronic               0.000              0.000              0.000
 Translational            0.889              2.981             38.149
 Rotational               0.889              2.981             24.578
 Vibrational             78.085             12.995              9.233
 Vibration     1          0.615              1.914              2.807
 Vibration     2          0.655              1.786              1.833
 Vibration     3          0.689              1.683              1.444
 Vibration     4          0.722              1.588              1.195
 Vibration     5          0.821              1.330              0.755

 1\1\GINC-FN15\Freq\RB3LYP\6-31G(d,p)\C3H9N1\LIUJ201281\22-Jul-2021\0\\
 #P Geom=AllCheck Guess=TCheck SCRF=Check GenChk RB3LYP/6-31G(d,p) Freq
 \\Frag_30\\0,1\C,-1.5633,-0.5271,0.1072\C,-0.6605,0.643,-0.2948\C,0.75
 45,0.576,0.3098\N,1.589,-0.5644,-0.0791\H,-1.1441,-1.4868,-0.2153\H,-1
 .6933,-0.5706,1.195\H,-2.5569,-0.4394,-0.343\H,-0.5781,0.6858,-1.3903\
 H,-1.1282,1.588,0.013\H,0.6799,0.5723,1.4053\H,1.2995,1.4903,0.0444\H,
 1.666,-0.6046,-1.0939\H,1.1476,-1.4356,0.2053\\Version=ES64L-G09RevD.0
 1\State=1-A\HF=-174.5002321\RMSD=3.347e-09\RMSF=2.952e-05\ZeroPoint=0.

 Normal termination of Gaussian 09 at Thu Jul 22 15:48:24 2021.
