 Gaussian 09, Revision E.01,
 Gaussian 09:  ES64L-G09RevE.01 30-Nov-2015

 ----------------------------
 #P OPT Freq B3LYP/6-31G(d,p)
 ----------------------------

 --------
 Frag_820
 --------
 Symbolic Z-matrix:
 Charge =  0 Multiplicity = 1

 SCF Done:  E(RB3LYP) =  -359.661268226     A.U. after   13 cycles
 SCF Done:  E(RB3LYP) =  -359.661381602     A.U. after   11 cycles
 SCF Done:  E(RB3LYP) =  -359.661370550     A.U. after   11 cycles
 SCF Done:  E(RB3LYP) =  -359.661406351     A.U. after   10 cycles
 SCF Done:  E(RB3LYP) =  -359.661411225     A.U. after    8 cycles
 SCF Done:  E(RB3LYP) =  -359.661414303     A.U. after    9 cycles
 SCF Done:  E(RB3LYP) =  -359.661415043     A.U. after    8 cycles
 SCF Done:  E(RB3LYP) =  -359.661415605     A.U. after    8 cycles
 Optimization completed.
    -- Stationary point found.
 Normal termination of Gaussian 09 at Thu Sep  8 15:15:04 2022.

 ----------------------------------------------------------------------
 #P Geom=AllCheck Guess=TCheck SCRF=Check GenChk RB3LYP/6-31G(d,p) Freq
 ----------------------------------------------------------------------

 Structure from the checkpoint file:  "B3LYP6-31Gdp.Frag_820.chk"
 --------
 Frag_820
 --------
 Charge =  0 Multiplicity = 1

                         Standard orientation:
 ---------------------------------------------------------------------
 Center     Atomic      Atomic             Coordinates (Angstroms)
 Number     Number       Type             X           Y           Z
 ---------------------------------------------------------------------
      1          7           0       -1.568779   -0.908582    0.070967
      2          6           0       -0.768416    0.179425    0.057092
      3          8           0       -1.138053    1.327543   -0.174167
      4          6           0        0.717874   -0.100482    0.394815
      5          8           0        1.163006   -1.299109   -0.209405
      6          8           0        1.468736    0.994076   -0.015263
      7          1           0       -1.141689   -1.822892    0.069987
      8          1           0       -2.534098   -0.807241   -0.204027
      9          1           0        0.812500   -0.277487    1.476929
     10          1           0        1.390882   -1.065460   -1.122131
     11          1           0        0.807592    1.679421   -0.238289
 ---------------------------------------------------------------------

 SCF Done:  E(RB3LYP) =  -359.661415605     A.U. after    1 cycles

 The electronic state is 1-A.
 Alpha  occ. eigenvalues --  -19.16550 -19.15308 -19.13776 -14.37476 -10.30114
 Alpha  occ. eigenvalues --  -10.29645  -1.08125  -1.04204  -1.00342  -0.92310
 Alpha  occ. eigenvalues --   -0.70448  -0.60712  -0.56942  -0.53220  -0.51647
 Alpha  occ. eigenvalues --   -0.48688  -0.43800  -0.40600  -0.37974  -0.36090
 Alpha  occ. eigenvalues --   -0.33032  -0.29915  -0.28681  -0.25610
 Alpha virt. eigenvalues --    0.00407   0.06786   0.09940   0.12098   0.13591
 Alpha virt. eigenvalues --    0.14980   0.20450   0.24783   0.26778   0.32357
 Alpha virt. eigenvalues --    0.37755   0.52568   0.54514   0.56315   0.61133

 Mulliken charges:
               1
     1  N   -0.593808
     2  C    0.516004
     3  O   -0.515037
     4  C    0.336859
     5  O   -0.531480
     6  O   -0.543192
     7  H    0.291550
     8  H    0.283712
     9  H    0.118116
    10  H    0.309253
    11  H    0.328022
 Sum of Mulliken charges =   0.00000

 Dipole moment (field-independent basis, Debye):
    X=             -1.7485    Y=             -2.3936    Z=             -0.8088  Tot=              3.0725
 Quadrupole moment (field-independent basis, Debye-Ang):
   XX=            -35.0553   YY=            -35.5850   ZZ=            -31.8658
   XY=              4.8855   XZ=             -1.0552   YZ=              1.3440

  Exact polarizability:  38.795   2.229  43.585   0.019  -1.763  26.868
 Approx polarizability:  49.906   1.526  70.990  -0.343  -5.206  37.930

                      1                      2                      3
                      A                      A                      A
 Frequencies --     70.8625               264.7209               313.1450
 Red. masses --      7.6375                 3.1550                 1.3180
 Frc consts  --      0.0226                 0.1303                 0.0761
 IR Inten    --      2.3968                 2.8258               163.5800

                      4                      5                      6
                      A                      A                      A
 Frequencies --    344.6386               426.8468               461.9665
 Red. masses --      3.1395                 1.5447                 2.5109
 Frc consts  --      0.2197                 0.1658                 0.3157
 IR Inten    --     10.0777                91.0596               111.1952

                      7                      8                      9
                      A                      A                      A
 Frequencies --    498.1041               543.3664               595.2672
 Red. masses --      2.1803                 2.2831                 1.8521
 Frc consts  --      0.3187                 0.3972                 0.3867
 IR Inten    --     50.7439                 9.9420                65.2523

                     10                     11                     12
                      A                      A                      A
 Frequencies --    641.1104               732.0263               890.3511
 Red. masses --      1.2998                 3.1227                 4.3717
 Frc consts  --      0.3148                 0.9859                 2.0418
 IR Inten    --      9.2040                12.7021                 3.5352

                     13                     14                     15
                      A                      A                      A
 Frequencies --   1047.1487              1106.6131              1144.1956
 Red. masses --      3.6415                 1.9104                 3.6421
 Frc consts  --      2.3526                 1.3784                 2.8093
 IR Inten    --    135.5854                 1.2732               159.6710

                     16                     17                     18
                      A                      A                      A
 Frequencies --   1286.7571              1304.8884              1359.8426
 Red. masses --      1.3660                 1.2479                 2.1601
 Frc consts  --      1.3326                 1.2519                 2.3534
 IR Inten    --     18.6250                 4.9908               223.0648

                     19                     20                     21
                      A                      A                      A
 Frequencies --   1431.3211              1477.7380              1617.2913
 Red. masses --      1.2683                 1.6403                 1.3366
 Frc consts  --      1.5309                 2.1104                 2.0598
 IR Inten    --     60.1985                66.0750               101.0159

                     22                     23                     24
                      A                      A                      A
 Frequencies --   1798.1976              3016.7892              3593.6701
 Red. masses --      9.1707                 1.0840                 1.0443
 Frc consts  --     17.4714                 5.8123                 7.9458
 IR Inten    --    279.1780                47.8291                46.1874

                     25                     26                     27
                      A                      A                      A
 Frequencies --   3624.7824              3731.2959              3783.1245
 Red. masses --      1.0647                 1.1056                 1.0652
 Frc consts  --      8.2422                 9.0690                 8.9818
 IR Inten    --    111.8597                63.5356                30.4476

 - Thermochemistry -
 -------------------
 Temperature   298.150 Kelvin.  Pressure   1.00000 Atm.
 Atom     1 has atomic number  7 and mass  14.00307

 Molecular mass:    91.02694 amu.
 Principal axes and moments of inertia in atomic units:
                           1         2         3
     Eigenvalues --   348.17374 509.56717 809.60401
           X            0.99653   0.08327  -0.00075
           Y           -0.08327   0.99651   0.00495
           Z            0.00116  -0.00487   0.99999
 This molecule is an asymmetric top.
 Rotational symmetry number  1.
 Rotational temperatures (Kelvin)      0.24877     0.16998     0.10698
 Rotational constants (GHZ):           5.18345     3.54171     2.22917
 Zero-point vibrational energy     221943.5 (Joules/Mol)
                                   53.04578 (Kcal/Mol)
 Warning -- explicit consideration of   9 degrees of freedom as
           vibrations may cause significant error
 Vibrational temperatures:    101.96   380.87   450.55   495.86   614.14
          (Kelvin)            664.67   716.66   781.78   856.46   922.41
                             1053.22  1281.02  1506.61  1592.17  1646.24
                             1851.35  1877.44  1956.51  2059.35  2126.13
                             2326.92  2587.20  4340.48  5170.48  5215.25
                             5368.50  5443.07

 Zero-point correction=                           0.084534 (Hartree/Particle)
 Thermal correction to Energy=                    0.090935
 Thermal correction to Enthalpy=                  0.091879
 Thermal correction to Gibbs Free Energy=         0.054527
 Sum of electronic and zero-point Energies=           -359.576882
 Sum of electronic and thermal Energies=              -359.570481
 Sum of electronic and thermal Enthalpies=            -359.569537
 Sum of electronic and thermal Free Energies=         -359.606888

                     E (Thermal)             CV                S
                      KCal/Mol        Cal/Mol-Kelvin    Cal/Mol-Kelvin
 Total                   57.062             22.847             78.613
 Electronic               0.000              0.000              0.000
 Translational            0.889              2.981             39.438
 Rotational               0.889              2.981             26.466
 Vibrational             55.285             16.885             12.710
 Vibration     1          0.598              1.968              4.129
 Vibration     2          0.671              1.738              1.630
 Vibration     3          0.701              1.649              1.346
 Vibration     4          0.723              1.586              1.191
 Vibration     5          0.789              1.412              0.869
 Vibration     6          0.820              1.334              0.760
 Vibration     7          0.854              1.254              0.663
 Vibration     8          0.898              1.154              0.558
 Vibration     9          0.953              1.042              0.458

 Normal termination of Gaussian 09 at Thu Sep  8 15:15:13 2022.
