 Gaussian 09, Revision E.01,
 Gaussian 09:  ES64L-G09RevE.01 30-Nov-2015

 ----------------------------
 #P OPT Freq B3LYP/6-31G(d,p)
 ----------------------------

 --------
 Frag_433
 --------
 Symbolic Z-matrix:
 Charge =  0 Multiplicity = 1

 SCF Done:  E(RB3LYP) =  -323.710253857     A.U. after   13 cycles
 SCF Done:  E(RB3LYP) =  -323.710328432     A.U. after   10 cycles
 SCF Done:  E(RB3LYP) =  -323.710332088     A.U. after    9 cycles
 SCF Done:  E(RB3LYP) =  -323.710334547     A.U. after    9 cycles
 SCF Done:  E(RB3LYP) =  -323.710335748     A.U. after    8 cycles
 SCF Done:  E(RB3LYP) =  -323.710336213     A.U. after    7 cycles
 SCF Done:  E(RB3LYP) =  -323.710336507     A.U. after    7 cycles
 SCF Done:  E(RB3LYP) =  -323.710336908     A.U. after    8 cycles
 SCF Done:  E(RB3LYP) =  -323.710337209     A.U. after    8 cycles
 SCF Done:  E(RB3LYP) =  -323.710337337     A.U. after    7 cycles
 SCF Done:  E(RB3LYP) =  -323.710337415     A.U. after    7 cycles
 Optimization completed.
    -- Stationary point found.
 Normal termination of Gaussian 09 at Thu Sep  8 15:21:18 2022.

 ----------------------------------------------------------------------
 #P Geom=AllCheck Guess=TCheck SCRF=Check GenChk RB3LYP/6-31G(d,p) Freq
 ----------------------------------------------------------------------

 Structure from the checkpoint file:  "B3LYP6-31Gdp.Frag_433.chk"
 --------
 Frag_433
 --------
 Charge =  0 Multiplicity = 1

                         Standard orientation:
 ---------------------------------------------------------------------
 Center     Atomic      Atomic             Coordinates (Angstroms)
 Number     Number       Type             X           Y           Z
 ---------------------------------------------------------------------
      1          6           0       -1.425683    1.238210   -0.031392
      2          6           0       -0.769422    0.068004    0.069919
      3          7           0       -1.341683   -1.183978   -0.107942
      4          6           0        0.730900    0.023878    0.375618
      5          8           0        1.316419   -1.185259   -0.081442
      6          8           0        1.393419    1.163831   -0.099378
      7          1           0       -0.910786    2.175164    0.132953
      8          1           0       -2.490725    1.278816   -0.236595
      9          1           0       -0.793226   -1.958057    0.238103
     10          1           0       -2.334304   -1.256806    0.060425
     11          1           0        0.895495   -0.002658    1.458432
     12          1           0        1.210205   -1.218069   -1.043888
     13          1           0        0.921643    1.460327   -0.892144
 ---------------------------------------------------------------------

 SCF Done:  E(RB3LYP) =  -323.710337415     A.U. after    1 cycles

 The electronic state is 1-A.
 Alpha  occ. eigenvalues --  -19.15577 -19.15384 -14.34206 -10.28994 -10.22714
 Alpha  occ. eigenvalues --  -10.16324  -1.06354  -0.99950  -0.91194  -0.74349
 Alpha  occ. eigenvalues --   -0.67574  -0.58433  -0.53229  -0.52449  -0.48770
 Alpha  occ. eigenvalues --   -0.46848  -0.42694  -0.39390  -0.37125  -0.35024
 Alpha  occ. eigenvalues --   -0.34037  -0.29850  -0.28357  -0.20883
 Alpha virt. eigenvalues --    0.02503   0.07920   0.09778   0.10893   0.13804
 Alpha virt. eigenvalues --    0.15389   0.16173   0.18129   0.22884   0.26348
 Alpha virt. eigenvalues --    0.27634   0.33690   0.37238   0.53869   0.55113

 Mulliken charges:
               1
     1  C   -0.329058
     2  C    0.236805
     3  N   -0.638294
     4  C    0.341430
     5  O   -0.529301
     6  O   -0.518279
     7  H    0.100283
     8  H    0.080792
     9  H    0.270737
    10  H    0.259923
    11  H    0.127947
    12  H    0.301533
    13  H    0.295483
 Sum of Mulliken charges =  -0.00000

 Dipole moment (field-independent basis, Debye):
    X=             -2.0933    Y=             -0.9687    Z=             -0.7808  Tot=              2.4351
 Quadrupole moment (field-independent basis, Debye-Ang):
   XX=            -37.5649   YY=            -34.8981   ZZ=            -33.9453
   XY=              1.7557   XZ=             -2.7730   YZ=             -1.3846

  Exact polarizability:  48.209  -4.064  57.479   1.370  -1.043  31.098
 Approx polarizability:  63.893  -9.021  89.779   2.749  -1.767  44.728

                      1                      2                      3
                      A                      A                      A
 Frequencies --     70.3251               191.9966               299.3878
 Red. masses --      4.3661                 1.1395                 3.8936
 Frc consts  --      0.0127                 0.0247                 0.2056
 IR Inten    --      0.3240                25.9381                 8.9683

                      4                      5                      6
                      A                      A                      A
 Frequencies --    340.0639               401.5684               459.1573
 Red. masses --      2.2471                 1.5857                 1.2725
 Frc consts  --      0.1531                 0.1507                 0.1581
 IR Inten    --     32.3453                34.0133                89.3332

                      7                      8                      9
                      A                      A                      A
 Frequencies --    473.7689               498.9715               536.2084
 Red. masses --      1.5787                 3.2438                 2.9386
 Frc consts  --      0.2088                 0.4758                 0.4978
 IR Inten    --     48.9590                48.1278                70.3125

                     10                     11                     12
                      A                      A                      A
 Frequencies --    563.9718               672.7534               750.2059
 Red. masses --      1.4433                 3.4841                 1.1188
 Frc consts  --      0.2705                 0.9291                 0.3710
 IR Inten    --    187.0541                 6.3358                 0.1949

                     13                     14                     15
                      A                      A                      A
 Frequencies --    808.9043               860.2686               992.8952
 Red. masses --      1.3523                 3.3500                 1.5802
 Frc consts  --      0.5213                 1.4607                 0.9178
 IR Inten    --     70.6374                11.1374                 0.6017

                     16                     17                     18
                      A                      A                      A
 Frequencies --   1056.9270              1102.0294              1133.1510
 Red. masses --      4.1233                 4.0990                 1.5321
 Frc consts  --      2.7138                 2.9330                 1.1591
 IR Inten    --    158.0021               205.4982                29.4335

                     19                     20                     21
                      A                      A                      A
 Frequencies --   1243.4388              1281.9241              1372.4029
 Red. masses --      1.2091                 1.3630                 2.3746
 Frc consts  --      1.1014                 1.3197                 2.6351
 IR Inten    --     31.1725                 2.7504                56.7149

                     22                     23                     24
                      A                      A                      A
 Frequencies --   1433.1115              1444.9139              1454.0226
 Red. masses --      1.1754                 1.3554                 1.2571
 Frc consts  --      1.4223                 1.6673                 1.5659
 IR Inten    --     29.6838                62.1868                40.1578

                     25                     26                     27
                      A                      A                      A
 Frequencies --   1634.9821              1712.5114              3078.3350
 Red. masses --      1.1673                 5.6034                 1.0857
 Frc consts  --      1.8385                 9.6821                 6.0618
 IR Inten    --     62.0339               115.0090                27.7703

                     28                     29                     30
                      A                      A                      A
 Frequencies --   3173.8530              3271.5431              3581.0070
 Red. masses --      1.0619                 1.1135                 1.0461
 Frc consts  --      6.3022                 7.0220                 7.9038
 IR Inten    --      6.7710                 6.0921                25.7982

                     31                     32                     33
                      A                      A                      A
 Frequencies --   3700.8717              3768.8909              3783.2013
 Red. masses --      1.1009                 1.0655                 1.0656
 Frc consts  --      8.8842                 8.9174                 8.9863
 IR Inten    --     29.0600                19.8009                17.3040

 - Thermochemistry -
 -------------------
 Temperature   298.150 Kelvin.  Pressure   1.00000 Atm.
 Atom     1 has atomic number  6 and mass  12.00000

 Molecular mass:    89.04768 amu.
 Principal axes and moments of inertia in atomic units:
                           1         2         3
     Eigenvalues --   371.70741 515.98184 842.24918
           X            0.99978  -0.02057  -0.00472
           Y            0.02054   0.99977  -0.00639
           Z            0.00485   0.00629   0.99997
 This molecule is an asymmetric top.
 Rotational symmetry number  1.
 Rotational temperatures (Kelvin)      0.23302     0.16786     0.10284
 Rotational constants (GHZ):           4.85527     3.49768     2.14276
 Zero-point vibrational energy     282005.1 (Joules/Mol)
                                   67.40083 (Kcal/Mol)
 Warning -- explicit consideration of  10 degrees of freedom as
           vibrations may cause significant error
 Vibrational temperatures:    101.18   276.24   430.75   489.28   577.77
          (Kelvin)            660.62   681.65   717.91   771.48   811.43
                              967.94  1079.38  1163.83  1237.73  1428.55
                             1520.68  1585.57  1630.35  1789.03  1844.40
                             1974.58  2061.93  2078.91  2092.01  2352.37
                             2463.92  4429.03  4566.46  4707.01  5152.26
                             5324.72  5422.59  5443.18

 Zero-point correction=                           0.107410 (Hartree/Particle)
 Thermal correction to Energy=                    0.114344
 Thermal correction to Enthalpy=                  0.115288
 Thermal correction to Gibbs Free Energy=         0.077028
 Sum of electronic and zero-point Energies=           -323.602927
 Sum of electronic and thermal Energies=              -323.595994
 Sum of electronic and thermal Enthalpies=            -323.595050
 Sum of electronic and thermal Free Energies=         -323.633310

                     E (Thermal)             CV                S
                      KCal/Mol        Cal/Mol-Kelvin    Cal/Mol-Kelvin
 Total                   71.752             25.551             80.525
 Electronic               0.000              0.000              0.000
 Translational            0.889              2.981             39.372
 Rotational               0.889              2.981             26.582
 Vibrational             69.974             19.589             14.570
 Vibration     1          0.598              1.968              4.144
 Vibration     2          0.634              1.851              2.208
 Vibration     3          0.692              1.675              1.420
 Vibration     4          0.720              1.595              1.212
 Vibration     5          0.767              1.467              0.957
 Vibration     6          0.817              1.341              0.769
 Vibration     7          0.831              1.308              0.727
 Vibration     8          0.854              1.252              0.661
 Vibration     9          0.891              1.170              0.574
 Vibration    10          0.920              1.109              0.516

 Optimization completed.
    -- Stationary point found.
 Normal termination of Gaussian 09 at Thu Sep  8 15:21:29 2022.
