 Gaussian 09, Revision D.01,
 Gaussian 09:  ES64L-G09RevD.01 24-Apr-2013

 -------------------------
 #P OPT Freq B3LYP/6-31G**
 -------------------------

 -------
 Frag_50
 -------
 Symbolic Z-matrix:
 Charge =  0 Multiplicity = 1

 SCF Done:  E(RB3LYP) =  -197.789757569     A.U. after   11 cycles
 SCF Done:  E(RB3LYP) =  -197.789750615     A.U. after    6 cycles
 SCF Done:  E(RB3LYP) =  -197.789733156     A.U. after    6 cycles
 SCF Done:  E(RB3LYP) =  -197.789775468     A.U. after    6 cycles
 SCF Done:  E(RB3LYP) =  -197.789768365     A.U. after    6 cycles
 Optimization completed.
    -- Stationary point found.
 Normal termination of Gaussian 09 at Thu Jul 22 17:17:08 2021.

 ----------------------------------------------------------------------
 #P Geom=AllCheck Guess=TCheck SCRF=Check GenChk RB3LYP/6-31G(d,p) Freq
 ----------------------------------------------------------------------

 Structure from the checkpoint file:  "/vol2/users/liuj201281/HOFBenchmark/IsodesmicSplit/Sample60/Ring26/Running/Gau-336306.chk"
 -------
 Frag_50
 -------
 Charge =  0 Multiplicity = 1

                         Standard orientation:
 ---------------------------------------------------------------------
 Center     Atomic      Atomic             Coordinates (Angstroms)
 Number     Number       Type             X           Y           Z
 ---------------------------------------------------------------------
      1          6           0       -0.968628   -0.974981    0.695403
      2          6           0        0.000043   -0.000070   -0.000019
      3          6           0        1.215420   -0.779119   -0.536952
      4          6           0        0.475718    1.059826    1.011254
      5          6           0       -0.722523    0.694280   -1.169688
      6          1           0       -0.482236   -1.484324    1.535160
      7          1           0       -1.323910   -1.743472   -0.000581
      8          1           0       -1.846331   -0.448561    1.087500
      9          1           0        0.907957   -1.541518   -1.261770
     10          1           0        1.924630   -0.109739   -1.037073
     11          1           0        1.750476   -1.286252    0.274049
     12          1           0        0.993807    0.594638    1.857631
     13          1           0       -0.368835    1.632776    1.410816
     14          1           0        1.168955    1.768860    0.544505
     15          1           0       -0.056811    1.395250   -1.686038
     16          1           0       -1.593243    1.258931   -0.817232
     17          1           0       -1.074634   -0.036205   -1.906962
 ---------------------------------------------------------------------

 SCF Done:  E(RB3LYP) =  -197.789768365     A.U. after    1 cycles

 The electronic state is 1-A.
 Alpha  occ. eigenvalues --  -10.19261 -10.16766 -10.16766 -10.16765 -10.16764
 Alpha  occ. eigenvalues --   -0.81240  -0.67756  -0.67754  -0.67753  -0.52740
 Alpha  occ. eigenvalues --   -0.44079  -0.44078  -0.44078  -0.39385  -0.39381
 Alpha  occ. eigenvalues --   -0.35767  -0.35766  -0.35765  -0.31464  -0.31462
 Alpha  occ. eigenvalues --   -0.31461
 Alpha virt. eigenvalues --    0.07562   0.13978   0.13979   0.13981   0.16464
 Alpha virt. eigenvalues --    0.16466   0.16467   0.17967   0.17967   0.21762
 Alpha virt. eigenvalues --    0.22654   0.22655   0.22657   0.25002   0.25003

 Mulliken charges:
               1
     1  C   -0.294048
     2  C    0.040298
     3  C   -0.294135
     4  C   -0.294020
     5  C   -0.293944
     6  H    0.094650
     7  H    0.094665
     8  H    0.094652
     9  H    0.094674
    10  H    0.094685
    11  H    0.094661
    12  H    0.094657
    13  H    0.094647
    14  H    0.094648
    15  H    0.094639
    16  H    0.094642
    17  H    0.094629
 Sum of Mulliken charges =   0.00000

 Dipole moment (field-independent basis, Debye):
    X=              0.0002    Y=             -0.0002    Z=              0.0001  Tot=              0.0003
 Quadrupole moment (field-independent basis, Debye-Ang):
   XX=            -35.0178   YY=            -35.0188   ZZ=            -35.0192
   XY=             -0.0001   XZ=              0.0001   YZ=              0.0001

  Exact polarizability:  54.951   0.000  54.948   0.001   0.000  54.947
 Approx polarizability:  73.872   0.000  73.869   0.001   0.000  73.868

                      1                      2                      3
                      A                      A                      A
 Frequencies --    205.8191               272.7626               278.3855
 Red. masses --      1.0081                 1.0308                 1.0339
 Frc consts  --      0.0252                 0.0452                 0.0472
 IR Inten    --      0.0000                 0.0001                 0.0000

                      4                      5                      6
                      A                      A                      A
 Frequencies --    282.3989               328.3898               329.6173
 Red. masses --      1.0309                 2.1735                 2.1761
 Frc consts  --      0.0484                 0.1381                 0.1393
 IR Inten    --      0.0000                 0.0000                 0.0000

                      7                      8                      9
                      A                      A                      A
 Frequencies --    414.1845               415.3611               418.9894
 Red. masses --      2.1001                 2.1057                 2.1100
 Frc consts  --      0.2123                 0.2140                 0.2182
 IR Inten    --      0.0101                 0.0091                 0.0100

                     10                     11                     12
                      A                      A                      A
 Frequencies --    730.6678               928.7084               929.4312
 Red. masses --      3.4693                 1.9953                 1.9935
 Frc consts  --      1.0913                 1.0140                 1.0146
 IR Inten    --      0.0000                 0.6249                 0.6208

                     13                     14                     15
                      A                      A                      A
 Frequencies --    931.5630               960.7365               963.3982
 Red. masses --      1.9909                 1.2030                 1.2029
 Frc consts  --      1.0179                 0.6542                 0.6578
 IR Inten    --      0.6099                 0.0009                 0.0004

                     16                     17                     18
                      A                      A                      A
 Frequencies --    965.8092              1092.3758              1093.3176
 Red. masses --      1.2042                 1.3623                 1.3617
 Frc consts  --      0.6618                 0.9578                 0.9590
 IR Inten    --      0.0010                 0.0004                 0.0002

                     19                     20                     21
                      A                      A                      A
 Frequencies --   1280.5761              1281.1181              1282.3186
 Red. masses --      2.6192                 2.6121                 2.6230
 Frc consts  --      2.5306                 2.5260                 2.5412
 IR Inten    --      5.9927                 5.9927                 6.1115

                     22                     23                     24
                      A                      A                      A
 Frequencies --   1410.8963              1413.3461              1414.8367
 Red. masses --      1.2506                 1.2450                 1.2467
 Frc consts  --      1.4668                 1.4653                 1.4704
 IR Inten    --      5.1751                 5.0813                 5.1723

                     25                     26                     27
                      A                      A                      A
 Frequencies --   1452.0369              1495.4995              1496.1099
 Red. masses --      1.2272                 1.0484                 1.0479
 Frc consts  --      1.5245                 1.3816                 1.3820
 IR Inten    --      0.0092                 0.0013                 0.0024

                     28                     29                     30
                      A                      A                      A
 Frequencies --   1496.6981              1504.1933              1504.6233
 Red. masses --      1.0483                 1.0413                 1.0413
 Frc consts  --      1.3835                 1.3882                 1.3889
 IR Inten    --      0.0037                 0.0049                 0.0091

                     31                     32                     33
                      A                      A                      A
 Frequencies --   1531.0043              1531.8509              1532.3147
 Red. masses --      1.0628                 1.0621                 1.0626
 Frc consts  --      1.4677                 1.4684                 1.4700
 IR Inten    --      6.9338                 6.9817                 6.8611

                     34                     35                     36
                      A                      A                      A
 Frequencies --   3027.9976              3028.3847              3028.7987
 Red. masses --      1.0345                 1.0346                 1.0345
 Frc consts  --      5.5887                 5.5904                 5.5914
 IR Inten    --     36.0328                35.6951                36.3659

                     37                     38                     39
                      A                      A                      A
 Frequencies --   3039.8562              3097.9376              3098.9045
 Red. masses --      1.0365                 1.1032                 1.1030
 Frc consts  --      5.6431                 6.2383                 6.2410
 IR Inten    --      0.0056                 0.1958                 0.1314

                     40                     41                     42
                      A                      A                      A
 Frequencies --   3099.3049              3099.8425              3099.9975
 Red. masses --      1.1027                 1.1028                 1.1021
 Frc consts  --      6.2408                 6.2432                 6.2400
 IR Inten    --      0.1007                 0.4719                 0.0442

                     43                     44                     45
                      A                      A                      A
 Frequencies --   3106.4340              3106.9500              3107.4724
 Red. masses --      1.1013                 1.1013                 1.1014
 Frc consts  --      6.2618                 6.2638                 6.2661
 IR Inten    --     92.2180                92.0686                91.5707

 - Thermochemistry -
 -------------------
 Temperature   298.150 Kelvin.  Pressure   1.00000 Atm.
 Atom     1 has atomic number  6 and mass  12.00000

 Molecular mass:    72.09390 amu.
 Principal axes and moments of inertia in atomic units:
                           1         2         3
     Eigenvalues --   409.03690 409.09751 409.10961
           X            0.99998   0.00593   0.00314
           Y           -0.00589   0.99991  -0.01227
           Z           -0.00321   0.01225   0.99992
 This molecule is an asymmetric top.
 Rotational symmetry number  1.
 Rotational temperatures (Kelvin)      0.21175     0.21172     0.21171
 Rotational constants (GHZ):           4.41217     4.41152     4.41139
 Zero-point vibrational energy     419358.2 (Joules/Mol)
                                  100.22902 (Kcal/Mol)
 Warning -- explicit consideration of   9 degrees of freedom as
           vibrations may cause significant error
 Vibrational temperatures:    296.13   392.44   400.53   406.31   472.48
          (Kelvin)            474.25   595.92   597.61   602.83  1051.27
                             1336.20  1337.24  1340.31  1382.28  1386.11
                             1389.58  1571.68  1573.04  1842.46  1843.24
                             1844.97  2029.96  2033.49  2035.63  2089.15
                             2151.69  2152.57  2153.41  2164.20  2164.81
                             2202.77  2203.99  2204.66  4356.61  4357.16
                             4357.76  4373.67  4457.24  4458.63  4459.20
                             4459.98  4460.20  4469.46  4470.20  4470.95

 Zero-point correction=                           0.159725 (Hartree/Particle)
 Thermal correction to Energy=                    0.166632
 Thermal correction to Enthalpy=                  0.167577
 Thermal correction to Gibbs Free Energy=         0.130621
 Sum of electronic and zero-point Energies=           -197.630043
 Sum of electronic and thermal Energies=              -197.623136
 Sum of electronic and thermal Enthalpies=            -197.622192
 Sum of electronic and thermal Free Energies=         -197.659148

                     E (Thermal)             CV                S
                      KCal/Mol        Cal/Mol-Kelvin    Cal/Mol-Kelvin
 Total                  104.563             25.902             77.780
 Electronic               0.000              0.000              0.000
 Translational            0.889              2.981             38.743
 Rotational               0.889              2.981             25.729
 Vibrational            102.786             19.941             13.308
 Vibration     1          0.640              1.832              2.080
 Vibration     2          0.676              1.724              1.579
 Vibration     3          0.679              1.713              1.544
 Vibration     4          0.681              1.706              1.519
 Vibration     5          0.712              1.619              1.268
 Vibration     6          0.712              1.616              1.262
 Vibration     7          0.778              1.439              0.912
 Vibration     8          0.779              1.437              0.908
 Vibration     9          0.782              1.429              0.895

 Normal termination of Gaussian 09 at Thu Jul 22 17:17:34 2021.
