 Gaussian 09, Revision E.01,
 Gaussian 09:  ES64L-G09RevE.01 30-Nov-2015

 -------------------------
 #P OPT Freq B3LYP/6-31G**
 -------------------------

 --------
 Frag_171
 --------
 Symbolic Z-matrix:
 Charge =  0 Multiplicity = 1

 SCF Done:  E(RB3LYP) =  -250.691185455     A.U. after   13 cycles
 SCF Done:  E(RB3LYP) =  -250.702252867     A.U. after   12 cycles
 SCF Done:  E(RB3LYP) =  -250.703377216     A.U. after   11 cycles
 SCF Done:  E(RB3LYP) =  -250.704528689     A.U. after   11 cycles
 SCF Done:  E(RB3LYP) =  -250.704757977     A.U. after   10 cycles
 SCF Done:  E(RB3LYP) =  -250.704822823     A.U. after   11 cycles
 SCF Done:  E(RB3LYP) =  -250.704830473     A.U. after   10 cycles
 SCF Done:  E(RB3LYP) =  -250.704838014     A.U. after    9 cycles
 SCF Done:  E(RB3LYP) =  -250.704839172     A.U. after    8 cycles
 SCF Done:  E(RB3LYP) =  -250.704839926     A.U. after    8 cycles
 SCF Done:  E(RB3LYP) =  -250.704840073     A.U. after    8 cycles
 Optimization completed.
    -- Stationary point found.
 Normal termination of Gaussian 09 at Sat Aug 21 01:35:58 2021.

 ----------------------------------------------------------------------
 #P Geom=AllCheck Guess=TCheck SCRF=Check GenChk RB3LYP/6-31G(d,p) Freq
 ----------------------------------------------------------------------

 Structure from the checkpoint file:  "/public/home/users/caep010/.cache/gau_scr/Gau-7178.chk"
 --------
 Frag_171
 --------
 Charge =  0 Multiplicity = 1

                         Standard orientation:
 ---------------------------------------------------------------------
 Center     Atomic      Atomic             Coordinates (Angstroms)
 Number     Number       Type             X           Y           Z
 ---------------------------------------------------------------------
      1          7           0       -2.173784   -0.137999    0.007708
      2          6           0       -0.906301   -0.031465   -0.008535
      3          6           0        0.016679   -1.236937   -0.142068
      4          6           0        1.408575   -0.710031    0.250074
      5          6           0        1.388011    0.758760   -0.222186
      6          6           0       -0.042162    1.228070    0.105860
      7          1           0       -2.607747    0.788559    0.089487
      8          1           0        0.011762   -1.558208   -1.192708
      9          1           0       -0.340042   -2.082147    0.451618
     10          1           0        2.228396   -1.287284   -0.186798
     11          1           0        1.528658   -0.746069    1.340145
     12          1           0        2.160673    1.372691    0.249429
     13          1           0        1.553461    0.800505   -1.305722
     14          1           0       -0.408267    2.033865   -0.538773
     15          1           0       -0.099215    1.593698    1.140500
 ---------------------------------------------------------------------

 SCF Done:  E(RB3LYP) =  -250.704840073     A.U. after    1 cycles

 The electronic state is 1-A.
 Alpha  occ. eigenvalues --  -14.30393 -10.22770 -10.19155 -10.18906 -10.18658
 Alpha  occ. eigenvalues --  -10.18283  -0.89741  -0.81783  -0.71922  -0.67215
 Alpha  occ. eigenvalues --   -0.58251  -0.53138  -0.49152  -0.47696  -0.42139
 Alpha  occ. eigenvalues --   -0.40456  -0.39361  -0.36010  -0.35007  -0.34208
 Alpha  occ. eigenvalues --   -0.33068  -0.28405  -0.24443
 Alpha virt. eigenvalues --    0.00553   0.08538   0.10888   0.12435   0.14335
 Alpha virt. eigenvalues --    0.16204   0.16662   0.16805   0.18703   0.19993
 Alpha virt. eigenvalues --    0.21127   0.22604   0.26024   0.26561   0.32439

 Mulliken charges:
               1
     1  N   -0.538249
     2  C    0.275526
     3  C   -0.205956
     4  C   -0.201688
     5  C   -0.200568
     6  C   -0.232924
     7  H    0.215724
     8  H    0.124015
     9  H    0.122722
    10  H    0.097443
    11  H    0.104401
    12  H    0.097277
    13  H    0.105647
    14  H    0.112515
    15  H    0.124115
 Sum of Mulliken charges =  -0.00000

 Dipole moment (field-independent basis, Debye):
    X=              1.9394    Y=              1.3803    Z=              0.0773  Tot=              2.3817
 Quadrupole moment (field-independent basis, Debye-Ang):
   XX=            -41.9754   YY=            -35.8829   ZZ=            -36.7433
   XY=             -4.0974   XZ=             -0.3223   YZ=              0.2922

  Exact polarizability:  67.365  -1.749  56.591  -0.404   0.830  44.624
 Approx polarizability:  94.090  -0.725  75.809  -0.689   1.551  66.387

                      1                      2                      3
                      A                      A                      A
 Frequencies --     83.5731               245.9021               428.9644
 Red. masses --      2.3269                 1.5847                 2.9250
 Frc consts  --      0.0096                 0.0565                 0.3171
 IR Inten    --      2.1457                 0.2637                 9.8611

                      4                      5                      6
                      A                      A                      A
 Frequencies --    454.4925               568.1288               581.7270
 Red. masses --      2.0822                 3.0336                 2.0735
 Frc consts  --      0.2534                 0.5769                 0.4134
 IR Inten    --      3.1019                 3.3510                 1.1983

                      7                      8                      9
                      A                      A                      A
 Frequencies --    722.7672               826.3889               857.4117
 Red. masses --      1.7762                 2.4213                 1.9749
 Frc consts  --      0.5467                 0.9742                 0.8554
 IR Inten    --      6.4054                 6.7192                 3.7791

                     10                     11                     12
                      A                      A                      A
 Frequencies --    887.5182               910.8074               924.2190
 Red. masses --      1.4604                 1.8641                 1.4769
 Frc consts  --      0.6777                 0.9111                 0.7433
 IR Inten    --     23.1738                 8.2286                 2.3616

                     13                     14                     15
                      A                      A                      A
 Frequencies --    964.2332              1032.0577              1052.6393
 Red. masses --      1.8003                 1.8907                 1.3134
 Frc consts  --      0.9862                 1.1866                 0.8574
 IR Inten    --      9.8194                 1.7416                11.8893

                     16                     17                     18
                      A                      A                      A
 Frequencies --   1081.6454              1163.0601              1181.0432
 Red. masses --      1.9535                 1.4005                 1.4340
 Frc consts  --      1.3466                 1.1162                 1.1785
 IR Inten    --     39.3954                 0.1770                 0.9211

                     19                     20                     21
                      A                      A                      A
 Frequencies --   1237.7568              1255.6922              1304.1875
 Red. masses --      1.4137                 1.4389                 1.3046
 Frc consts  --      1.2761                 1.3367                 1.3074
 IR Inten    --      0.4324                 8.0831                 7.8690

                     22                     23                     24
                      A                      A                      A
 Frequencies --   1316.4681              1330.6410              1352.7729
 Red. masses --      1.3755                 1.4247                 1.3578
 Frc consts  --      1.4046                 1.4862                 1.4640
 IR Inten    --     10.6964                11.6951                 1.2340

                     25                     26                     27
                      A                      A                      A
 Frequencies --   1377.8957              1475.2266              1476.3700
 Red. masses --      1.8049                 1.0854                 1.0855
 Frc consts  --      2.0190                 1.3917                 1.3941
 IR Inten    --     51.0395                 1.7136                 7.6313

                     28                     29                     30
                      A                      A                      A
 Frequencies --   1509.0319              1523.5383              1754.9505
 Red. masses --      1.0871                 1.1066                10.0921
 Frc consts  --      1.4585                 1.5134                18.3131
 IR Inten    --      3.3186                 0.5588                89.5912

                     31                     32                     33
                      A                      A                      A
 Frequencies --   3033.4515              3037.0770              3045.3488
 Red. masses --      1.0674                 1.0717                 1.0685
 Frc consts  --      5.7870                 5.8242                 5.8383
 IR Inten    --     16.0322                 5.4968                24.2365

                     34                     35                     36
                      A                      A                      A
 Frequencies --   3051.2285              3093.7620              3104.3330
 Red. masses --      1.0620                 1.0956                 1.0969
 Frc consts  --      5.8253                 6.1784                 6.2283
 IR Inten    --     37.3632                19.3062                31.6868

                     37                     38                     39
                      A                      A                      A
 Frequencies --   3110.5697              3120.7158              3411.6956
 Red. masses --      1.1029                 1.0959                 1.0747
 Frc consts  --      6.2872                 6.2881                 7.3702
 IR Inten    --     41.7055                18.8285                11.2802

 - Thermochemistry -
 -------------------
 Temperature   298.150 Kelvin.  Pressure   1.00000 Atm.
 Atom     1 has atomic number  7 and mass  14.00307

 Molecular mass:    83.07350 amu.
 Principal axes and moments of inertia in atomic units:
                           1         2         3
     Eigenvalues --   275.58863 546.67818 760.86632
           X            0.99962  -0.02760  -0.00115
           Y            0.02760   0.99961   0.00415
           Z            0.00104  -0.00418   0.99999
 This molecule is an asymmetric top.
 Rotational symmetry number  1.
 Rotational temperatures (Kelvin)      0.31429     0.15844     0.11384
 Rotational constants (GHZ):           6.54868     3.30129     2.37196
 Zero-point vibrational energy     352236.2 (Joules/Mol)
                                   84.18647 (Kcal/Mol)
 Warning -- explicit consideration of   6 degrees of freedom as
           vibrations may cause significant error
 Vibrational temperatures:    120.24   353.80   617.18   653.91   817.41
          (Kelvin)            836.97  1039.90  1188.99  1233.62  1276.94
                             1310.45  1329.74  1387.31  1484.90  1514.51
                             1556.24  1673.38  1699.26  1780.85  1806.66
                             1876.43  1894.10  1914.49  1946.34  1982.48
                             2122.52  2124.16  2171.16  2192.03  2524.98
                             4364.45  4369.67  4381.57  4390.03  4451.23
                             4466.44  4475.41  4490.01  4908.66

 Zero-point correction=                           0.134160 (Hartree/Particle)
 Thermal correction to Energy=                    0.139805
 Thermal correction to Enthalpy=                  0.140749
 Thermal correction to Gibbs Free Energy=         0.104967
 Sum of electronic and zero-point Energies=           -250.570680
 Sum of electronic and thermal Energies=              -250.565035
 Sum of electronic and thermal Enthalpies=            -250.564091
 Sum of electronic and thermal Free Energies=         -250.599873

                     E (Thermal)             CV                S
                      KCal/Mol        Cal/Mol-Kelvin    Cal/Mol-Kelvin
 Total                   87.729             21.222             75.310
 Electronic               0.000              0.000              0.000
 Translational            0.889              2.981             39.165
 Rotational               0.889              2.981             26.241
 Vibrational             85.952             15.260              9.903
 Vibration     1          0.600              1.960              3.805
 Vibration     2          0.660              1.770              1.760
 Vibration     3          0.790              1.407              0.862
 Vibration     4          0.813              1.351              0.782
 Vibration     5          0.924              1.100              0.508
 Vibration     6          0.938              1.071              0.482

 Optimization completed.
    -- Stationary point found.
 Normal termination of Gaussian 09 at Sat Aug 21 01:36:11 2021.
