 Gaussian 09, Revision E.01,
 Gaussian 09:  ES64L-G09RevE.01 30-Nov-2015

 ----------------------------
 #P OPT Freq B3LYP/6-31G(d,p)
 ----------------------------

 --------
 Frag_996
 --------
 Symbolic Z-matrix:
 Charge =  0 Multiplicity = 1

 SCF Done:  E(RB3LYP) =  -285.564880121     A.U. after   13 cycles
 SCF Done:  E(RB3LYP) =  -285.564940796     A.U. after    9 cycles
 SCF Done:  E(RB3LYP) =  -285.564948973     A.U. after    8 cycles
 SCF Done:  E(RB3LYP) =  -285.564951567     A.U. after    8 cycles
 SCF Done:  E(RB3LYP) =  -285.564953072     A.U. after    8 cycles
 SCF Done:  E(RB3LYP) =  -285.564954087     A.U. after    8 cycles
 SCF Done:  E(RB3LYP) =  -285.564954695     A.U. after    8 cycles
 Optimization completed.
    -- Stationary point found.
 Normal termination of Gaussian 09 at Thu Sep  8 15:23:03 2022.

 ----------------------------------------------------------------------
 #P Geom=AllCheck Guess=TCheck SCRF=Check GenChk RB3LYP/6-31G(d,p) Freq
 ----------------------------------------------------------------------

 Structure from the checkpoint file:  "B3LYP6-31Gdp.Frag_996.chk"
 --------
 Frag_996
 --------
 Charge =  0 Multiplicity = 1

                         Standard orientation:
 ---------------------------------------------------------------------
 Center     Atomic      Atomic             Coordinates (Angstroms)
 Number     Number       Type             X           Y           Z
 ---------------------------------------------------------------------
      1          6           0        0.659015    1.373110    0.099929
      2          6           0        0.442471   -0.069157   -0.349305
      3          8           0        1.561071   -0.885040   -0.072261
      4          7           0       -0.745194   -0.719706    0.244866
      5          8           0       -1.888312    0.120899   -0.047581
      6          1           0        1.513159    1.814463   -0.421845
      7          1           0        0.857090    1.408443    1.180741
      8          1           0       -0.232052    1.972151   -0.098190
      9          1           0        0.290718   -0.105988   -1.433225
     10          1           0        1.912038   -0.628250    0.791284
     11          1           0       -0.656552   -0.649713    1.262847
     12          1           0       -2.459034   -0.483757   -0.540673
 ---------------------------------------------------------------------

 SCF Done:  E(RB3LYP) =  -285.564954695     A.U. after    1 cycles

 The electronic state is 1-A.
 Alpha  occ. eigenvalues --  -19.16959 -19.15212 -14.36657 -10.26094 -10.18041
 Alpha  occ. eigenvalues --   -1.05531  -1.02585  -0.82326  -0.72522  -0.62556
 Alpha  occ. eigenvalues --   -0.51414  -0.49282  -0.46632  -0.44995  -0.42968
 Alpha  occ. eigenvalues --   -0.38863  -0.37230  -0.33569  -0.30436  -0.27440
 Alpha  occ. eigenvalues --   -0.24055
 Alpha virt. eigenvalues --    0.06203   0.07789   0.12101   0.12580   0.13925
 Alpha virt. eigenvalues --    0.16192   0.17594   0.18098   0.22606   0.24190
 Alpha virt. eigenvalues --    0.29338   0.53205   0.54344   0.57311   0.59242

 Mulliken charges:
               1
     1  C   -0.341145
     2  C    0.290828
     3  O   -0.527175
     4  N   -0.283760
     5  O   -0.460687
     6  H    0.117056
     7  H    0.083463
     8  H    0.139623
     9  H    0.107863
    10  H    0.301484
    11  H    0.240624
    12  H    0.331826
 Sum of Mulliken charges =  -0.00000

 Dipole moment (field-independent basis, Debye):
    X=             -0.0585    Y=              0.9095    Z=              0.9807  Tot=              1.3388
 Quadrupole moment (field-independent basis, Debye-Ang):
   XX=            -28.8218   YY=            -33.8850   ZZ=            -27.0328
   XY=              3.5950   XZ=              4.3169   YZ=             -1.0805

  Exact polarizability:  43.403   0.313  34.081   2.998  -0.541  35.425
 Approx polarizability:  57.081  -2.947  45.530   4.594  -0.648  50.311

                      1                      2                      3
                      A                      A                      A
 Frequencies --    115.9738               259.2467               271.4732
 Red. masses --      3.5352                 1.2935                 1.2872
 Frc consts  --      0.0280                 0.0512                 0.0559
 IR Inten    --      1.8156                11.2509                91.7930

                      4                      5                      6
                      A                      A                      A
 Frequencies --    279.9895               345.0955               413.2710
 Red. masses --      1.7343                 1.1029                 3.4602
 Frc consts  --      0.0801                 0.0774                 0.3482
 IR Inten    --      3.4825                87.0185                10.6674

                      7                      8                      9
                      A                      A                      A
 Frequencies --    478.0163               526.5111               836.0879
 Red. masses --      3.1690                 2.7608                 2.9214
 Frc consts  --      0.4266                 0.4509                 1.2032
 IR Inten    --     11.0194                11.8742                32.0834

                     10                     11                     12
                      A                      A                      A
 Frequencies --    921.7292               957.9061              1015.5450
 Red. masses --      2.7112                 1.9568                 1.7762
 Frc consts  --      1.3571                 1.0579                 1.0793
 IR Inten    --     66.6226                 2.8647                66.2759

                     13                     14                     15
                      A                      A                      A
 Frequencies --   1077.9738              1144.3637              1191.5011
 Red. masses --      1.5974                 3.0790                 2.0308
 Frc consts  --      1.0937                 2.3757                 1.6987
 IR Inten    --     55.5152               108.3908                40.0010

                     16                     17                     18
                      A                      A                      A
 Frequencies --   1299.4009              1338.0729              1394.8718
 Red. masses --      1.3769                 1.2670                 1.1843
 Frc consts  --      1.3697                 1.3365                 1.3576
 IR Inten    --     25.0598                 9.1746                51.1434

                     19                     20                     21
                      A                      A                      A
 Frequencies --   1406.3667              1421.8611              1479.8062
 Red. masses --      1.2072                 1.3337                 1.1146
 Frc consts  --      1.4068                 1.5886                 1.4381
 IR Inten    --     10.9824                53.6609                 9.2175

                     22                     23                     24
                      A                      A                      A
 Frequencies --   1500.7853              1515.8034              3023.6576
 Red. masses --      1.0660                 1.0586                 1.0477
 Frc consts  --      1.4146                 1.4331                 5.6435
 IR Inten    --      3.7633                15.0506                17.8342

                     25                     26                     27
                      A                      A                      A
 Frequencies --   3077.7555              3110.8121              3152.6951
 Red. masses --      1.0851                 1.0918                 1.1013
 Frc consts  --      6.0559                 6.2253                 6.4497
 IR Inten    --     22.8688                37.1333                 9.5513

                     28                     29                     30
                      A                      A                      A
 Frequencies --   3419.0974              3802.6989              3806.4528
 Red. masses --      1.0753                 1.0662                 1.0684
 Frc consts  --      7.4061                 9.0836                 9.1204
 IR Inten    --      4.9512                18.1963                28.5631

 - Thermochemistry -
 -------------------
 Temperature   298.150 Kelvin.  Pressure   1.00000 Atm.
 Atom     1 has atomic number  6 and mass  12.00000

 Molecular mass:    77.04768 amu.
 Principal axes and moments of inertia in atomic units:
                           1         2         3
     Eigenvalues --   219.09837 477.35854 634.32573
           X            0.99840   0.05394   0.01707
           Y           -0.05391   0.99854  -0.00226
           Z           -0.01717   0.00134   0.99985
 This molecule is an asymmetric top.
 Rotational symmetry number  1.
 Rotational temperatures (Kelvin)      0.39532     0.18144     0.13654
 Rotational constants (GHZ):           8.23713     3.78068     2.84513
 Zero-point vibrational energy     266676.5 (Joules/Mol)
                                   63.73720 (Kcal/Mol)
 Warning -- explicit consideration of   8 degrees of freedom as
           vibrations may cause significant error
 Vibrational temperatures:    166.86   373.00   390.59   402.84   496.51
          (Kelvin)            594.60   687.76   757.53  1202.94  1326.16
                             1378.21  1461.14  1550.96  1646.48  1714.30
                             1869.55  1925.19  2006.91  2023.45  2045.74
                             2129.11  2159.29  2180.90  4350.36  4428.20
                             4475.76  4536.02  4919.31  5471.23  5476.63

 Zero-point correction=                           0.101572 (Hartree/Particle)
 Thermal correction to Energy=                    0.107914
 Thermal correction to Enthalpy=                  0.108858
 Thermal correction to Gibbs Free Energy=         0.072361
 Sum of electronic and zero-point Energies=           -285.463383
 Sum of electronic and thermal Energies=              -285.457041
 Sum of electronic and thermal Enthalpies=            -285.456097
 Sum of electronic and thermal Free Energies=         -285.492594

                     E (Thermal)             CV                S
                      KCal/Mol        Cal/Mol-Kelvin    Cal/Mol-Kelvin
 Total                   67.717             22.017             76.815
 Electronic               0.000              0.000              0.000
 Translational            0.889              2.981             38.941
 Rotational               0.889              2.981             25.698
 Vibrational             65.939             16.056             12.176
 Vibration     1          0.608              1.936              3.166
 Vibration     2          0.668              1.747              1.667
 Vibration     3          0.675              1.726              1.587
 Vibration     4          0.680              1.711              1.534
 Vibration     5          0.723              1.585              1.188
 Vibration     6          0.777              1.441              0.915
 Vibration     7          0.835              1.299              0.715
 Vibration     8          0.881              1.191              0.595

 Optimization completed.
    -- Stationary point found.
 Normal termination of Gaussian 09 at Thu Sep  8 15:23:12 2022.
