 Gaussian 09, Revision D.01,
 Gaussian 09:  ES64L-G09RevD.01 24-Apr-2013

 -------------------------
 #P OPT Freq B3LYP/6-31G**
 -------------------------

 ------
 Frag_1
 ------
 Symbolic Z-matrix:
 Charge =  0 Multiplicity = 1

 SCF Done:  E(RB3LYP) =  -232.258212211     A.U. after   10 cycles
 Optimization completed.
    -- Stationary point found.
 Normal termination of Gaussian 09 at Thu Jul 22 16:33:55 2021.

 ----------------------------------------------------------------------
 #P Geom=AllCheck Guess=TCheck SCRF=Check GenChk RB3LYP/6-31G(d,p) Freq
 ----------------------------------------------------------------------

 Structure from the checkpoint file:  "/vol2/users/liuj201281/HOFBenchmark/IsodesmicSplit/Sample60/Ring26/Running/Gau-395519.chk"
 ------
 Frag_1
 ------
 Charge =  0 Multiplicity = 1

                         Standard orientation:
 ---------------------------------------------------------------------
 Center     Atomic      Atomic             Coordinates (Angstroms)
 Number     Number       Type             X           Y           Z
 ---------------------------------------------------------------------
      1          6           0        0.000000    1.396400    0.000000
      2          6           0       -1.209400    0.698200    0.000000
      3          6           0       -1.209400   -0.698300    0.000000
      4          6           0        0.000000   -1.396400    0.000000
      5          6           0        1.209400   -0.698200    0.000000
      6          6           0        1.209400    0.698300    0.000000
      7          1           0        0.000000    2.482800    0.000000
      8          1           0       -2.150200    1.241400    0.000000
      9          1           0       -2.150200   -1.241400    0.000000
     10          1           0        0.000000   -2.482800    0.000000
     11          1           0        2.150200   -1.241400    0.000000
     12          1           0        2.150200    1.241400    0.000000
 ---------------------------------------------------------------------

 SCF Done:  E(RB3LYP) =  -232.258212211     A.U. after    1 cycles

 The electronic state is 1-AG.
 Alpha  occ. eigenvalues --  -10.18804 -10.18777 -10.18777 -10.18722 -10.18722
 Alpha  occ. eigenvalues --  -10.18695  -0.84665  -0.73998  -0.73996  -0.59735
 Alpha  occ. eigenvalues --   -0.59733  -0.51783  -0.45820  -0.43848  -0.41653
 Alpha  occ. eigenvalues --   -0.41650  -0.35990  -0.33963  -0.33958  -0.24689
 Alpha  occ. eigenvalues --   -0.24688
 Alpha virt. eigenvalues --    0.00260   0.00262   0.09109   0.14508   0.14509
 Alpha virt. eigenvalues --    0.16176   0.18176   0.18177   0.19060   0.30059
 Alpha virt. eigenvalues --    0.30061   0.31805   0.31809   0.46732   0.52700

 Mulliken charges:
               1
     1  C   -0.084500
     2  C   -0.084471
     3  C   -0.084447
     4  C   -0.084500
     5  C   -0.084471
     6  C   -0.084447
     7  H    0.084469
     8  H    0.084472
     9  H    0.084477
    10  H    0.084469
    11  H    0.084472
    12  H    0.084477
 Sum of Mulliken charges =   0.00000

 Dipole moment (field-independent basis, Debye):
    X=              0.0000    Y=              0.0000    Z=              0.0000  Tot=              0.0000
 Quadrupole moment (field-independent basis, Debye-Ang):
   XX=            -31.4709   YY=            -31.4731   ZZ=            -38.5367
   XY=              0.0003   XZ=              0.0000   YZ=              0.0000

  Exact polarizability:  71.806   0.000  71.804   0.000   0.000  21.426
 Approx polarizability: 119.489   0.001 119.479   0.000   0.000  32.014

                      1                      2                      3
                     AU                     AU                     AG
 Frequencies --    414.4039               415.2048               621.1367
 Red. masses --      2.9420                 2.9450                 6.0758
 Frc consts  --      0.2977                 0.2991                 1.3811
 IR Inten    --      0.0000                 0.0001                 0.0000

                      4                      5                      6
                     AG                     AU                     BG
 Frequencies --    621.1433               694.5651               718.3972
 Red. masses --      6.0767                 1.0848                 3.8764
 Frc consts  --      1.3813                 0.3083                 1.1787
 IR Inten    --      0.0000                74.2735                 0.0000

                      7                      8                      9
                     BG                     BG                     AU
 Frequencies --    864.6822               865.7636               974.1945
 Red. masses --      1.2476                 1.2476                 1.3593
 Frc consts  --      0.5496                 0.5510                 0.7601
 IR Inten    --      0.0000                 0.0000                 0.0000

                     10                     11                     12
                     AU                     BG                     BU
 Frequencies --    974.9157              1013.2007              1017.8325
 Red. masses --      1.3587                 1.2231                 6.5556
 Frc consts  --      0.7608                 0.7398                 4.0015
 IR Inten    --      0.0005                 0.0000                 0.0000

                     13                     14                     15
                     AG                     BU                     BU
 Frequencies --   1019.1812              1066.2256              1066.5885
 Red. masses --      6.0154                 1.6875                 1.6879
 Frc consts  --      3.6814                 1.1303                 1.1314
 IR Inten    --      0.0000                 3.3766                 3.3716

                     16                     17                     18
                     BU                     AG                     AG
 Frequencies --   1179.5970              1202.4168              1202.4996
 Red. masses --      1.0816                 1.1346                 1.1349
 Frc consts  --      0.8867                 0.9665                 0.9669
 IR Inten    --      0.0000                 0.0000                 0.0000

                     19                     20                     21
                     BU                     AG                     BU
 Frequencies --   1354.8477              1380.7321              1524.1875
 Red. masses --      6.6220                 1.2476                 2.0334
 Frc consts  --      7.1618                 1.4013                 2.7833
 IR Inten    --      0.0000                 0.0000                 6.6418

                     22                     23                     24
                     BU                     AG                     AG
 Frequencies --   1524.5247              1652.1639              1652.3993
 Red. masses --      2.0327                 5.3780                 5.3825
 Frc consts  --      2.7835                 8.6492                 8.6590
 IR Inten    --      6.6386                 0.0000                 0.0000

                     25                     26                     27
                     BU                     AG                     AG
 Frequencies --   3172.6005              3181.8879              3182.4531
 Red. masses --      1.0834                 1.0876                 1.0876
 Frc consts  --      6.4249                 6.4876                 6.4899
 IR Inten    --      0.0113                 0.0000                 0.0000

                     28                     29                     30
                     BU                     BU                     AG
 Frequencies --   3197.5983              3198.0895              3208.4329
 Red. masses --      1.0953                 1.0953                 1.0997
 Frc consts  --      6.5983                 6.6002                 6.6698
 IR Inten    --     46.6448                46.5896                 0.0000

 - Thermochemistry -
 -------------------
 Temperature   298.150 Kelvin.  Pressure   1.00000 Atm.
 Atom     1 has atomic number  6 and mass  12.00000

 Molecular mass:    78.04695 amu.
 Principal axes and moments of inertia in atomic units:
                           1         2         3
     Eigenvalues --   317.24432 317.27608 634.52040
           X            0.93747  -0.34806   0.00000
           Y            0.34806   0.93747   0.00000
           Z            0.00000   0.00000   1.00000
 This molecule is an asymmetric top.
 Rotational symmetry number  2.
 Rotational temperatures (Kelvin)      0.27302     0.27299     0.13650
 Rotational constants (GHZ):           5.68881     5.68824     2.84426
 Zero-point vibrational energy     264146.6 (Joules/Mol)
                                   63.13256 (Kcal/Mol)
 Warning -- explicit consideration of   2 degrees of freedom as
           vibrations may cause significant error
 Vibrational temperatures:    596.23   597.39   893.68   893.69   999.32
          (Kelvin)           1033.61  1244.08  1245.64  1401.65  1402.68
                             1457.77  1464.43  1466.37  1534.06  1534.58
                             1697.17  1730.01  1730.13  1949.32  1986.56
                             2192.96  2193.45  2377.09  2377.43  4564.66
                             4578.02  4578.83  4600.63  4601.33  4616.21

 Zero-point correction=                           0.100608 (Hartree/Particle)
 Thermal correction to Energy=                    0.104996
 Thermal correction to Enthalpy=                  0.105940
 Thermal correction to Gibbs Free Energy=         0.073801
 Sum of electronic and zero-point Energies=           -232.157604
 Sum of electronic and thermal Energies=              -232.153216
 Sum of electronic and thermal Enthalpies=            -232.152272
 Sum of electronic and thermal Free Energies=         -232.184411

                     E (Thermal)             CV                S
                      KCal/Mol        Cal/Mol-Kelvin    Cal/Mol-Kelvin
 Total                   65.886             17.141             67.643
 Electronic               0.000              0.000              0.000
 Translational            0.889              2.981             38.979
 Rotational               0.889              2.981             24.283
 Vibrational             64.109             11.180              4.381
 Vibration     1          0.778              1.439              0.911
 Vibration     2          0.779              1.437              0.908

 Optimization completed.
    -- Stationary point found.
 Normal termination of Gaussian 09 at Thu Jul 22 16:34:09 2021.
