 Gaussian 09, Revision E.01,
 Gaussian 09:  ES64L-G09RevE.01 30-Nov-2015

 ----------------------------
 #P OPT Freq B3LYP/6-31G(d,p)
 ----------------------------

 --------
 Frag_750
 --------
 Symbolic Z-matrix:
 Charge =  0 Multiplicity = 1

 SCF Done:  E(RB3LYP) =  -234.609439112     A.U. after   13 cycles
 SCF Done:  E(RB3LYP) =  -234.609523992     A.U. after   10 cycles
 SCF Done:  E(RB3LYP) =  -234.609485917     A.U. after    9 cycles
 SCF Done:  E(RB3LYP) =  -234.609528229     A.U. after    9 cycles
 SCF Done:  E(RB3LYP) =  -234.609527331     A.U. after    8 cycles
 SCF Done:  E(RB3LYP) =  -234.609527165     A.U. after    7 cycles
 SCF Done:  E(RB3LYP) =  -234.609528123     A.U. after    7 cycles
 SCF Done:  E(RB3LYP) =  -234.609528331     A.U. after    6 cycles
 SCF Done:  E(RB3LYP) =  -234.609528711     A.U. after    6 cycles
 SCF Done:  E(RB3LYP) =  -234.609527496     A.U. after    6 cycles
 SCF Done:  E(RB3LYP) =  -234.609527799     A.U. after    6 cycles
 Optimization completed.
    -- Stationary point found.
 Normal termination of Gaussian 09 at Thu Sep  8 15:09:36 2022.

 ----------------------------------------------------------------------
 #P Geom=AllCheck Guess=TCheck SCRF=Check GenChk RB3LYP/6-31G(d,p) Freq
 ----------------------------------------------------------------------

 Structure from the checkpoint file:  "B3LYP6-31Gdp.Frag_750.chk"
 --------
 Frag_750
 --------
 Charge =  0 Multiplicity = 1

                         Standard orientation:
 ---------------------------------------------------------------------
 Center     Atomic      Atomic             Coordinates (Angstroms)
 Number     Number       Type             X           Y           Z
 ---------------------------------------------------------------------
      1          6           0        2.383356   -0.000057    0.000200
      2          6           0        1.174878    0.000006    0.000061
      3          6           0       -0.299060    0.000004   -0.000094
      4          6           0       -0.808389   -1.264635   -0.730121
      5          6           0       -0.808719   -0.000020    1.459996
      6          6           0       -0.808316    1.264701   -0.730048
      7          1           0        3.448593   -0.000102    0.000328
      8          1           0       -0.457067   -1.286825   -1.765768
      9          1           0       -0.455921   -2.172555   -0.232131
     10          1           0       -1.903741   -1.278478   -0.737166
     11          1           0       -1.904097   -0.000516    1.475060
     12          1           0       -0.456664   -0.885323    1.997389
     13          1           0       -0.457343    0.885726    1.997094
     14          1           0       -1.903690    1.278367   -0.737426
     15          1           0       -0.455984    2.172522   -0.231792
     16          1           0       -0.456583    1.287189   -1.765553
 ---------------------------------------------------------------------

 SCF Done:  E(RB3LYP) =  -234.609527799     A.U. after    1 cycles

 The electronic state is 1-A.
 Alpha  occ. eigenvalues --  -10.21994 -10.17870 -10.17870 -10.17869 -10.17656
 Alpha  occ. eigenvalues --  -10.17032  -0.82758  -0.72228  -0.68739  -0.68736
 Alpha  occ. eigenvalues --   -0.59619  -0.51002  -0.46962  -0.43936  -0.43934
 Alpha  occ. eigenvalues --   -0.39238  -0.39233  -0.36680  -0.35885  -0.33996
 Alpha  occ. eigenvalues --   -0.33995  -0.25703  -0.25703
 Alpha virt. eigenvalues --    0.06293   0.06294   0.08427   0.12740   0.13841
 Alpha virt. eigenvalues --    0.15142   0.15144   0.16738   0.16739   0.20306
 Alpha virt. eigenvalues --    0.20316   0.20651   0.22301   0.25497   0.25566

 Mulliken charges:
               1
     1  C   -0.464147
     2  C    0.332976
     3  C   -0.103339
     4  C   -0.291473
     5  C   -0.291527
     6  C   -0.291473
     7  H    0.148784
     8  H    0.110346
     9  H    0.110362
    10  H    0.099349
    11  H    0.099349
    12  H    0.110372
    13  H    0.110364
    14  H    0.099349
    15  H    0.110359
    16  H    0.110350
 Sum of Mulliken charges =  -0.00000

 Dipole moment (field-independent basis, Debye):
    X=             -0.6147    Y=             -0.0001    Z=             -0.0000  Tot=              0.6147
 Quadrupole moment (field-independent basis, Debye-Ang):
   XX=            -34.9854   YY=            -38.5993   ZZ=            -38.6003
   XY=              0.0003   XZ=              0.0003   YZ=             -0.0002

  Exact polarizability:  77.825   0.000  51.356   0.001  -0.001  51.353
 Approx polarizability: 118.291  -0.000  67.927   0.003  -0.001  67.923

                      1                      2                      3
                      A                      A                      A
 Frequencies --    178.6308               179.4571               221.8278
 Red. masses --      2.8507                 2.8812                 1.0137
 Frc consts  --      0.0536                 0.0547                 0.0294
 IR Inten    --      0.2248                 0.2231                 0.0000

                      4                      5                      6
                      A                      A                      A
 Frequencies --    273.7303               278.5986               353.7197
 Red. masses --      1.0582                 1.0562                 2.2736
 Frc consts  --      0.0467                 0.0483                 0.1676
 IR Inten    --      0.0010                 0.0022                 0.3564

                      7                      8                      9
                      A                      A                      A
 Frequencies --    356.4661               381.2914               554.8762
 Red. masses --      2.2746                 2.4678                 4.7650
 Frc consts  --      0.1703                 0.2114                 0.8644
 IR Inten    --      0.3666                 0.1342                 2.1031

                     10                     11                     12
                      A                      A                      A
 Frequencies --    555.2805               623.3660               623.3981
 Red. masses --      4.7602                 1.2101                 1.2100
 Frc consts  --      0.8648                 0.2771                 0.2771
 IR Inten    --      2.0890                46.2662                46.2801

                     13                     14                     15
                      A                      A                      A
 Frequencies --    695.1726               896.3435               934.0356
 Red. masses --      3.8768                 2.1294                 1.7796
 Frc consts  --      1.1038                 1.0080                 0.9147
 IR Inten    --      0.6955                 0.8952                 0.4468

                     16                     17                     18
                      A                      A                      A
 Frequencies --    936.0395               970.4104              1053.8769
 Red. masses --      1.7851                 1.1966                 1.3946
 Frc consts  --      0.9215                 0.6639                 0.9126
 IR Inten    --      0.4399                 0.0000                 0.1518

                     19                     20                     21
                      A                      A                      A
 Frequencies --   1055.5765              1232.0976              1232.6155
 Red. masses --      1.3917                 2.6366                 2.6299
 Frc consts  --      0.9136                 2.3582                 2.3542
 IR Inten    --      0.1592                 6.2059                 6.2533

                     22                     23                     24
                      A                      A                      A
 Frequencies --   1279.8761              1407.2442              1408.5573
 Red. masses --      2.6776                 1.2188                 1.2171
 Frc consts  --      2.5843                 1.4221                 1.4227
 IR Inten    --     24.7568                 3.1606                 3.1595

                     25                     26                     27
                      A                      A                      A
 Frequencies --   1440.1553              1490.2448              1500.4118
 Red. masses --      1.2161                 1.0484                 1.0444
 Frc consts  --      1.4861                 1.3718                 1.3853
 IR Inten    --      0.5987                 0.0008                 0.3101

                     28                     29                     30
                      A                      A                      A
 Frequencies --   1500.4942              1513.8127              1514.0846
 Red. masses --      1.0448                 1.0507                 1.0508
 Frc consts  --      1.3860                 1.4186                 1.4193
 IR Inten    --      0.4363                 4.9533                 5.0196

                     31                     32                     33
                      A                      A                      A
 Frequencies --   1531.8480              2228.4305              3041.9189
 Red. masses --      1.0597                 5.9766                 1.0348
 Frc consts  --      1.4651                17.4865                 5.6415
 IR Inten    --      5.4398                 2.8488                22.1058

                     34                     35                     36
                      A                      A                      A
 Frequencies --   3041.9945              3048.9955              3116.1645
 Red. masses --      1.0348                 1.0357                 1.1023
 Frc consts  --      5.6419                 5.6728                 6.3065
 IR Inten    --     22.0152                25.1136                 5.2731

                     37                     38                     39
                      A                      A                      A
 Frequencies --   3116.2077              3122.7590              3126.3850
 Red. masses --      1.1024                 1.1015                 1.1042
 Frc consts  --      6.3072                 6.3287                 6.3587
 IR Inten    --      5.0397                64.3421                 0.1977

                     40                     41                     42
                      A                      A                      A
 Frequencies --   3130.3136              3130.6329              3490.2809
 Red. masses --      1.1031                 1.1031                 1.1595
 Frc consts  --      6.3686                 6.3699                 8.3220
 IR Inten    --     39.5548                39.3962                60.8690

 - Thermochemistry -
 -------------------
 Temperature   298.150 Kelvin.  Pressure   1.00000 Atm.
 Atom     1 has atomic number  6 and mass  12.00000

 Molecular mass:    82.07825 amu.
 Principal axes and moments of inertia in atomic units:
                           1         2         3
     Eigenvalues --   400.69281 676.11274 676.18290
           X            1.00000   0.00001  -0.00001
           Y           -0.00001   0.99999  -0.00455
           Z            0.00001   0.00455   0.99999
 This molecule is an asymmetric top.
 Rotational symmetry number  1.
 Rotational temperatures (Kelvin)      0.21616     0.12811     0.12809
 Rotational constants (GHZ):           4.50405     2.66929     2.66901
 Zero-point vibrational energy     369452.4 (Joules/Mol)
                                   88.30125 (Kcal/Mol)
 Warning -- explicit consideration of  10 degrees of freedom as
           vibrations may cause significant error
 Vibrational temperatures:    257.01   258.20   319.16   393.84   400.84
          (Kelvin)            508.92   512.87   548.59   798.34   798.92
                              896.88   896.93  1000.20  1289.64  1343.87
                             1346.75  1396.20  1516.29  1518.74  1772.71
                             1773.46  1841.45  2024.71  2026.60  2072.06
                             2144.13  2158.76  2158.87  2178.04  2178.43
                             2203.98  3206.21  4376.64  4376.75  4386.82
                             4483.46  4483.52  4492.95  4498.17  4503.82
                             4504.28  5021.73

 Zero-point correction=                           0.140717 (Hartree/Particle)
 Thermal correction to Energy=                    0.148330
 Thermal correction to Enthalpy=                  0.149274
 Thermal correction to Gibbs Free Energy=         0.110335
 Sum of electronic and zero-point Energies=           -234.468811
 Sum of electronic and thermal Energies=              -234.461198
 Sum of electronic and thermal Enthalpies=            -234.460253
 Sum of electronic and thermal Free Energies=         -234.499193

                     E (Thermal)             CV                S
                      KCal/Mol        Cal/Mol-Kelvin    Cal/Mol-Kelvin
 Total                   93.079             28.376             81.956
 Electronic               0.000              0.000              0.000
 Translational            0.889              2.981             39.129
 Rotational               0.889              2.981             26.707
 Vibrational             91.301             22.414             16.119
 Vibration     1          0.629              1.869              2.343
 Vibration     2          0.629              1.868              2.334
 Vibration     3          0.648              1.808              1.944
 Vibration     4          0.676              1.722              1.573
 Vibration     5          0.679              1.713              1.542
 Vibration     6          0.730              1.568              1.150
 Vibration     7          0.732              1.562              1.137
 Vibration     8          0.751              1.510              1.034
 Vibration     9          0.910              1.129              0.534
 Vibration    10          0.911              1.128              0.533

 Normal termination of Gaussian 09 at Thu Sep  8 15:09:49 2022.
