 Gaussian 09, Revision E.01,
 Gaussian 09:  ES64L-G09RevE.01 30-Nov-2015

 -------------------------
 #P OPT Freq B3LYP/6-31G**
 -------------------------

 --------
 Frag_204
 --------
 Symbolic Z-matrix:
 Charge =  0 Multiplicity = 1

 SCF Done:  E(RB3LYP) =  -243.393212063     A.U. after   14 cycles
 SCF Done:  E(RB3LYP) =  -243.402499742     A.U. after   13 cycles
 SCF Done:  E(RB3LYP) =  -243.404957219     A.U. after   13 cycles
 SCF Done:  E(RB3LYP) =  -243.409029559     A.U. after   14 cycles
 SCF Done:  E(RB3LYP) =  -243.410111249     A.U. after   12 cycles
 SCF Done:  E(RB3LYP) =  -243.410687294     A.U. after   11 cycles
 SCF Done:  E(RB3LYP) =  -243.410822758     A.U. after   11 cycles
 SCF Done:  E(RB3LYP) =  -243.411047640     A.U. after   11 cycles
 SCF Done:  E(RB3LYP) =  -243.411220897     A.U. after   11 cycles
 SCF Done:  E(RB3LYP) =  -243.411389074     A.U. after   11 cycles
 SCF Done:  E(RB3LYP) =  -243.411596641     A.U. after   11 cycles
 SCF Done:  E(RB3LYP) =  -243.411699191     A.U. after   10 cycles
 SCF Done:  E(RB3LYP) =  -243.411727686     A.U. after   11 cycles
 SCF Done:  E(RB3LYP) =  -243.411732085     A.U. after    9 cycles
 SCF Done:  E(RB3LYP) =  -243.411732483     A.U. after    7 cycles
 Optimization completed.
    -- Stationary point found.
 Normal termination of Gaussian 09 at Sat Aug 21 01:38:08 2021.

 ----------------------------------------------------------------------
 #P Geom=AllCheck Guess=TCheck SCRF=Check GenChk RB3LYP/6-31G(d,p) Freq
 ----------------------------------------------------------------------

 Structure from the checkpoint file:  "/public/home/users/caep010/.cache/gau_scr/Gau-108185.chk"
 --------
 Frag_204
 --------
 Charge =  0 Multiplicity = 1

                         Standard orientation:
 ---------------------------------------------------------------------
 Center     Atomic      Atomic             Coordinates (Angstroms)
 Number     Number       Type             X           Y           Z
 ---------------------------------------------------------------------
      1          6           0        1.034193    1.201676   -0.060537
      2          7           0        0.303581   -0.029432    0.248802
      3          7           0        0.924684   -1.267407   -0.057575
      4          6           0       -1.027734   -0.026531    0.051046
      5          7           0       -2.187157    0.016285   -0.075347
      6          1           0        1.978721    1.198015    0.490833
      7          1           0        1.245363    1.297422   -1.135747
      8          1           0        0.443316    2.060969    0.262505
      9          1           0        1.337619   -1.226548   -0.991264
     10          1           0        1.668471   -1.416848    0.619457
 ---------------------------------------------------------------------

 SCF Done:  E(RB3LYP) =  -243.411732483     A.U. after    1 cycles

 The electronic state is 1-A.
 Alpha  occ. eigenvalues --  -14.41924 -14.38142 -14.31717 -10.24547 -10.24188
 Alpha  occ. eigenvalues --   -1.02650  -0.88820  -0.83266  -0.72737  -0.56783
 Alpha  occ. eigenvalues --   -0.53578  -0.52084  -0.45322  -0.43363  -0.36406
 Alpha  occ. eigenvalues --   -0.34809  -0.32195  -0.29008  -0.25033
 Alpha virt. eigenvalues --    0.02922   0.05311   0.08223   0.10707   0.12389
 Alpha virt. eigenvalues --    0.12878   0.14083   0.15531   0.22298   0.24036
 Alpha virt. eigenvalues --    0.44685   0.49978   0.50944   0.51435   0.56981

 Mulliken charges:
               1
     1  C   -0.177572
     2  N   -0.393595
     3  N   -0.436686
     4  C    0.556221
     5  N   -0.467094
     6  H    0.125332
     7  H    0.118991
     8  H    0.149367
     9  H    0.254657
    10  H    0.270379
 Sum of Mulliken charges =  -0.00000

 Dipole moment (field-independent basis, Debye):
    X=              5.6696    Y=              1.0090    Z=             -0.3948  Tot=              5.7722
 Quadrupole moment (field-independent basis, Debye-Ang):
   XX=            -34.2968   YY=            -28.8430   ZZ=            -28.6666
   XY=             -1.3742   XZ=             -0.6596   YZ=              0.2659

  Exact polarizability:  53.572  -2.079  34.463   0.746   0.323  28.236
 Approx polarizability:  84.312  -4.645  44.493   3.714   0.381  39.549

                      1                      2                      3
                      A                      A                      A
 Frequencies --    162.5782               214.7738               234.4628
 Red. masses --      1.8073                 5.1222                 1.3961
 Frc consts  --      0.0281                 0.1392                 0.0452
 IR Inten    --      5.1636                 2.4900                 8.0931

                      4                      5                      6
                      A                      A                      A
 Frequencies --    344.3062               392.6380               530.6607
 Red. masses --      1.1917                 2.4978                 9.0359
 Frc consts  --      0.0832                 0.2269                 1.4992
 IR Inten    --     26.0592                 7.1179                16.0668

                      7                      8                      9
                      A                      A                      A
 Frequencies --    631.0740               776.3918               900.0950
 Red. masses --      6.8320                 5.8962                 1.6388
 Frc consts  --      1.6031                 2.0940                 0.7823
 IR Inten    --      2.3660                22.4377               121.1101

                     10                     11                     12
                      A                      A                      A
 Frequencies --   1082.0043              1140.4292              1190.5292
 Red. masses --      1.4879                 1.3990                 4.6848
 Frc consts  --      1.0263                 1.0721                 3.9122
 IR Inten    --     15.6101                13.3120                12.6892

                     13                     14                     15
                      A                      A                      A
 Frequencies --   1321.7859              1349.6189              1461.3071
 Red. masses --      1.2819                 2.6630                 1.1517
 Frc consts  --      1.3196                 2.8579                 1.4490
 IR Inten    --      5.3260                 5.7343                 2.3282

                     16                     17                     18
                      A                      A                      A
 Frequencies --   1496.7570              1516.7767              1687.0497
 Red. masses --      1.0498                 1.0615                 1.0886
 Frc consts  --      1.3856                 1.4389                 1.8255
 IR Inten    --     15.4759                 5.5393                 9.5499

                     19                     20                     21
                      A                      A                      A
 Frequencies --   2344.2589              3009.8077              3101.6523
 Red. masses --     12.4789                 1.0470                 1.0903
 Frc consts  --     40.4052                 5.5882                 6.1799
 IR Inten    --    116.0002                51.0564                23.9042

                     22                     23                     24
                      A                      A                      A
 Frequencies --   3152.1950              3433.0318              3559.3188
 Red. masses --      1.1033                 1.0508                 1.0922
 Frc consts  --      6.4592                 7.2970                 8.1524
 IR Inten    --      9.4766                 5.8299                 1.9757

 - Thermochemistry -
 -------------------
 Temperature   298.150 Kelvin.  Pressure   1.00000 Atm.
 Atom     1 has atomic number  6 and mass  12.00000

 Molecular mass:    71.04835 amu.
 Principal axes and moments of inertia in atomic units:
                           1         2         3
     Eigenvalues --   195.64350 426.82964 593.58215
           X            0.99984   0.01651  -0.00615
           Y           -0.01652   0.99986  -0.00071
           Z            0.00614   0.00081   0.99998
 This molecule is an asymmetric top.
 Rotational symmetry number  1.
 Rotational temperatures (Kelvin)      0.44271     0.20292     0.14592
 Rotational constants (GHZ):           9.22464     4.22825     3.04042
 Zero-point vibrational energy     209546.9 (Joules/Mol)
                                   50.08291 (Kcal/Mol)
 Warning -- explicit consideration of   6 degrees of freedom as
           vibrations may cause significant error
 Vibrational temperatures:    233.91   309.01   337.34   495.38   564.92
          (Kelvin)            763.50   907.97  1117.05  1295.03  1556.76
                             1640.82  1712.90  1901.75  1941.80  2102.49
                             2153.50  2182.30  2427.29  3372.86  4330.44
                             4462.58  4535.30  4939.36  5121.06

 Zero-point correction=                           0.079812 (Hartree/Particle)
 Thermal correction to Energy=                    0.085585
 Thermal correction to Enthalpy=                  0.086530
 Thermal correction to Gibbs Free Energy=         0.051246
 Sum of electronic and zero-point Energies=           -243.331920
 Sum of electronic and thermal Energies=              -243.326147
 Sum of electronic and thermal Enthalpies=            -243.325203
 Sum of electronic and thermal Free Energies=         -243.360487

                     E (Thermal)             CV                S
                      KCal/Mol        Cal/Mol-Kelvin    Cal/Mol-Kelvin
 Total                   53.706             19.160             74.261
 Electronic               0.000              0.000              0.000
 Translational            0.889              2.981             38.699
 Rotational               0.889              2.981             25.408
 Vibrational             51.928             13.198             10.153
 Vibration     1          0.623              1.888              2.520
 Vibration     2          0.645              1.818              2.003
 Vibration     3          0.654              1.788              1.845
 Vibration     4          0.723              1.587              1.192
 Vibration     5          0.760              1.486              0.990
 Vibration     6          0.886              1.182              0.586

 Normal termination of Gaussian 09 at Sat Aug 21 01:38:16 2021.
