 Gaussian 09, Revision E.01,
 Gaussian 09:  ES64L-G09RevE.01 30-Nov-2015

 --------------------------------
 #P OPT=calcfc Freq B3LYP/6-31G**
 --------------------------------

 --------
 Frag_287
 --------
 Symbolic Z-matrix:
 Charge =  0 Multiplicity = 1

 SCF Done:  E(RB3LYP) =  -269.162247177     A.U. after   12 cycles
 SCF Done:  E(RB3LYP) =  -269.168090998     A.U. after   11 cycles
 SCF Done:  E(RB3LYP) =  -269.168646258     A.U. after   11 cycles
 SCF Done:  E(RB3LYP) =  -269.168702850     A.U. after    9 cycles
 SCF Done:  E(RB3LYP) =  -269.168707645     A.U. after    8 cycles
 Optimization completed.
    -- Stationary point found.
 Normal termination of Gaussian 09 at Fri Sep 10 15:19:05 2021.

 ----------------------------------------------------------------------
 #P Geom=AllCheck Guess=TCheck SCRF=Check GenChk RB3LYP/6-31G(d,p) Freq
 ----------------------------------------------------------------------

 Structure from the checkpoint file:  "/public/home/users/caep010/.cache/gau_scr/Gau-132628.chk"
 --------
 Frag_287
 --------
 Charge =  0 Multiplicity = 1

                         Standard orientation:
 ---------------------------------------------------------------------
 Center     Atomic      Atomic             Coordinates (Angstroms)
 Number     Number       Type             X           Y           Z
 ---------------------------------------------------------------------
      1          6           0       -1.834988    0.640498   -0.588700
      2          6           0       -0.689138   -0.353490   -0.353314
      3          7           0       -0.821365   -1.121514    0.898668
      4          6           0        0.689138    0.353490   -0.353314
      5          6           0        1.834988   -0.640498   -0.588700
      6          7           0        0.821365    1.121515    0.898667
      7          1           0       -2.806894    0.136658   -0.538885
      8          1           0       -1.807747    1.425701    0.173627
      9          1           0       -1.757077    1.120393   -1.571529
     10          1           0       -0.681648   -1.084852   -1.172185
     11          1           0       -1.060386   -0.470344    1.645151
     12          1           0       -1.608572   -1.761366    0.825230
     13          1           0        0.681648    1.084851   -1.172185
     14          1           0        1.757077   -1.120393   -1.571529
     15          1           0        2.806894   -0.136659   -0.538885
     16          1           0        1.807746   -1.425702    0.173627
     17          1           0        1.060388    0.470344    1.645151
     18          1           0        1.608572    1.761368    0.825229
 ---------------------------------------------------------------------

 SCF Done:  E(RB3LYP) =  -269.168707645     A.U. after    1 cycles

 The electronic state is 1-A.
 Alpha  occ. eigenvalues --  -14.30526 -14.30526 -10.20302 -10.20282 -10.16309
 Alpha  occ. eigenvalues --  -10.16309  -0.89381  -0.85333  -0.73621  -0.70438
 Alpha  occ. eigenvalues --   -0.62020  -0.55750  -0.50703  -0.45387  -0.44205
 Alpha  occ. eigenvalues --   -0.41429  -0.40801  -0.39736  -0.38222  -0.37441
 Alpha  occ. eigenvalues --   -0.33720  -0.33232  -0.31393  -0.23939  -0.22301
 Alpha virt. eigenvalues --    0.07167   0.11882   0.12059   0.14039   0.14840
 Alpha virt. eigenvalues --    0.15695   0.17212   0.18012   0.18377   0.18570
 Alpha virt. eigenvalues --    0.20000   0.21136   0.23233   0.24954   0.26363

 Mulliken charges:
               1
     1  C   -0.320700
     2  C    0.069276
     3  N   -0.607909
     4  C    0.069276
     5  C   -0.320700
     6  N   -0.607909
     7  H    0.085185
     8  H    0.122274
     9  H    0.092410
    10  H    0.083363
    11  H    0.240930
    12  H    0.235170
    13  H    0.083363
    14  H    0.092410
    15  H    0.085185
    16  H    0.122274
    17  H    0.240930
    18  H    0.235170
 Sum of Mulliken charges =  -0.00000

 Dipole moment (field-independent basis, Debye):
    X=              0.0000    Y=              0.0000    Z=             -0.1855  Tot=              0.1855
 Quadrupole moment (field-independent basis, Debye-Ang):
   XX=            -36.1498   YY=            -41.2812   ZZ=            -38.2972
   XY=              3.9451   XZ=              0.0000   YZ=              0.0000

  Exact polarizability:  62.066   2.185  55.817   0.000  -0.000  56.639
 Approx polarizability:  75.374   4.432  77.996   0.000  -0.000  81.232

                      1                      2                      3
                      A                      A                      A
 Frequencies --     96.6926               208.8369               229.9333
 Red. masses --      2.9385                 1.0698                 1.4720
 Frc consts  --      0.0162                 0.0275                 0.0459
 IR Inten    --      0.7161               101.4267                 0.2622

                      4                      5                      6
                      A                      A                      A
 Frequencies --    243.6984               275.2917               297.4984
 Red. masses --      1.1474                 1.5533                 2.6948
 Frc consts  --      0.0401                 0.0694                 0.1405
 IR Inten    --      0.2963                 0.0627                 0.3414

                      7                      8                      9
                      A                      A                      A
 Frequencies --    335.3262               385.1433               421.4430
 Red. masses --      1.9295                 1.1914                 2.1540
 Frc consts  --      0.1278                 0.1041                 0.2254
 IR Inten    --      0.0139                 8.5813                 9.4741

                     10                     11                     12
                      A                      A                      A
 Frequencies --    510.3502               615.0778               759.8746
 Red. masses --      2.5383                 2.3775                 2.3953
 Frc consts  --      0.3895                 0.5300                 0.8149
 IR Inten    --      3.1451                10.9520                 0.1271

                     13                     14                     15
                      A                      A                      A
 Frequencies --    873.9367               903.1084               934.0480
 Red. masses --      2.4161                 1.6969                 1.2493
 Frc consts  --      1.0872                 0.8154                 0.6422
 IR Inten    --     80.6241               118.1467                81.3914

                     16                     17                     18
                      A                      A                      A
 Frequencies --    966.1602               996.2240              1003.1615
 Red. masses --      1.3314                 1.2420                 1.7686
 Frc consts  --      0.7322                 0.7262                 1.0486
 IR Inten    --     12.9994                 6.8035                 3.5083

                     19                     20                     21
                      A                      A                      A
 Frequencies --   1059.6548              1085.9606              1119.9400
 Red. masses --      3.2664                 1.3344                 1.4859
 Frc consts  --      2.1610                 0.9272                 1.0980
 IR Inten    --     16.2299                 1.7023                41.3639

                     22                     23                     24
                      A                      A                      A
 Frequencies --   1188.2392              1228.0730              1288.4211
 Red. masses --      1.6326                 2.2229                 1.7379
 Frc consts  --      1.3581                 1.9752                 1.6997
 IR Inten    --      5.2356                 0.3636                 1.6913

                     25                     26                     27
                      A                      A                      A
 Frequencies --   1335.4492              1382.9489              1404.6528
 Red. masses --      1.2105                 1.3981                 1.3520
 Frc consts  --      1.2720                 1.5754                 1.5717
 IR Inten    --      7.9969                 4.6937                 0.4119

                     28                     29                     30
                      A                      A                      A
 Frequencies --   1409.7225              1418.6319              1420.1780
 Red. masses --      1.2522                 1.2744                 1.3189
 Frc consts  --      1.4662                 1.5111                 1.5673
 IR Inten    --     14.6514                 9.6652                 4.6996

                     31                     32                     33
                      A                      A                      A
 Frequencies --   1501.0805              1503.7775              1517.1472
 Red. masses --      1.0474                 1.0449                 1.0539
 Frc consts  --      1.3905                 1.3922                 1.4293
 IR Inten    --      2.3567                 3.7543                 4.0928

                     34                     35                     36
                      A                      A                      A
 Frequencies --   1520.2664              1647.3297              1674.3032
 Red. masses --      1.0685                 1.0918                 1.0903
 Frc consts  --      1.4550                 1.7456                 1.8008
 IR Inten    --      0.6230                32.4407                23.3495

                     37                     38                     39
                      A                      A                      A
 Frequencies --   3030.2737              3031.5886              3036.9349
 Red. masses --      1.0433                 1.0361                 1.0845
 Frc consts  --      5.6444                 5.6103                 5.8932
 IR Inten    --      0.3642                43.7277                31.1906

                     40                     41                     42
                      A                      A                      A
 Frequencies --   3043.0616              3098.3156              3098.5661
 Red. masses --      1.0771                 1.1019                 1.1018
 Frc consts  --      5.8769                 6.2320                 6.2326
 IR Inten    --     39.2384                49.6831                30.5766

                     43                     44                     45
                      A                      A                      A
 Frequencies --   3120.3309              3121.1381              3480.1651
 Red. masses --      1.1020                 1.1020                 1.0499
 Frc consts  --      6.3218                 6.3250                 7.4923
 IR Inten    --     22.4175                32.9925                 1.7937

                     46                     47                     48
                      A                      A                      A
 Frequencies --   3482.6874              3565.2680              3567.5297
 Red. masses --      1.0501                 1.0914                 1.0915
 Frc consts  --      7.5040                 8.1740                 8.1846
 IR Inten    --      0.2949                 0.3491                 0.1338

 - Thermochemistry -
 -------------------
 Temperature   298.150 Kelvin.  Pressure   1.00000 Atm.
 Atom     1 has atomic number  6 and mass  12.00000

 Molecular mass:    88.10005 amu.
 Principal axes and moments of inertia in atomic units:
                           1         2         3
     Eigenvalues --   403.19915 704.86658 757.13868
           X            0.99980  -0.02023   0.00000
           Y            0.02023   0.99980   0.00000
           Z           -0.00000  -0.00000   1.00000
 This molecule is an asymmetric top.
 Rotational symmetry number  1.
 Rotational temperatures (Kelvin)      0.21482     0.12288     0.11440
 Rotational constants (GHZ):           4.47605     2.56040     2.38363
 Zero-point vibrational energy     439253.4 (Joules/Mol)
                                  104.98409 (Kcal/Mol)
 Warning -- explicit consideration of  11 degrees of freedom as
           vibrations may cause significant error
 Vibrational temperatures:    139.12   300.47   330.82   350.63   396.08
          (Kelvin)            428.03   482.46   554.13   606.36   734.28
                              884.96  1093.29  1257.40  1299.37  1343.89
                             1390.09  1433.34  1443.32  1524.61  1562.45
                             1611.34  1709.61  1766.92  1853.75  1921.41
                             1989.75  2020.98  2028.27  2041.09  2043.32
                             2159.72  2163.60  2182.83  2187.32  2370.14
                             2408.95  4359.88  4361.77  4369.47  4378.28
                             4457.78  4458.14  4489.45  4490.62  5007.18
                             5010.80  5129.62  5132.87

 Zero-point correction=                           0.167303 (Hartree/Particle)
 Thermal correction to Energy=                    0.175228
 Thermal correction to Enthalpy=                  0.176172
 Thermal correction to Gibbs Free Energy=         0.136236
 Sum of electronic and zero-point Energies=           -269.001405
 Sum of electronic and thermal Energies=              -268.993479
 Sum of electronic and thermal Enthalpies=            -268.992535
 Sum of electronic and thermal Free Energies=         -269.032472

                     E (Thermal)             CV                S
                      KCal/Mol        Cal/Mol-Kelvin    Cal/Mol-Kelvin
 Total                  109.957             29.290             84.053
 Electronic               0.000              0.000              0.000
 Translational            0.889              2.981             39.340
 Rotational               0.889              2.981             26.867
 Vibrational            108.180             23.329             17.846
 Vibration     1          0.603              1.952              3.520
 Vibration     2          0.642              1.827              2.054
 Vibration     3          0.652              1.795              1.879
 Vibration     4          0.659              1.773              1.776
 Vibration     5          0.677              1.719              1.563
 Vibration     6          0.691              1.678              1.431
 Vibration     7          0.716              1.605              1.234
 Vibration     8          0.754              1.502              1.019
 Vibration     9          0.784              1.424              0.887
 Vibration    10          0.865              1.227              0.633
 Vibration    11          0.975              1.000              0.424

 Optimization completed.
    -- Stationary point found.
 Normal termination of Gaussian 09 at Fri Sep 10 15:19:20 2021.
