 Gaussian 09, Revision E.01,
 Gaussian 09:  ES64L-G09RevE.01 30-Nov-2015

 ----------------------------
 #P OPT Freq B3LYP/6-31G(d,p)
 ----------------------------

 ---------
 Frag_1083
 ---------
 Symbolic Z-matrix:
 Charge =  0 Multiplicity = 1

 SCF Done:  E(RB3LYP) =  -319.814619000     A.U. after   14 cycles
 SCF Done:  E(RB3LYP) =  -319.814689994     A.U. after    9 cycles
 SCF Done:  E(RB3LYP) =  -319.814695293     A.U. after    8 cycles
 SCF Done:  E(RB3LYP) =  -319.814696215     A.U. after    8 cycles
 SCF Done:  E(RB3LYP) =  -319.814696804     A.U. after    8 cycles
 SCF Done:  E(RB3LYP) =  -319.814696968     A.U. after    7 cycles
 SCF Done:  E(RB3LYP) =  -319.814697079     A.U. after    7 cycles
 Optimization completed.
    -- Stationary point found.
 Normal termination of Gaussian 09 at Thu Sep  8 14:54:17 2022.

 ----------------------------------------------------------------------
 #P Geom=AllCheck Guess=TCheck SCRF=Check GenChk RB3LYP/6-31G(d,p) Freq
 ----------------------------------------------------------------------

 Structure from the checkpoint file:  "B3LYP6-31Gdp.Frag_1083.chk"
 ---------
 Frag_1083
 ---------
 Charge =  0 Multiplicity = 1

                         Standard orientation:
 ---------------------------------------------------------------------
 Center     Atomic      Atomic             Coordinates (Angstroms)
 Number     Number       Type             X           Y           Z
 ---------------------------------------------------------------------
      1          6           0        1.453289    1.137146    0.152146
      2          6           0        0.736363    0.011142   -0.044968
      3          8           0        1.284339   -1.231240   -0.100903
      4          7           0       -0.647856   -0.023517   -0.280987
      5          7           0       -1.364470    1.173906   -0.039219
      6          7           0       -1.305446   -1.184330    0.183529
      7          1           0        2.532033    1.083461    0.242718
      8          1           0        1.006498    2.118884    0.162682
      9          1           0        2.240475   -1.127312   -0.008595
     10          1           0       -0.996504    1.636499    0.798590
     11          1           0       -1.206605    1.800421   -0.825523
     12          1           0       -2.137103   -1.287242   -0.391324
     13          1           0       -1.627014   -1.026928    1.142360
 ---------------------------------------------------------------------

 SCF Done:  E(RB3LYP) =  -319.814697079     A.U. after    1 cycles

 The electronic state is 1-A.
 Alpha  occ. eigenvalues --  -19.17315 -14.39456 -14.35369 -14.34448 -10.27203
 Alpha  occ. eigenvalues --  -10.15645  -1.06808  -1.00987  -0.86791  -0.77497
 Alpha  occ. eigenvalues --   -0.69855  -0.59735  -0.52793  -0.51428  -0.50407
 Alpha  occ. eigenvalues --   -0.47225  -0.46275  -0.40547  -0.38767  -0.36486
 Alpha  occ. eigenvalues --   -0.28444  -0.27266  -0.24866  -0.20056
 Alpha virt. eigenvalues --    0.04885   0.07411   0.08687   0.10738   0.14108
 Alpha virt. eigenvalues --    0.15258   0.16417   0.18372   0.18981   0.23545
 Alpha virt. eigenvalues --    0.27682   0.35311   0.39152   0.55873   0.57024

 Mulliken charges:
               1
     1  C   -0.370548
     2  C    0.567048
     3  O   -0.509560
     4  N   -0.294895
     5  N   -0.450117
     6  N   -0.407457
     7  H    0.074049
     8  H    0.072591
     9  H    0.319171
    10  H    0.236301
    11  H    0.266982
    12  H    0.259992
    13  H    0.236441
 Sum of Mulliken charges =  -0.00000

 Dipole moment (field-independent basis, Debye):
    X=              0.2426    Y=              1.3887    Z=              0.6531  Tot=              1.5537
 Quadrupole moment (field-independent basis, Debye-Ang):
   XX=            -29.9639   YY=            -36.4579   ZZ=            -35.8028
   XY=             -0.6272   XZ=             -0.1774   YZ=             -0.8694

  Exact polarizability:  56.571   6.520  54.810   1.096   0.880  29.753
 Approx polarizability:  74.715  12.247  83.341   3.572   3.695  43.580

                      1                      2                      3
                      A                      A                      A
 Frequencies --     77.8350               232.2618               318.3573
 Red. masses --      4.4745                 1.6725                 1.8410
 Frc consts  --      0.0160                 0.0532                 0.1099
 IR Inten    --      2.4096                37.6328                37.9690

                      4                      5                      6
                      A                      A                      A
 Frequencies --    327.0157               354.3626               390.6807
 Red. masses --      2.2956                 1.0641                 1.1919
 Frc consts  --      0.1446                 0.0787                 0.1072
 IR Inten    --     11.4431               109.0813                16.4270

                      7                      8                      9
                      A                      A                      A
 Frequencies --    445.9244               521.6993               548.9489
 Red. masses --      3.2540                 2.2315                 4.8835
 Frc consts  --      0.3812                 0.3578                 0.8670
 IR Inten    --     30.4683                 8.2087                 4.8727

                     10                     11                     12
                      A                      A                      A
 Frequencies --    666.6571               679.2842               702.7911
 Red. masses --      1.5025                 1.2550                 2.8372
 Frc consts  --      0.3934                 0.3412                 0.8256
 IR Inten    --     19.3408                 3.9865                79.6859

                     13                     14                     15
                      A                      A                      A
 Frequencies --    775.3853               905.8166               949.0083
 Red. masses --      4.4625                 2.0128                 1.5954
 Frc consts  --      1.5807                 0.9731                 0.8466
 IR Inten    --     28.9253               175.5913                34.3617

                     16                     17                     18
                      A                      A                      A
 Frequencies --    984.3939              1129.4626              1229.3501
 Red. masses --      1.8162                 2.3399                 1.8668
 Frc consts  --      1.0369                 1.7587                 1.6623
 IR Inten    --     49.2932                85.4407               148.8965

                     19                     20                     21
                      A                      A                      A
 Frequencies --   1258.8811              1313.8866              1348.9765
 Red. masses --      2.0402                 1.2241                 1.2188
 Frc consts  --      1.9049                 1.2451                 1.3067
 IR Inten    --      2.1539                 1.4159                21.9352

                     22                     23                     24
                      A                      A                      A
 Frequencies --   1427.7487              1480.3034              1682.3588
 Red. masses --      2.0687                 1.5087                 1.0865
 Frc consts  --      2.4846                 1.9478                 1.8119
 IR Inten    --     43.5765                12.4799                18.8875

                     25                     26                     27
                      A                      A                      A
 Frequencies --   1692.6583              1710.2534              3192.5730
 Red. masses --      1.9142                 1.7423                 1.0646
 Frc consts  --      3.2313                 3.0026                 6.3933
 IR Inten    --    149.2909               113.8274                 2.1866

                     28                     29                     30
                      A                      A                      A
 Frequencies --   3292.3578              3383.3958              3411.0234
 Red. masses --      1.1109                 1.0551                 1.0559
 Frc consts  --      7.0948                 7.1161                 7.2385
 IR Inten    --      8.0993                15.8511                15.4078

                     31                     32                     33
                      A                      A                      A
 Frequencies --   3537.0646              3558.2617              3828.0232
 Red. masses --      1.0862                 1.0858                 1.0655
 Frc consts  --      8.0064                 8.1002                 9.1997
 IR Inten    --      0.7533                 1.7906                31.1566

 - Thermochemistry -
 -------------------
 Temperature   298.150 Kelvin.  Pressure   1.00000 Atm.
 Atom     1 has atomic number  6 and mass  12.00000

 Molecular mass:    89.05891 amu.
 Principal axes and moments of inertia in atomic units:
                           1         2         3
     Eigenvalues --   353.60160 505.18151 823.53970
           X            0.99760   0.06923  -0.00054
           Y           -0.06923   0.99760  -0.00213
           Z            0.00040   0.00216   1.00000
 This molecule is an asymmetric top.
 Rotational symmetry number  1.
 Rotational temperatures (Kelvin)      0.24495     0.17145     0.10517
 Rotational constants (GHZ):           5.10388     3.57246     2.19144
 Zero-point vibrational energy     283257.8 (Joules/Mol)
                                   67.70023 (Kcal/Mol)
 Warning -- explicit consideration of   9 degrees of freedom as
           vibrations may cause significant error
 Vibrational temperatures:    111.99   334.17   458.04   470.50   509.85
          (Kelvin)            562.10   641.58   750.61   789.81   959.17
                              977.34  1011.16  1115.61  1303.27  1365.41
                             1416.32  1625.04  1768.76  1811.25  1890.39
                             1940.87  2054.21  2129.82  2420.54  2435.35
                             2460.67  4593.39  4736.96  4867.95  4907.70
                             5089.04  5119.54  5507.66

 Zero-point correction=                           0.107887 (Hartree/Particle)
 Thermal correction to Energy=                    0.114807
 Thermal correction to Enthalpy=                  0.115751
 Thermal correction to Gibbs Free Energy=         0.077672
 Sum of electronic and zero-point Energies=           -319.706810
 Sum of electronic and thermal Energies=              -319.699890
 Sum of electronic and thermal Enthalpies=            -319.698946
 Sum of electronic and thermal Free Energies=         -319.737025

                     E (Thermal)             CV                S
                      KCal/Mol        Cal/Mol-Kelvin    Cal/Mol-Kelvin
 Total                   72.042             25.518             80.144
 Electronic               0.000              0.000              0.000
 Translational            0.889              2.981             39.373
 Rotational               0.889              2.981             26.489
 Vibrational             70.265             19.556             14.283
 Vibration     1          0.599              1.964              3.945
 Vibration     2          0.653              1.792              1.861
 Vibration     3          0.705              1.638              1.319
 Vibration     4          0.711              1.621              1.275
 Vibration     5          0.730              1.566              1.147
 Vibration     6          0.758              1.490              0.998
 Vibration     7          0.805              1.370              0.808
 Vibration     8          0.877              1.202              0.606
 Vibration     9          0.904              1.142              0.546

 Optimization completed.
    -- Stationary point found.
 Normal termination of Gaussian 09 at Thu Sep  8 14:54:27 2022.
