 Gaussian 09, Revision E.01,
 Gaussian 09:  ES64L-G09RevE.01 30-Nov-2015

 -------------------------
 #P OPT Freq B3LYP/6-31G**
 -------------------------

 --------
 Frag_274
 --------
 Symbolic Z-matrix:
 Charge =  0 Multiplicity = 1

 SCF Done:  E(RB3LYP) =  -341.941619439     A.U. after   15 cycles
 SCF Done:  E(RB3LYP) =  -341.956123544     A.U. after   12 cycles
 SCF Done:  E(RB3LYP) =  -341.957316761     A.U. after   12 cycles
 SCF Done:  E(RB3LYP) =  -341.957693675     A.U. after   12 cycles
 SCF Done:  E(RB3LYP) =  -341.957657191     A.U. after   13 cycles
 SCF Done:  E(RB3LYP) =  -341.957909651     A.U. after   11 cycles
 SCF Done:  E(RB3LYP) =  -341.958205093     A.U. after   12 cycles
 SCF Done:  E(RB3LYP) =  -341.958108622     A.U. after   15 cycles
 SCF Done:  E(RB3LYP) =  -341.958807589     A.U. after   12 cycles
 SCF Done:  E(RB3LYP) =  -341.959619585     A.U. after   12 cycles
 SCF Done:  E(RB3LYP) =  -341.962623936     A.U. after    7 cycles
 SCF Done:  E(RB3LYP) =  -341.962625197     A.U. after    8 cycles
 SCF Done:  E(RB3LYP) =  -341.962627523     A.U. after   10 cycles
 SCF Done:  E(RB3LYP) =  -341.962630249     A.U. after    8 cycles
 SCF Done:  E(RB3LYP) =  -341.962633129     A.U. after   10 cycles
 SCF Done:  E(RB3LYP) =  -341.962632584     A.U. after    8 cycles
 SCF Done:  E(RB3LYP) =  -341.962632272     A.U. after   10 cycles
 SCF Done:  E(RB3LYP) =  -341.962634023     A.U. after   10 cycles
 SCF Done:  E(RB3LYP) =  -341.962634098     A.U. after    7 cycles
 Optimization completed.
    -- Stationary point found.
 Normal termination of Gaussian 09 at Sat Aug 21 01:39:24 2021.

 ----------------------------------------------------------------------
 #P Geom=AllCheck Guess=TCheck SCRF=Check GenChk RB3LYP/6-31G(d,p) Freq
 ----------------------------------------------------------------------

 Structure from the checkpoint file:  "/public/home/users/caep010/.cache/gau_scr/Gau-16887.chk"
 --------
 Frag_274
 --------
 Charge =  0 Multiplicity = 1

                         Standard orientation:
 ---------------------------------------------------------------------
 Center     Atomic      Atomic             Coordinates (Angstroms)
 Number     Number       Type             X           Y           Z
 ---------------------------------------------------------------------
      1          7           0       -1.511465   -1.213844   -0.028802
      2          6           0       -0.998742    0.057134    0.001166
      3          8           0       -1.729557    1.040755    0.003744
      4          6           0        0.509265    0.217803    0.000563
      5          7           0        0.989739    1.576461    0.002010
      6          6           0        1.375255   -0.782182    0.748439
      7          6           0        1.369286   -0.782080   -0.752303
      8          1           0       -0.949816   -2.036151    0.114966
      9          1           0       -2.512287   -1.299977    0.062337
     10          1           0        0.592781    2.056195   -0.804714
     11          1           0        0.586024    2.057656    0.804511
     12          1           0        2.241362   -0.361173    1.247039
     13          1           0        0.892619   -1.592336    1.287296
     14          1           0        2.233596   -0.364319   -1.256775
     15          1           0        0.873876   -1.588307   -1.284266
 ---------------------------------------------------------------------

 SCF Done:  E(RB3LYP) =  -341.962634098     A.U. after    1 cycles

 The electronic state is 1-A.
 Alpha  occ. eigenvalues --  -19.10907 -14.35651 -14.31287 -10.28582 -10.23032
 Alpha  occ. eigenvalues --  -10.19962 -10.19827  -1.02885  -0.91120  -0.89798
 Alpha  occ. eigenvalues --   -0.81908  -0.64603  -0.61371  -0.56381  -0.54954
 Alpha  occ. eigenvalues --   -0.48894  -0.48150  -0.47049  -0.42275  -0.40503
 Alpha  occ. eigenvalues --   -0.40242  -0.37153  -0.32380  -0.28782  -0.26729
 Alpha  occ. eigenvalues --   -0.25339  -0.24136
 Alpha virt. eigenvalues --    0.02575   0.06132   0.10349   0.11729   0.12437
 Alpha virt. eigenvalues --    0.13501   0.15506   0.17408   0.19616   0.21337
 Alpha virt. eigenvalues --    0.22164   0.26299   0.26623   0.29524   0.35949

 Mulliken charges:
               1
     1  N   -0.626749
     2  C    0.575765
     3  O   -0.519656
     4  C    0.085081
     5  N   -0.596924
     6  C   -0.222835
     7  C   -0.218166
     8  H    0.264375
     9  H    0.278687
    10  H    0.249775
    11  H    0.249147
    12  H    0.135657
    13  H    0.101389
    14  H    0.134918
    15  H    0.109536
 Sum of Mulliken charges =  -0.00000

 Dipole moment (field-independent basis, Debye):
    X=              0.3788    Y=             -3.0794    Z=              0.3338  Tot=              3.1205
 Quadrupole moment (field-independent basis, Debye-Ang):
   XX=            -44.7668   YY=            -38.2119   ZZ=            -40.4298
   XY=              4.5627   XZ=             -0.6230   YZ=             -0.7061

  Exact polarizability:  59.496  -1.424  61.777  -0.044  -0.114  43.735
 Approx polarizability:  80.371  -7.530  94.856   0.091   0.194  64.160

                      1                      2                      3
                      A                      A                      A
 Frequencies --     41.6766               175.5242               200.9739
 Red. masses --      3.5827                 1.4234                 1.1369
 Frc consts  --      0.0037                 0.0258                 0.0271
 IR Inten    --     16.3107               188.3477                11.8569

                      4                      5                      6
                      A                      A                      A
 Frequencies --    253.4272               296.1539               357.6217
 Red. masses --      3.4091                 1.9229                 3.6941
 Frc consts  --      0.1290                 0.0994                 0.2784
 IR Inten    --     10.8018                35.8806                11.9576

                      7                      8                      9
                      A                      A                      A
 Frequencies --    403.4445               472.1948               522.3337
 Red. masses --      2.2246                 2.9549                 4.4204
 Frc consts  --      0.2133                 0.3882                 0.7106
 IR Inten    --      5.5883                 6.8696                 6.9509

                     10                     11                     12
                      A                      A                      A
 Frequencies --    551.2550               701.1710               756.5673
 Red. masses --      1.1581                 3.1731                 4.9374
 Frc consts  --      0.2073                 0.9191                 1.6651
 IR Inten    --     19.8374                 5.0214                11.0229

                     13                     14                     15
                      A                      A                      A
 Frequencies --    790.6178               884.9725               887.0817
 Red. masses --      1.0610                 2.1193                 3.6264
 Frc consts  --      0.3907                 0.9779                 1.6813
 IR Inten    --      0.2616                35.0963                 5.1796

                     16                     17                     18
                      A                      A                      A
 Frequencies --    928.9566               951.0233              1043.4276
 Red. masses --      1.6976                 1.2828                 1.3172
 Frc consts  --      0.8631                 0.6836                 0.8450
 IR Inten    --    132.7874                 0.1580                34.8882

                     19                     20                     21
                      A                      A                      A
 Frequencies --   1059.1978              1076.9712              1094.0405
 Red. masses --      1.8309                 1.3676                 1.9489
 Frc consts  --      1.2102                 0.9346                 1.3744
 IR Inten    --      6.2311                 2.0278                 3.3567

                     22                     23                     24
                      A                      A                      A
 Frequencies --   1200.0988              1227.2126              1293.9350
 Red. masses --      1.2861                 2.6670                 1.3306
 Frc consts  --      1.0913                 2.3665                 1.3126
 IR Inten    --      0.0650                78.4907                 0.3053

                     25                     26                     27
                      A                      A                      A
 Frequencies --   1347.2210              1388.8840              1475.4064
 Red. masses --      3.2193                 3.8735                 1.0891
 Frc consts  --      3.4427                 4.4023                 1.3968
 IR Inten    --     13.3082                65.7272                 2.3035

                     28                     29                     30
                      A                      A                      A
 Frequencies --   1514.8096              1626.3420              1684.3034
 Red. masses --      1.3837                 1.2560                 1.0964
 Frc consts  --      1.8707                 1.9573                 1.8326
 IR Inten    --      6.1484               110.4648                10.7294

                     31                     32                     33
                      A                      A                      A
 Frequencies --   1782.4118              3146.1111              3151.8769
 Red. masses --      9.0091                 1.0531                 1.0576
 Frc consts  --     16.8636                 6.1412                 6.1903
 IR Inten    --    297.1457                14.5715                 7.3132

                     34                     35                     36
                      A                      A                      A
 Frequencies --   3233.2868              3245.9683              3482.6776
 Red. masses --      1.1183                 1.1162                 1.0503
 Frc consts  --      6.8881                 6.9293                 7.5055
 IR Inten    --      0.5975                 9.9567                 0.3103

                     37                     38                     39
                      A                      A                      A
 Frequencies --   3549.5708              3608.9197              3745.5811
 Red. masses --      1.0903                 1.0454                 1.1042
 Frc consts  --      8.0934                 8.0218                 9.1270
 IR Inten    --      1.1859                28.0039                31.8254

 - Thermochemistry -
 -------------------
 Temperature   298.150 Kelvin.  Pressure   1.00000 Atm.
 Atom     1 has atomic number  7 and mass  14.00307

 Molecular mass:   100.06366 amu.
 Principal axes and moments of inertia in atomic units:
                           1         2         3
     Eigenvalues --   460.39634 695.603231003.60733
           X            0.99894   0.04598  -0.00171
           Y           -0.04598   0.99894  -0.00376
           Z            0.00153   0.00384   0.99999
 This molecule is an asymmetric top.
 Rotational symmetry number  1.
 Warning -- assumption of classical behavior for rotation
           may cause significant error
 Rotational temperatures (Kelvin)      0.18813     0.12452     0.08630
 Rotational constants (GHZ):           3.91997     2.59450     1.79825
 Zero-point vibrational energy     329889.7 (Joules/Mol)
                                   78.84553 (Kcal/Mol)
 Warning -- explicit consideration of  10 degrees of freedom as
           vibrations may cause significant error
 Vibrational temperatures:     59.96   252.54   289.16   364.62   426.10
          (Kelvin)            514.54   580.47   679.38   751.52   793.13
                             1008.83  1088.53  1137.52  1273.28  1276.31
                             1336.56  1368.31  1501.26  1523.95  1549.52
                             1574.08  1726.67  1765.68  1861.68  1938.35
                             1998.29  2122.78  2179.47  2339.94  2423.33
                             2564.49  4526.55  4534.84  4651.97  4670.22
                             5010.79  5107.03  5192.42  5389.05

 Zero-point correction=                           0.125648 (Hartree/Particle)
 Thermal correction to Energy=                    0.133383
 Thermal correction to Enthalpy=                  0.134327
 Thermal correction to Gibbs Free Energy=         0.093685
 Sum of electronic and zero-point Energies=           -341.836986
 Sum of electronic and thermal Energies=              -341.829251
 Sum of electronic and thermal Enthalpies=            -341.828307
 Sum of electronic and thermal Free Energies=         -341.868950

                     E (Thermal)             CV                S
                      KCal/Mol        Cal/Mol-Kelvin    Cal/Mol-Kelvin
 Total                   83.699             28.196             85.539
 Electronic               0.000              0.000              0.000
 Translational            0.889              2.981             39.720
 Rotational               0.889              2.981             27.266
 Vibrational             81.922             22.235             18.554
 Vibration     1          0.594              1.981              5.178
 Vibration     2          0.627              1.873              2.375
 Vibration     3          0.638              1.839              2.124
 Vibration     4          0.665              1.757              1.707
 Vibration     5          0.690              1.681              1.439
 Vibration     6          0.733              1.560              1.132
 Vibration     7          0.769              1.463              0.950
 Vibration     8          0.829              1.312              0.731
 Vibration     9          0.877              1.201              0.605
 Vibration    10          0.907              1.137              0.542

 Optimization completed.
    -- Stationary point found.
 Normal termination of Gaussian 09 at Sat Aug 21 01:39:38 2021.
