 Gaussian 09, Revision E.01,
 Gaussian 09:  ES64L-G09RevE.01 30-Nov-2015

 ----------------------------
 #P OPT Freq B3LYP/6-31G(d,p)
 ----------------------------

 --------
 Frag_775
 --------
 Symbolic Z-matrix:
 Charge =  0 Multiplicity = 1

 SCF Done:  E(RB3LYP) =  -319.804436477     A.U. after   13 cycles
 SCF Done:  E(RB3LYP) =  -319.804517016     A.U. after   11 cycles
 SCF Done:  E(RB3LYP) =  -319.804527879     A.U. after    9 cycles
 SCF Done:  E(RB3LYP) =  -319.804531771     A.U. after    9 cycles
 SCF Done:  E(RB3LYP) =  -319.804532869     A.U. after    8 cycles
 SCF Done:  E(RB3LYP) =  -319.804533130     A.U. after    7 cycles
 SCF Done:  E(RB3LYP) =  -319.804533209     A.U. after    7 cycles
 Optimization completed.
    -- Stationary point found.
 Normal termination of Gaussian 09 at Thu Sep  8 15:24:17 2022.

 ----------------------------------------------------------------------
 #P Geom=AllCheck Guess=TCheck SCRF=Check GenChk RB3LYP/6-31G(d,p) Freq
 ----------------------------------------------------------------------

 Structure from the checkpoint file:  "B3LYP6-31Gdp.Frag_775.chk"
 --------
 Frag_775
 --------
 Charge =  0 Multiplicity = 1

                         Standard orientation:
 ---------------------------------------------------------------------
 Center     Atomic      Atomic             Coordinates (Angstroms)
 Number     Number       Type             X           Y           Z
 ---------------------------------------------------------------------
      1          6           0        1.411504    1.193651    0.085933
      2          6           0        0.744844    0.030501   -0.069030
      3          7           0        1.315292   -1.229759    0.071649
      4          7           0       -0.646650    0.002343   -0.392654
      5          7           0       -1.308183   -1.120967    0.140768
      6          8           0       -1.286637    1.218196   -0.023796
      7          1           0        2.470374    1.178295    0.313081
      8          1           0        0.944627    2.144212   -0.120114
      9          1           0        2.262389   -1.297568   -0.271612
     10          1           0        0.710521   -1.984010   -0.222764
     11          1           0       -2.211360   -1.170799   -0.320487
     12          1           0       -1.471802   -1.000173    1.145867
     13          1           0       -0.872964    1.478246    0.826632
 ---------------------------------------------------------------------

 SCF Done:  E(RB3LYP) =  -319.804533209     A.U. after    1 cycles

 The electronic state is 1-A.
 Alpha  occ. eigenvalues --  -19.17732 -14.41973 -14.36577 -14.33463 -10.25088
 Alpha  occ. eigenvalues --  -10.15156  -1.08854  -0.94534  -0.89929  -0.77554
 Alpha  occ. eigenvalues --   -0.70046  -0.58879  -0.53269  -0.52661  -0.50780
 Alpha  occ. eigenvalues --   -0.48884  -0.42519  -0.41037  -0.38484  -0.34264
 Alpha  occ. eigenvalues --   -0.32763  -0.27403  -0.25458  -0.19519
 Alpha virt. eigenvalues --    0.03828   0.08394   0.09333   0.10639   0.12811
 Alpha virt. eigenvalues --    0.14515   0.16473   0.17665   0.18562   0.22172
 Alpha virt. eigenvalues --    0.27232   0.35083   0.38369   0.55754   0.57049

 Mulliken charges:
               1
     1  C   -0.353928
     2  C    0.475497
     3  N   -0.641427
     4  N   -0.144144
     5  N   -0.436570
     6  O   -0.426094
     7  H    0.079831
     8  H    0.106018
     9  H    0.262421
    10  H    0.279986
    11  H    0.274129
    12  H    0.238496
    13  H    0.285786
 Sum of Mulliken charges =  -0.00000

 Dipole moment (field-independent basis, Debye):
    X=             -0.1539    Y=             -1.5448    Z=              1.0005  Tot=              1.8469
 Quadrupole moment (field-independent basis, Debye-Ang):
   XX=            -31.2265   YY=            -35.2809   ZZ=            -36.9909
   XY=              0.9098   XZ=             -3.5877   YZ=              3.0819

  Exact polarizability:  56.535   6.160  58.873  -0.052   1.775  29.153
 Approx polarizability:  75.578  10.222  91.266   2.741   3.283  43.726

                      1                      2                      3
                      A                      A                      A
 Frequencies --    105.8276               267.0636               313.7175
 Red. masses --      4.1944                 1.1214                 2.0706
 Frc consts  --      0.0277                 0.0471                 0.1201
 IR Inten    --      3.6540                36.2674                45.2408

                      4                      5                      6
                      A                      A                      A
 Frequencies --    339.9464               419.0811               449.3222
 Red. masses --      2.6744                 1.2201                 2.6829
 Frc consts  --      0.1821                 0.1262                 0.3191
 IR Inten    --     14.8015                35.9413                23.6994

                      7                      8                      9
                      A                      A                      A
 Frequencies --    481.2982               515.7226               531.4784
 Red. masses --      1.5579                 2.1474                 3.6589
 Frc consts  --      0.2126                 0.3365                 0.6089
 IR Inten    --      7.4306                66.0759                13.5656

                     10                     11                     12
                      A                      A                      A
 Frequencies --    610.1048               676.8625               730.3380
 Red. masses --      1.3219                 3.3797                 1.2047
 Frc consts  --      0.2899                 0.9123                 0.3786
 IR Inten    --    230.2299                 9.2933                 4.5986

                     13                     14                     15
                      A                      A                      A
 Frequencies --    745.7422               766.9390               915.8426
 Red. masses --      2.3114                 1.8801                 2.0532
 Frc consts  --      0.7574                 0.6516                 1.0146
 IR Inten    --     78.5267                40.8604               124.9009

                     16                     17                     18
                      A                      A                      A
 Frequencies --    983.1345              1006.7100              1126.5165
 Red. masses --      1.7736                 4.9954                 1.6326
 Frc consts  --      1.0100                 2.9828                 1.2207
 IR Inten    --      0.4637                48.9845                 2.9236

                     19                     20                     21
                      A                      A                      A
 Frequencies --   1220.7348              1319.4456              1403.8703
 Red. masses --      2.1332                 1.1853                 2.8958
 Frc consts  --      1.8729                 1.2158                 3.3626
 IR Inten    --     17.4833                12.5471                51.5590

                     22                     23                     24
                      A                      A                      A
 Frequencies --   1422.9716              1446.6333              1624.7877
 Red. masses --      1.2422                 1.1942                 1.1602
 Frc consts  --      1.4820                 1.4724                 1.8046
 IR Inten    --     37.7623                 2.6470                92.0094

                     25                     26                     27
                      A                      A                      A
 Frequencies --   1689.3655              1708.8023              3198.5711
 Red. masses --      1.1121                 5.1723                 1.0616
 Frc consts  --      1.8699                 8.8985                 6.3989
 IR Inten    --     35.4665               169.6871                 3.7257

                     28                     29                     30
                      A                      A                      A
 Frequencies --   3301.9177              3388.8957              3561.1708
 Red. masses --      1.1142                 1.0572                 1.0666
 Frc consts  --      7.1575                 7.1536                 7.9699
 IR Inten    --      3.2015                15.9308                25.6315

                     31                     32                     33
                      A                      A                      A
 Frequencies --   3574.6607              3577.0404              3694.2967
 Red. masses --      1.0842                 1.0469                 1.0997
 Frc consts  --      8.1625                 7.8922                 8.8425
 IR Inten    --      5.9726                27.0187                34.6360

 - Thermochemistry -
 -------------------
 Temperature   298.150 Kelvin.  Pressure   1.00000 Atm.
 Atom     1 has atomic number  6 and mass  12.00000

 Molecular mass:    89.05891 amu.
 Principal axes and moments of inertia in atomic units:
                           1         2         3
     Eigenvalues --   359.12662 489.00209 812.75336
           X            0.99565   0.09222  -0.01360
           Y           -0.09203   0.99565   0.01421
           Z            0.01486  -0.01289   0.99981
 This molecule is an asymmetric top.
 Rotational symmetry number  1.
 Rotational temperatures (Kelvin)      0.24118     0.17712     0.10657
 Rotational constants (GHZ):           5.02536     3.69066     2.22053
 Zero-point vibrational energy     281833.1 (Joules/Mol)
                                   67.35972 (Kcal/Mol)
 Warning -- explicit consideration of  10 degrees of freedom as
           vibrations may cause significant error
 Vibrational temperatures:    152.26   384.24   451.37   489.11   602.96
          (Kelvin)            646.47   692.48   742.01   764.68   877.80
                              973.85  1050.79  1072.96  1103.45  1317.69
                             1414.51  1448.43  1620.80  1756.36  1898.39
                             2019.85  2047.34  2081.38  2337.70  2430.62
                             2458.58  4602.02  4750.72  4875.86  5123.72
                             5143.13  5146.56  5315.26

 Zero-point correction=                           0.107345 (Hartree/Particle)
 Thermal correction to Energy=                    0.114112
 Thermal correction to Enthalpy=                  0.115056
 Thermal correction to Gibbs Free Energy=         0.077526
 Sum of electronic and zero-point Energies=           -319.697189
 Sum of electronic and thermal Energies=              -319.690422
 Sum of electronic and thermal Enthalpies=            -319.689477
 Sum of electronic and thermal Free Energies=         -319.727007

                     E (Thermal)             CV                S
                      KCal/Mol        Cal/Mol-Kelvin    Cal/Mol-Kelvin
 Total                   71.606             25.717             78.988
 Electronic               0.000              0.000              0.000
 Translational            0.889              2.981             39.373
 Rotational               0.889              2.981             26.459
 Vibrational             69.829             19.755             13.156
 Vibration     1          0.605              1.945              3.344
 Vibration     2          0.672              1.734              1.615
 Vibration     3          0.702              1.648              1.343
 Vibration     4          0.720              1.596              1.212
 Vibration     5          0.782              1.429              0.895
 Vibration     6          0.808              1.362              0.798
 Vibration     7          0.838              1.292              0.707
 Vibration     8          0.871              1.215              0.620
 Vibration     9          0.886              1.180              0.584
 Vibration    10          0.969              1.010              0.433

 Normal termination of Gaussian 09 at Thu Sep  8 15:24:27 2022.
