 Gaussian 09, Revision E.01,
 Gaussian 09:  ES64L-G09RevE.01 30-Nov-2015

 ----------------------------
 #P OPT Freq B3LYP/6-31G(d,p)
 ----------------------------

 --------
 Frag_561
 --------
 Symbolic Z-matrix:
 Charge =  0 Multiplicity = 1

 SCF Done:  E(RB3LYP) =  -271.770714750     A.U. after   13 cycles
 SCF Done:  E(RB3LYP) =  -271.770764691     A.U. after    9 cycles
 SCF Done:  E(RB3LYP) =  -271.770767260     A.U. after    8 cycles
 Optimization completed.
    -- Stationary point found.
 Normal termination of Gaussian 09 at Thu Sep  8 15:06:09 2022.

 ----------------------------------------------------------------------
 #P Geom=AllCheck Guess=TCheck SCRF=Check GenChk RB3LYP/6-31G(d,p) Freq
 ----------------------------------------------------------------------

 Structure from the checkpoint file:  "B3LYP6-31Gdp.Frag_561.chk"
 --------
 Frag_561
 --------
 Charge =  0 Multiplicity = 1

                         Standard orientation:
 ---------------------------------------------------------------------
 Center     Atomic      Atomic             Coordinates (Angstroms)
 Number     Number       Type             X           Y           Z
 ---------------------------------------------------------------------
      1          6           0       -1.893436    0.000039   -0.854363
      2          6           0       -0.838997    0.000002   -0.033739
      3          8           0       -1.046280   -0.000059    1.325560
      4          6           0        0.603967    0.000023   -0.498069
      5          6           0        1.347328    1.271839   -0.043531
      6          6           0        1.347330   -1.271832   -0.043641
      7          1           0       -2.905216    0.000019   -0.465558
      8          1           0       -1.753602    0.000092   -1.927800
      9          1           0       -0.195455   -0.000126    1.780715
     10          1           0        0.576823    0.000069   -1.593043
     11          1           0        1.419184    1.336397    1.049383
     12          1           0        2.370076    1.279767   -0.433444
     13          1           0        0.836002    2.172306   -0.395101
     14          1           0        0.836003   -2.172270   -0.395284
     15          1           0        1.419195   -1.336482    1.049267
     16          1           0        2.370077   -1.279727   -0.433559
 ---------------------------------------------------------------------

 SCF Done:  E(RB3LYP) =  -271.770767260     A.U. after    1 cycles

 The electronic state is 1-A.
 Alpha  occ. eigenvalues --  -19.16707 -10.23465 -10.20309 -10.18632 -10.18631
 Alpha  occ. eigenvalues --  -10.15389  -1.04606  -0.80802  -0.73332  -0.69328
 Alpha  occ. eigenvalues --   -0.60957  -0.56865  -0.50187  -0.46196  -0.42750
 Alpha  occ. eigenvalues --   -0.42486  -0.39997  -0.39842  -0.38578  -0.36691
 Alpha  occ. eigenvalues --   -0.34246  -0.34039  -0.32319  -0.21453
 Alpha virt. eigenvalues --    0.04606   0.05229   0.10884   0.13327   0.14113
 Alpha virt. eigenvalues --    0.14292   0.16657   0.18302   0.19318   0.19524
 Alpha virt. eigenvalues --    0.20684   0.21636   0.23527   0.25477   0.33878

 Mulliken charges:
               1
     1  C   -0.322070
     2  C    0.399009
     3  O   -0.545724
     4  C   -0.148554
     5  C   -0.307445
     6  C   -0.307448
     7  H    0.096137
     8  H    0.087170
     9  H    0.313881
    10  H    0.103387
    11  H    0.087400
    12  H    0.107761
    13  H    0.120667
    14  H    0.120667
    15  H    0.087399
    16  H    0.107763
 Sum of Mulliken charges =  -0.00000

 Dipole moment (field-independent basis, Debye):
    X=              2.2610    Y=             -0.0001    Z=             -0.0632  Tot=              2.2619
 Quadrupole moment (field-independent basis, Debye-Ang):
   XX=            -39.9023   YY=            -39.3391   ZZ=            -36.3247
   XY=             -0.0001   XZ=              1.9748   YZ=             -0.0003

  Exact polarizability:  68.418  -0.000  45.114   7.562  -0.001  56.839
 Approx polarizability:  91.057  -0.001  58.396  13.884  -0.001  87.860

                      1                      2                      3
                      A                      A                      A
 Frequencies --     79.3560               179.3728               214.8013
 Red. masses --      2.7975                 1.4782                 1.2328
 Frc consts  --      0.0104                 0.0280                 0.0335
 IR Inten    --      1.1736                69.9493                 0.0305

                      4                      5                      6
                      A                      A                      A
 Frequencies --    242.3219               271.8357               285.7602
 Red. masses --      1.0991                 1.4744                 2.6769
 Frc consts  --      0.0380                 0.0642                 0.1288
 IR Inten    --      0.2898                27.2707                 1.2744

                      7                      8                      9
                      A                      A                      A
 Frequencies --    329.5265               456.7348               572.0285
 Red. masses --      2.3052                 2.3669                 2.5654
 Frc consts  --      0.1475                 0.2909                 0.4946
 IR Inten    --      0.5306                 1.1541                 3.7391

                     10                     11                     12
                      A                      A                      A
 Frequencies --    658.8182               742.5872               752.9213
 Red. masses --      3.1483                 1.1022                 2.6547
 Frc consts  --      0.8051                 0.3581                 0.8867
 IR Inten    --      2.8471                10.1177                 3.7563

                     13                     14                     15
                      A                      A                      A
 Frequencies --    838.6597               915.8990               936.1780
 Red. masses --      1.4281                 2.4132                 1.2060
 Frc consts  --      0.5918                 1.1927                 0.6228
 IR Inten    --     52.1669                10.8255                 0.4607

                     16                     17                     18
                      A                      A                      A
 Frequencies --    966.7812               983.4090              1087.4972
 Red. masses --      1.4638                 1.8791                 1.4554
 Frc consts  --      0.8061                 1.0707                 1.0141
 IR Inten    --      0.0354                38.2664                 8.8581

                     19                     20                     21
                      A                      A                      A
 Frequencies --   1121.9568              1189.6012              1244.1140
 Red. masses --      2.2682                 1.8994                 1.3178
 Frc consts  --      1.6823                 1.5837                 1.2018
 IR Inten    --      3.6553                 1.4232                63.9205

                     22                     23                     24
                      A                      A                      A
 Frequencies --   1339.3708              1343.5824              1350.0062
 Red. masses --      1.4057                 1.3346                 2.9553
 Frc consts  --      1.4857                 1.4195                 3.1734
 IR Inten    --      8.6056                 3.1316               160.2939

                     25                     26                     27
                      A                      A                      A
 Frequencies --   1415.4047              1436.9945              1454.1689
 Red. masses --      1.2203                 1.2330                 1.1783
 Frc consts  --      1.4403                 1.5001                 1.4680
 IR Inten    --      3.0100                 1.4428                 5.0195

                     28                     29                     30
                      A                      A                      A
 Frequencies --   1498.8855              1508.5238              1517.1949
 Red. masses --      1.0473                 1.0459                 1.0533
 Frc consts  --      1.3863                 1.4024                 1.4285
 IR Inten    --      0.4505                 2.1403                 2.1347

                     31                     32                     33
                      A                      A                      A
 Frequencies --   1523.7755              1754.2195              3034.2441
 Red. masses --      1.0555                 5.2678                 1.0388
 Frc consts  --      1.4439                 9.5509                 5.6349
 IR Inten    --     22.8700                78.0280                16.6660

                     34                     35                     36
                      A                      A                      A
 Frequencies --   3038.3545              3066.6486              3098.9515
 Red. masses --      1.0410                 1.0834                 1.0980
 Frc consts  --      5.6619                 6.0029                 6.2125
 IR Inten    --     28.3933                 8.0282                 4.1057

                     37                     38                     39
                      A                      A                      A
 Frequencies --   3107.4698              3128.8640              3130.3599
 Red. masses --      1.0971                 1.1031                 1.1031
 Frc consts  --      6.2418                 6.3625                 6.3685
 IR Inten    --     70.2890                18.1630                28.8159

                     40                     41                     42
                      A                      A                      A
 Frequencies --   3183.9175              3275.8693              3838.7854
 Red. masses --      1.0602                 1.1175                 1.0661
 Frc consts  --      6.3325                 7.0653                 9.2561
 IR Inten    --      0.5367                 8.1185                33.9149

 - Thermochemistry -
 -------------------
 Temperature   298.150 Kelvin.  Pressure   1.00000 Atm.
 Atom     1 has atomic number  6 and mass  12.00000

 Molecular mass:    86.07317 amu.
 Principal axes and moments of inertia in atomic units:
                           1         2         3
     Eigenvalues --   384.21368 706.73302 717.01012
           X            0.99926  -0.00000   0.03858
           Y            0.00000   1.00000   0.00002
           Z           -0.03858  -0.00002   0.99926
 This molecule is an asymmetric top.
 Rotational symmetry number  1.
 Rotational temperatures (Kelvin)      0.22543     0.12256     0.12080
 Rotational constants (GHZ):           4.69723     2.55364     2.51704
 Zero-point vibrational energy     371534.7 (Joules/Mol)
                                   88.79892 (Kcal/Mol)
 Warning -- explicit consideration of   9 degrees of freedom as
           vibrations may cause significant error
 Vibrational temperatures:    114.18   258.08   309.05   348.65   391.11
          (Kelvin)            411.14   474.11   657.14   823.02   947.89
                             1068.42  1083.28  1206.64  1317.77  1346.95
                             1390.98  1414.90  1564.66  1614.24  1711.57
                             1790.00  1927.05  1933.11  1942.36  2036.45
                             2067.51  2092.22  2156.56  2170.43  2182.90
                             2192.37  2523.93  4365.60  4371.51  4412.22
                             4458.69  4470.95  4501.73  4503.88  4580.94
                             4713.24  5523.15

 Zero-point correction=                           0.141510 (Hartree/Particle)
 Thermal correction to Energy=                    0.149176
 Thermal correction to Enthalpy=                  0.150120
 Thermal correction to Gibbs Free Energy=         0.110418
 Sum of electronic and zero-point Energies=           -271.629257
 Sum of electronic and thermal Energies=              -271.621592
 Sum of electronic and thermal Enthalpies=            -271.620647
 Sum of electronic and thermal Free Energies=         -271.660349

                     E (Thermal)             CV                S
                      KCal/Mol        Cal/Mol-Kelvin    Cal/Mol-Kelvin
 Total                   93.609             27.514             83.559
 Electronic               0.000              0.000              0.000
 Translational            0.889              2.981             39.271
 Rotational               0.889              2.981             26.768
 Vibrational             91.832             21.552             17.520
 Vibration     1          0.600              1.963              3.907
 Vibration     2          0.629              1.868              2.335
 Vibration     3          0.645              1.818              2.002
 Vibration     4          0.659              1.775              1.786
 Vibration     5          0.675              1.725              1.585
 Vibration     6          0.684              1.700              1.499
 Vibration     7          0.712              1.617              1.262
 Vibration     8          0.815              1.346              0.776
 Vibration     9          0.928              1.092              0.500

 Optimization completed.
    -- Stationary point found.
 Normal termination of Gaussian 09 at Thu Sep  8 15:06:22 2022.
