 Gaussian 09, Revision E.01,
 Gaussian 09:  ES64L-G09RevE.01 30-Nov-2015

 ----------------------------
 #P OPT Freq B3LYP/6-31G(d,p)
 ----------------------------

 --------
 Frag_976
 --------
 Symbolic Z-matrix:
 Charge =  0 Multiplicity = 1

 SCF Done:  E(RB3LYP) =  -305.480354638     A.U. after   12 cycles
 SCF Done:  E(RB3LYP) =  -305.480415579     A.U. after    9 cycles
 SCF Done:  E(RB3LYP) =  -305.480423737     A.U. after    8 cycles
 SCF Done:  E(RB3LYP) =  -305.480428050     A.U. after    8 cycles
 SCF Done:  E(RB3LYP) =  -305.480432662     A.U. after    8 cycles
 SCF Done:  E(RB3LYP) =  -305.480434666     A.U. after    8 cycles
 SCF Done:  E(RB3LYP) =  -305.480435240     A.U. after    7 cycles
 Optimization completed.
    -- Stationary point found.
 Normal termination of Gaussian 09 at Thu Sep  8 15:22:49 2022.

 ----------------------------------------------------------------------
 #P Geom=AllCheck Guess=TCheck SCRF=Check GenChk RB3LYP/6-31G(d,p) Freq
 ----------------------------------------------------------------------

 Structure from the checkpoint file:  "B3LYP6-31Gdp.Frag_976.chk"
 --------
 Frag_976
 --------
 Charge =  0 Multiplicity = 1

                         Standard orientation:
 ---------------------------------------------------------------------
 Center     Atomic      Atomic             Coordinates (Angstroms)
 Number     Number       Type             X           Y           Z
 ---------------------------------------------------------------------
      1          8           0        1.841133    0.088526    0.155889
      2          6           0        0.721931   -0.728247   -0.188048
      3          6           0       -0.506103    0.006611    0.335037
      4          8           0       -0.559583    1.315772   -0.191151
      5          8           0       -1.628401   -0.707443   -0.091310
      6          1           0        2.609342   -0.220269   -0.338233
      7          1           0        0.609677   -0.835881   -1.274923
      8          1           0        0.786386   -1.726446    0.265466
      9          1           0       -0.461170    0.054307    1.439389
     10          1           0        0.340829    1.667688   -0.109552
     11          1           0       -2.405220   -0.184423    0.148496
 ---------------------------------------------------------------------

 SCF Done:  E(RB3LYP) =  -305.480435240     A.U. after    1 cycles

 The electronic state is 1-A.
 Alpha  occ. eigenvalues --  -19.16196 -19.15000 -19.13831 -10.27915 -10.23382
 Alpha  occ. eigenvalues --   -1.06053  -1.02792  -0.98697  -0.73104  -0.60829
 Alpha  occ. eigenvalues --   -0.54397  -0.51935  -0.49571  -0.45642  -0.42072
 Alpha  occ. eigenvalues --   -0.37213  -0.35547  -0.34371  -0.29335  -0.28556
 Alpha  occ. eigenvalues --   -0.26159
 Alpha virt. eigenvalues --    0.05859   0.08837   0.13186   0.13775   0.15551
 Alpha virt. eigenvalues --    0.17763   0.19348   0.23880   0.24616   0.29322
 Alpha virt. eigenvalues --    0.53435   0.55872   0.56453   0.59563   0.65983

 Mulliken charges:
               1
     1  O   -0.555535
     2  C    0.023976
     3  C    0.393064
     4  O   -0.556053
     5  O   -0.534883
     6  H    0.318625
     7  H    0.106705
     8  H    0.098568
     9  H    0.070826
    10  H    0.317554
    11  H    0.317152
 Sum of Mulliken charges =  -0.00000

 Dipole moment (field-independent basis, Debye):
    X=              1.5029    Y=             -0.4939    Z=              0.0651  Tot=              1.5833
 Quadrupole moment (field-independent basis, Debye-Ang):
   XX=            -23.1291   YY=            -31.0937   ZZ=            -30.0750
   XY=             -1.6185   XZ=             -4.5100   YZ=              0.4550

  Exact polarizability:  38.475   0.508  32.638  -1.062   0.405  27.986
 Approx polarizability:  48.292   1.790  45.018  -0.029   0.721  38.062

                      1                      2                      3
                      A                      A                      A
 Frequencies --    129.9269               241.1312               260.0456
 Red. masses --      3.0521                 1.1191                 1.6608
 Frc consts  --      0.0304                 0.0383                 0.0662
 IR Inten    --     10.3708                81.4447                81.8295

                      4                      5                      6
                      A                      A                      A
 Frequencies --    271.8855               363.3376               444.5930
 Red. masses --      1.8496                 1.2133                 3.0133
 Frc consts  --      0.0806                 0.0944                 0.3509
 IR Inten    --     70.4184               130.6087                18.9539

                      7                      8                      9
                      A                      A                      A
 Frequencies --    519.9487               584.6522               894.3835
 Red. masses --      3.0538                 4.6584                 2.3298
 Frc consts  --      0.4864                 0.9382                 1.0980
 IR Inten    --     31.1982                 4.6440                21.4600

                     10                     11                     12
                      A                      A                      A
 Frequencies --   1023.3359              1085.0815              1105.9636
 Red. masses --      2.2840                 5.4194                 2.6123
 Frc consts  --      1.4093                 3.7595                 1.8826
 IR Inten    --     38.4026               105.3012               128.4904

                     13                     14                     15
                      A                      A                      A
 Frequencies --   1136.4450              1194.0220              1250.0620
 Red. masses --      2.6919                 1.0600                 1.1753
 Frc consts  --      2.0483                 0.8904                 1.0821
 IR Inten    --     74.8073               106.7285                37.0430

                     16                     17                     18
                      A                      A                      A
 Frequencies --   1288.4695              1306.2506              1418.7643
 Red. masses --      1.1199                 1.3221                 1.2427
 Frc consts  --      1.0954                 1.3291                 1.4738
 IR Inten    --     47.6790                28.8965                23.8957

                     19                     20                     21
                      A                      A                      A
 Frequencies --   1424.8813              1514.2810              1527.8001
 Red. masses --      1.4088                 1.8032                 1.0858
 Frc consts  --      1.6852                 2.4361                 1.4933
 IR Inten    --     30.6452                51.0194                 4.6127

                     22                     23                     24
                      A                      A                      A
 Frequencies --   2941.3737              3021.0823              3072.1214
 Red. masses --      1.0828                 1.0555                 1.1097
 Frc consts  --      5.5194                 5.6761                 6.1706
 IR Inten    --     97.7711                41.3657                55.9138

                     25                     26                     27
                      A                      A                      A
 Frequencies --   3768.7710              3817.2377              3848.5322
 Red. masses --      1.0648                 1.0658                 1.0670
 Frc consts  --      8.9109                 9.1497                 9.3108
 IR Inten    --     42.9825                32.0036                32.3699

 - Thermochemistry -
 -------------------
 Temperature   298.150 Kelvin.  Pressure   1.00000 Atm.
 Atom     1 has atomic number  8 and mass  15.99491

 Molecular mass:    78.03169 amu.
 Principal axes and moments of inertia in atomic units:
                           1         2         3
     Eigenvalues --   198.22520 470.69261 620.60563
           X            0.99960  -0.01874  -0.02118
           Y            0.01904   0.99973   0.01366
           Z            0.02092  -0.01405   0.99968
 This molecule is an asymmetric top.
 Rotational symmetry number  1.
 Rotational temperatures (Kelvin)      0.43695     0.18401     0.13956
 Rotational constants (GHZ):           9.10450     3.83422     2.90803
 Zero-point vibrational energy     235989.6 (Joules/Mol)
                                   56.40287 (Kcal/Mol)
 Warning -- explicit consideration of   8 degrees of freedom as
           vibrations may cause significant error
 Vibrational temperatures:    186.94   346.93   374.15   391.18   522.76
          (Kelvin)            639.67   748.09   841.18  1286.82  1472.35
                             1561.19  1591.23  1635.09  1717.93  1798.56
                             1853.82  1879.40  2041.28  2050.08  2178.71
                             2198.16  4231.98  4346.66  4420.09  5422.41
                             5492.15  5537.17

 Zero-point correction=                           0.089884 (Hartree/Particle)
 Thermal correction to Energy=                    0.096054
 Thermal correction to Enthalpy=                  0.096998
 Thermal correction to Gibbs Free Energy=         0.060826
 Sum of electronic and zero-point Energies=           -305.390552
 Sum of electronic and thermal Energies=              -305.384381
 Sum of electronic and thermal Enthalpies=            -305.383437
 Sum of electronic and thermal Free Energies=         -305.419609

                     E (Thermal)             CV                S
                      KCal/Mol        Cal/Mol-Kelvin    Cal/Mol-Kelvin
 Total                   60.275             21.021             76.130
 Electronic               0.000              0.000              0.000
 Translational            0.889              2.981             38.979
 Rotational               0.889              2.981             25.563
 Vibrational             58.497             15.059             11.589
 Vibration     1          0.612              1.923              2.947
 Vibration     2          0.658              1.777              1.795
 Vibration     3          0.668              1.746              1.661
 Vibration     4          0.675              1.725              1.584
 Vibration     5          0.737              1.548              1.108
 Vibration     6          0.804              1.373              0.812
 Vibration     7          0.875              1.206              0.610
 Vibration     8          0.942              1.065              0.477

 Normal termination of Gaussian 09 at Thu Sep  8 15:22:57 2022.
