 Gaussian 09, Revision E.01,
 Gaussian 09:  ES64L-G09RevE.01 30-Nov-2015

 ----------------------------
 #P OPT Freq B3LYP/6-31G(d,p)
 ----------------------------

 --------
 Frag_810
 --------
 Symbolic Z-matrix:
 Charge =  0 Multiplicity = 1

 SCF Done:  E(RB3LYP) =  -435.659659882     A.U. after   13 cycles
 SCF Done:  E(RB3LYP) =  -435.659705019     A.U. after   10 cycles
 SCF Done:  E(RB3LYP) =  -435.659451655     A.U. after   10 cycles
 SCF Done:  E(RB3LYP) =  -435.659730778     A.U. after   10 cycles
 SCF Done:  E(RB3LYP) =  -435.659731559     A.U. after    7 cycles
 SCF Done:  E(RB3LYP) =  -435.659732047     A.U. after    7 cycles
 Optimization completed.
    -- Stationary point found.
 Normal termination of Gaussian 09 at Thu Sep  8 14:58:07 2022.

 ----------------------------------------------------------------------
 #P Geom=AllCheck Guess=TCheck SCRF=Check GenChk RB3LYP/6-31G(d,p) Freq
 ----------------------------------------------------------------------

 Structure from the checkpoint file:  "B3LYP6-31Gdp.Frag_810.chk"
 --------
 Frag_810
 --------
 Charge =  0 Multiplicity = 1

                         Standard orientation:
 ---------------------------------------------------------------------
 Center     Atomic      Atomic             Coordinates (Angstroms)
 Number     Number       Type             X           Y           Z
 ---------------------------------------------------------------------
      1          6           0       -1.457059    1.311116    0.045829
      2          6           0       -0.768951   -0.045688   -0.062183
      3          7           0       -1.134881   -0.693569   -1.292863
      4          8           0       -1.062517   -0.837363    1.132752
      5          6           0        0.787176    0.068417    0.002213
      6          7           0        1.321548   -1.292987   -0.141222
      7          7           0        1.262207    0.951854   -1.035464
      8          8           0        1.168765    0.677989    1.226620
      9          1           0       -1.151847    1.817094    0.962849
     10          1           0       -2.547463    1.180422    0.056559
     11          1           0       -1.186000    1.936127   -0.804444
     12          1           0       -0.680344   -1.600238   -1.351590
     13          1           0       -2.141118   -0.807829   -1.372113
     14          1           0       -2.006552   -0.755687    1.320074
     15          1           0        2.333137   -1.247188   -0.036272
     16          1           0        0.969233   -1.868263    0.622711
     17          1           0        1.161832    0.483174   -1.930442
     18          1           0        2.246012    1.152712   -0.874695
     19          1           0        0.644019    0.224506    1.904071
 ---------------------------------------------------------------------

 SCF Done:  E(RB3LYP) =  -435.659732047     A.U. after    1 cycles

 The electronic state is 1-A.
 Alpha  occ. eigenvalues --  -19.15029 -19.13274 -14.31162 -14.30838 -14.30401
 Alpha  occ. eigenvalues --  -10.28065 -10.26189 -10.16929  -1.04090  -1.00869
 Alpha  occ. eigenvalues --   -0.89874  -0.86587  -0.83441  -0.72713  -0.65055
 Alpha  occ. eigenvalues --   -0.57628  -0.52351  -0.51487  -0.47726  -0.46927
 Alpha  occ. eigenvalues --   -0.46308  -0.42953  -0.42693  -0.41575  -0.38168
 Alpha  occ. eigenvalues --   -0.36889  -0.35485  -0.34003  -0.29603  -0.28795
 Alpha  occ. eigenvalues --   -0.24484  -0.24055  -0.23331
 Alpha virt. eigenvalues --    0.05908   0.09659   0.11043   0.12967   0.13795
 Alpha virt. eigenvalues --    0.15751   0.16267   0.16958   0.17553   0.17858
 Alpha virt. eigenvalues --    0.20481   0.23011   0.24789   0.25639   0.27109

 Mulliken charges:
               1
     1  C   -0.304876
     2  C    0.327310
     3  N   -0.578898
     4  O   -0.579798
     5  C    0.467026
     6  N   -0.597244
     7  N   -0.579070
     8  O   -0.555197
     9  H    0.117875
    10  H    0.071800
    11  H    0.146498
    12  H    0.257523
    13  H    0.227340
    14  H    0.298681
    15  H    0.230601
    16  H    0.244015
    17  H    0.256454
    18  H    0.241861
    19  H    0.308096
 Sum of Mulliken charges =  -0.00000

 Dipole moment (field-independent basis, Debye):
    X=             -1.3802    Y=             -1.7149    Z=              0.6304  Tot=              2.2898
 Quadrupole moment (field-independent basis, Debye-Ang):
   XX=            -38.8325   YY=            -51.4627   ZZ=            -48.5968
   XY=             -0.2948   XZ=             -2.7039   YZ=             -0.8405

  Exact polarizability:  66.827  -0.130  56.359  -1.196  -0.404  57.798
 Approx polarizability:  87.530   2.363  77.564  -1.166  -1.230  84.085

                      1                      2                      3
                      A                      A                      A
 Frequencies --    120.2228               195.4357               215.6820
 Red. masses --      3.4748                 1.2898                 1.0734
 Frc consts  --      0.0296                 0.0290                 0.0294
 IR Inten    --      2.2683                15.5673                 2.4902

                      4                      5                      6
                      A                      A                      A
 Frequencies --    244.7446               257.5793               289.4856
 Red. masses --      1.6128                 1.5919                 2.6610
 Frc consts  --      0.0569                 0.0622                 0.1314
 IR Inten    --     53.1970                19.9701                34.9898

                      7                      8                      9
                      A                      A                      A
 Frequencies --    318.4417               344.6893               373.9175
 Red. masses --      1.3066                 1.8605                 2.4703
 Frc consts  --      0.0781                 0.1302                 0.2035
 IR Inten    --     20.3296                18.9878                23.5317

                     10                     11                     12
                      A                      A                      A
 Frequencies --    379.5950               420.1452               445.8263
 Red. masses --      2.3705                 1.7645                 2.7522
 Frc consts  --      0.2012                 0.1835                 0.3223
 IR Inten    --     26.2913                13.9912                21.0857

                     13                     14                     15
                      A                      A                      A
 Frequencies --    482.1148               504.8489               553.2912
 Red. masses --      2.8621                 1.2852                 2.9382
 Frc consts  --      0.3919                 0.1930                 0.5299
 IR Inten    --     57.6152                80.7047                30.9134

                     16                     17                     18
                      A                      A                      A
 Frequencies --    566.9473               588.5977               708.8742
 Red. masses --      3.6690                 2.6227                 3.0923
 Frc consts  --      0.6948                 0.5353                 0.9155
 IR Inten    --     17.4035                67.8344                32.5223

                     19                     20                     21
                      A                      A                      A
 Frequencies --    819.1175               848.0380               875.3684
 Red. masses --      1.8685                 2.3477                 1.7907
 Frc consts  --      0.7386                 0.9948                 0.8085
 IR Inten    --     97.2785               151.8851                46.5944

                     22                     23                     24
                      A                      A                      A
 Frequencies --    911.6813               961.2064               988.3402
 Red. masses --      1.8525                 1.8458                 2.1730
 Frc consts  --      0.9072                 1.0047                 1.2506
 IR Inten    --    146.1109                 3.6935                95.8172

                     25                     26                     27
                      A                      A                      A
 Frequencies --   1038.3651              1064.6958              1103.2003
 Red. masses --      1.4605                 1.8938                 1.7366
 Frc consts  --      0.9278                 1.2648                 1.2452
 IR Inten    --      5.2592                68.6580               205.7539

                     28                     29                     30
                      A                      A                      A
 Frequencies --   1144.8614              1206.6003              1242.6427
 Red. masses --      2.3677                 1.3052                 1.5659
 Frc consts  --      1.8285                 1.1196                 1.4246
 IR Inten    --     60.5459                23.3142                37.7886

                     31                     32                     33
                      A                      A                      A
 Frequencies --   1276.8177              1325.7957              1404.3869
 Red. masses --      2.5192                 1.9031                 1.4670
 Frc consts  --      2.4197                 1.9709                 1.7048
 IR Inten    --    105.4057                12.2257                15.9473

                     34                     35                     36
                      A                      A                      A
 Frequencies --   1429.0565              1474.4253              1488.6730
 Red. masses --      1.6731                 1.7705                 1.0670
 Frc consts  --      2.0132                 2.2678                 1.3932
 IR Inten    --     25.2290                37.9366                 4.2511

                     37                     38                     39
                      A                      A                      A
 Frequencies --   1520.9943              1633.2916              1644.0037
 Red. masses --      1.1505                 1.1157                 1.1093
 Frc consts  --      1.5682                 1.7536                 1.7664
 IR Inten    --     20.2212                59.9055                44.3386

                     40                     41                     42
                      A                      A                      A
 Frequencies --   1648.9896              3035.4299              3136.5671
 Red. masses --      1.1011                 1.0513                 1.0851
 Frc consts  --      1.7640                 5.7070                 6.2896
 IR Inten    --     39.0406                34.8207                13.5144

                     43                     44                     45
                      A                      A                      A
 Frequencies --   3180.6938              3478.0727              3505.1550
 Red. masses --      1.1027                 1.0492                 1.0480
 Frc consts  --      6.5727                 7.4781                 7.5861
 IR Inten    --      6.2246                 0.5347                 6.1897

                     46                     47                     48
                      A                      A                      A
 Frequencies --   3510.0690              3567.9577              3605.4861
 Red. masses --      1.0493                 1.0922                 1.0949
 Frc consts  --      7.6171                 8.1924                 8.3857
 IR Inten    --      1.2717                 0.4135                 4.5650

                     49                     50                     51
                      A                      A                      A
 Frequencies --   3613.7918              3775.8912              3820.1648
 Red. masses --      1.0928                 1.0649                 1.0666
 Frc consts  --      8.4081                 8.9457                 9.1714
 IR Inten    --      5.3589                41.2591                13.9924

 - Thermochemistry -
 -------------------
 Temperature   298.150 Kelvin.  Pressure   1.00000 Atm.
 Atom     1 has atomic number  6 and mass  12.00000

 Molecular mass:   121.08513 amu.
 Principal axes and moments of inertia in atomic units:
                           1         2         3
     Eigenvalues --   713.67975 984.42360 991.24614
           X            0.99808  -0.05905  -0.01895
           Y            0.05887   0.99822  -0.00967
           Z            0.01949   0.00854   0.99977
 This molecule is an asymmetric top.
 Rotational symmetry number  1.
 Warning -- assumption of classical behavior for rotation
           may cause significant error
 Rotational temperatures (Kelvin)      0.12136     0.08798     0.08738
 Rotational constants (GHZ):           2.52878     1.83330     1.82068
 Zero-point vibrational energy     432391.8 (Joules/Mol)
                                  103.34413 (Kcal/Mol)
 Warning -- explicit consideration of  17 degrees of freedom as
           vibrations may cause significant error
 Vibrational temperatures:    172.97   281.19   310.32   352.13   370.60
          (Kelvin)            416.50   458.17   495.93   537.98   546.15
                              604.49   641.44   693.65   726.36   796.06
                              815.71   846.86  1019.91  1178.53  1220.14
                             1259.46  1311.70  1382.96  1422.00  1493.97
                             1531.86  1587.26  1647.20  1736.03  1787.88
                             1837.05  1907.52  2020.60  2056.09  2121.37
                             2141.87  2188.37  2349.94  2365.35  2372.53
                             4367.30  4512.81  4576.30  5004.16  5043.13
                             5050.20  5133.49  5187.48  5199.43  5432.66
                             5496.36

 Zero-point correction=                           0.164689 (Hartree/Particle)
 Thermal correction to Energy=                    0.174341
 Thermal correction to Enthalpy=                  0.175285
 Thermal correction to Gibbs Free Energy=         0.131891
 Sum of electronic and zero-point Energies=           -435.495043
 Sum of electronic and thermal Energies=              -435.485391
 Sum of electronic and thermal Enthalpies=            -435.484447
 Sum of electronic and thermal Free Energies=         -435.527841

                     E (Thermal)             CV                S
                      KCal/Mol        Cal/Mol-Kelvin    Cal/Mol-Kelvin
 Total                  109.401             37.900             91.332
 Electronic               0.000              0.000              0.000
 Translational            0.889              2.981             40.288
 Rotational               0.889              2.981             28.034
 Vibrational            107.623             31.939             23.010
 Vibration     1          0.609              1.932              3.097
 Vibration     2          0.636              1.846              2.176
 Vibration     3          0.645              1.817              1.995
 Vibration     4          0.660              1.771              1.768
 Vibration     5          0.667              1.750              1.678
 Vibration     6          0.686              1.693              1.477
 Vibration     7          0.705              1.638              1.318
 Vibration     8          0.723              1.586              1.190
 Vibration     9          0.745              1.526              1.064
 Vibration    10          0.750              1.514              1.041
 Vibration    11          0.783              1.426              0.891
 Vibration    12          0.805              1.370              0.808
 Vibration    13          0.838              1.290              0.704
 Vibration    14          0.860              1.239              0.646
 Vibration    15          0.909              1.132              0.537
 Vibration    16          0.923              1.103              0.510
 Vibration    17          0.946              1.056              0.470

 Normal termination of Gaussian 09 at Thu Sep  8 14:58:29 2022.
