 Gaussian 09, Revision E.01,
 Gaussian 09:  ES64L-G09RevE.01 30-Nov-2015

 ----------------------------
 #P OPT Freq B3LYP/6-31G(d,p)
 ----------------------------

 ---------
 Frag_1041
 ---------
 Symbolic Z-matrix:
 Charge =  0 Multiplicity = 1

 SCF Done:  E(RB3LYP) =  -317.217609005     A.U. after   12 cycles
 SCF Done:  E(RB3LYP) =  -317.217670974     A.U. after   10 cycles
 SCF Done:  E(RB3LYP) =  -317.217697380     A.U. after    9 cycles
 SCF Done:  E(RB3LYP) =  -317.217728409     A.U. after   10 cycles
 SCF Done:  E(RB3LYP) =  -317.217771133     A.U. after   10 cycles
 SCF Done:  E(RB3LYP) =  -317.217773670     A.U. after   10 cycles
 SCF Done:  E(RB3LYP) =  -317.217806532     A.U. after    9 cycles
 SCF Done:  E(RB3LYP) =  -317.217511737     A.U. after   14 cycles
 SCF Done:  E(RB3LYP) =  -317.218917978     A.U. after   12 cycles
 SCF Done:  E(RB3LYP) =  -317.181387168     A.U. after   12 cycles
 SCF Done:  E(RB3LYP) =  -317.220986232     A.U. after    9 cycles
 SCF Done:  E(RB3LYP) =  -317.222852730     A.U. after   11 cycles
 SCF Done:  E(RB3LYP) =  -317.224090930     A.U. after   11 cycles
 SCF Done:  E(RB3LYP) =  -317.224496741     A.U. after   10 cycles
 SCF Done:  E(RB3LYP) =  -317.224764304     A.U. after   10 cycles
 SCF Done:  E(RB3LYP) =  -317.224837673     A.U. after   10 cycles
 SCF Done:  E(RB3LYP) =  -317.224853366     A.U. after    8 cycles
 SCF Done:  E(RB3LYP) =  -317.224856235     A.U. after    8 cycles
 SCF Done:  E(RB3LYP) =  -317.224856857     A.U. after    7 cycles
 Optimization completed.
    -- Stationary point found.
 Normal termination of Gaussian 09 at Thu Sep  8 14:54:48 2022.

 ----------------------------------------------------------------------
 #P Geom=AllCheck Guess=TCheck SCRF=Check GenChk RB3LYP/6-31G(d,p) Freq
 ----------------------------------------------------------------------

 Structure from the checkpoint file:  "B3LYP6-31Gdp.Frag_1041.chk"
 ---------
 Frag_1041
 ---------
 Charge =  0 Multiplicity = 1

                         Standard orientation:
 ---------------------------------------------------------------------
 Center     Atomic      Atomic             Coordinates (Angstroms)
 Number     Number       Type             X           Y           Z
 ---------------------------------------------------------------------
      1          7           0       -1.751679   -0.649905   -0.471141
      2          6           0       -0.669133    0.310928   -0.378089
      3          7           0       -0.782528    1.183025    0.790755
      4          7           0        0.665956   -0.336461   -0.405943
      5          7           0        1.730863    0.624360   -0.431169
      6          7           0        0.782045   -1.171418    0.755847
      7          1           0       -1.658146   -1.156503   -1.350977
      8          1           0       -1.590204   -1.345571    0.258632
      9          1           0       -0.698643    0.949557   -1.268432
     10          1           0       -1.627946    1.741140    0.700318
     11          1           0       -0.923073    0.599100    1.614298
     12          1           0        1.403691    1.478152    0.032950
     13          1           0        1.920603    0.842234   -1.406737
     14          1           0        1.456322   -1.894561    0.516702
     15          1           0        1.219596   -0.626324    1.503333
 ---------------------------------------------------------------------

 SCF Done:  E(RB3LYP) =  -317.224856857     A.U. after    1 cycles

 The electronic state is 1-A.
 Alpha  occ. eigenvalues --  -14.36501 -14.33836 -14.33008 -14.31675 -14.30520
 Alpha  occ. eigenvalues --  -10.25644  -1.00101  -0.90399  -0.84899  -0.83442
 Alpha  occ. eigenvalues --   -0.71338  -0.60143  -0.52818  -0.50010  -0.47695
 Alpha  occ. eigenvalues --   -0.47213  -0.45697  -0.44379  -0.42620  -0.36387
 Alpha  occ. eigenvalues --   -0.28238  -0.26056  -0.25657  -0.23415  -0.22525
 Alpha virt. eigenvalues --    0.07032   0.10857   0.11908   0.12346   0.13935
 Alpha virt. eigenvalues --    0.15843   0.17624   0.17956   0.18664   0.19540
 Alpha virt. eigenvalues --    0.23227   0.26309   0.27566   0.29882   0.56636

 Mulliken charges:
               1
     1  N   -0.581677
     2  C    0.276648
     3  N   -0.598279
     4  N   -0.246091
     5  N   -0.464140
     6  N   -0.456952
     7  H    0.236301
     8  H    0.246421
     9  H    0.094853
    10  H    0.251038
    11  H    0.243934
    12  H    0.248944
    13  H    0.251529
    14  H    0.259814
    15  H    0.237656
 Sum of Mulliken charges =  -0.00000

 Dipole moment (field-independent basis, Debye):
    X=              0.0992    Y=              0.2256    Z=             -0.0435  Tot=              0.2503
 Quadrupole moment (field-independent basis, Debye-Ang):
   XX=            -40.8595   YY=            -34.5874   ZZ=            -33.1228
   XY=             -1.5057   XZ=             -0.8825   YZ=             -1.4174

  Exact polarizability:  48.553   1.020  48.682  -0.164  -1.795  46.609
 Approx polarizability:  62.304   2.085  66.983  -0.493  -2.636  66.940

                      1                      2                      3
                      A                      A                      A
 Frequencies --    127.4515               234.0069               282.5847
 Red. masses --      3.7571                 1.0553                 3.1224
 Frc consts  --      0.0360                 0.0340                 0.1469
 IR Inten    --      0.1441                75.5191                 6.0620

                      4                      5                      6
                      A                      A                      A
 Frequencies --    298.3510               335.7391               365.9266
 Red. masses --      2.6045                 1.2520                 1.1485
 Frc consts  --      0.1366                 0.0831                 0.0906
 IR Inten    --     20.0417                42.8606                16.7687

                      7                      8                      9
                      A                      A                      A
 Frequencies --    385.3317               423.2249               503.9639
 Red. masses --      1.1349                 2.3143                 2.6268
 Frc consts  --      0.0993                 0.2442                 0.3931
 IR Inten    --     21.0055                29.4174                37.9385

                     10                     11                     12
                      A                      A                      A
 Frequencies --    570.5313               644.5898               783.5800
 Red. masses --      3.3455                 2.9918                 3.8147
 Frc consts  --      0.6416                 0.7324                 1.3800
 IR Inten    --      9.5022                19.7440                28.6563

                     13                     14                     15
                      A                      A                      A
 Frequencies --    895.8455               901.7759               941.2413
 Red. masses --      2.2082                 2.6935                 2.1197
 Frc consts  --      1.0441                 1.2905                 1.1064
 IR Inten    --     46.4118                78.8045                90.6908

                     16                     17                     18
                      A                      A                      A
 Frequencies --    951.5636              1042.1298              1130.2772
 Red. masses --      1.5891                 1.5478                 1.8618
 Frc consts  --      0.8477                 0.9904                 1.4014
 IR Inten    --    197.8814               168.2085                32.1037

                     19                     20                     21
                      A                      A                      A
 Frequencies --   1146.2962              1167.9034              1242.2891
 Red. masses --      1.2234                 2.6658                 2.0619
 Frc consts  --      0.9472                 2.1424                 1.8749
 IR Inten    --     72.7911                41.8528                 4.9754

                     22                     23                     24
                      A                      A                      A
 Frequencies --   1293.0630              1329.6078              1358.1746
 Red. masses --      1.2054                 1.5706                 1.2837
 Frc consts  --      1.1875                 1.6359                 1.3951
 IR Inten    --      3.2785                11.7950                 6.5298

                     25                     26                     27
                      A                      A                      A
 Frequencies --   1408.0094              1430.6708              1652.1233
 Red. masses --      1.2819                 1.2623                 1.0854
 Frc consts  --      1.4973                 1.5223                 1.7456
 IR Inten    --     29.5088                22.1522                18.1059

                     28                     29                     30
                      A                      A                      A
 Frequencies --   1661.0131              1679.6698              1695.3400
 Red. masses --      1.0869                 1.0898                 1.0774
 Frc consts  --      1.7668                 1.8115                 1.8244
 IR Inten    --     31.6815                25.1707                21.5055

                     31                     32                     33
                      A                      A                      A
 Frequencies --   3066.2942              3392.8345              3421.1004
 Red. masses --      1.0873                 1.0532                 1.0554
 Frc consts  --      6.0231                 7.1430                 7.2778
 IR Inten    --     37.7173                13.7168                 5.6626

                     34                     35                     36
                      A                      A                      A
 Frequencies --   3462.3948              3487.5948              3540.3927
 Red. masses --      1.0497                 1.0510                 1.0861
 Frc consts  --      7.4141                 7.5320                 8.0208
 IR Inten    --      2.6980                 0.1418                 0.7468

                     37                     38                     39
                      A                      A                      A
 Frequencies --   3543.2367              3544.1892              3572.4360
 Red. masses --      1.0899                 1.0881                 1.0902
 Frc consts  --      8.0620                 8.0531                 8.1977
 IR Inten    --      2.8210                 0.5477                 1.2597

 - Thermochemistry -
 -------------------
 Temperature   298.150 Kelvin.  Pressure   1.00000 Atm.
 Atom     1 has atomic number  7 and mass  14.00307

 Molecular mass:    91.08580 amu.
 Principal axes and moments of inertia in atomic units:
                           1         2         3
     Eigenvalues --   375.08279 606.98421 713.14007
           X            1.00000   0.00264   0.00008
           Y           -0.00263   0.99959  -0.02862
           Z           -0.00016   0.02861   0.99959
 This molecule is an asymmetric top.
 Rotational symmetry number  1.
 Rotational temperatures (Kelvin)      0.23092     0.14270     0.12145
 Rotational constants (GHZ):           4.81158     2.97329     2.53070
 Zero-point vibrational energy     352376.5 (Joules/Mol)
                                   84.22000 (Kcal/Mol)
 Warning -- explicit consideration of  10 degrees of freedom as
           vibrations may cause significant error
 Vibrational temperatures:    183.37   336.68   406.58   429.26   483.05
          (Kelvin)            526.49   554.41   608.93   725.09   820.87
                              927.42  1127.40  1288.92  1297.45  1354.23
                             1369.09  1499.39  1626.21  1649.26  1680.35
                             1787.37  1860.43  1913.01  1954.11  2025.81
                             2058.41  2377.03  2389.82  2416.67  2439.21
                             4411.71  4881.53  4922.19  4981.61  5017.86
                             5093.83  5097.92  5099.29  5139.93

 Zero-point correction=                           0.134213 (Hartree/Particle)
 Thermal correction to Energy=                    0.141414
 Thermal correction to Enthalpy=                  0.142358
 Thermal correction to Gibbs Free Energy=         0.104018
 Sum of electronic and zero-point Energies=           -317.090644
 Sum of electronic and thermal Energies=              -317.083443
 Sum of electronic and thermal Enthalpies=            -317.082499
 Sum of electronic and thermal Free Energies=         -317.120838

                     E (Thermal)             CV                S
                      KCal/Mol        Cal/Mol-Kelvin    Cal/Mol-Kelvin
 Total                   88.739             26.968             80.693
 Electronic               0.000              0.000              0.000
 Translational            0.889              2.981             39.440
 Rotational               0.889              2.981             26.587
 Vibrational             86.961             21.006             14.666
 Vibration     1          0.611              1.926              2.984
 Vibration     2          0.654              1.789              1.848
 Vibration     3          0.682              1.706              1.518
 Vibration     4          0.691              1.677              1.426
 Vibration     5          0.717              1.604              1.232
 Vibration     6          0.739              1.542              1.097
 Vibration     7          0.754              1.501              1.018
 Vibration     8          0.785              1.420              0.881
 Vibration     9          0.859              1.241              0.648
 Vibration    10          0.927              1.095              0.503

 Optimization completed.
    -- Stationary point found.
 Normal termination of Gaussian 09 at Thu Sep  8 14:55:00 2022.
