 Gaussian 09, Revision E.01,
 Gaussian 09:  ES64L-G09RevE.01 30-Nov-2015

 ----------------------------
 #P OPT Freq B3LYP/6-31G(d,p)
 ----------------------------

 --------
 Frag_986
 --------
 Symbolic Z-matrix:
 Charge =  0 Multiplicity = 1

 SCF Done:  E(RB3LYP) =  -211.307231624     A.U. after   14 cycles
 SCF Done:  E(RB3LYP) =  -211.307378223     A.U. after   10 cycles
 SCF Done:  E(RB3LYP) =  -211.307364969     A.U. after   10 cycles
 SCF Done:  E(RB3LYP) =  -211.307366041     A.U. after   10 cycles
 SCF Done:  E(RB3LYP) =  -211.307389134     A.U. after   10 cycles
 SCF Done:  E(RB3LYP) =  -211.307397728     A.U. after    9 cycles
 SCF Done:  E(RB3LYP) =  -211.307398153     A.U. after    8 cycles
 SCF Done:  E(RB3LYP) =  -211.307398260     A.U. after    7 cycles
 Optimization completed.
    -- Stationary point found.
 Normal termination of Gaussian 09 at Thu Sep  8 14:58:24 2022.

 ----------------------------------------------------------------------
 #P Geom=AllCheck Guess=TCheck SCRF=Check GenChk RB3LYP/6-31G(d,p) Freq
 ----------------------------------------------------------------------

 Structure from the checkpoint file:  "B3LYP6-31Gdp.Frag_986.chk"
 --------
 Frag_986
 --------
 Charge =  0 Multiplicity = 1

                         Standard orientation:
 ---------------------------------------------------------------------
 Center     Atomic      Atomic             Coordinates (Angstroms)
 Number     Number       Type             X           Y           Z
 ---------------------------------------------------------------------
      1          6           0        2.194535    0.000178    0.071830
      2          6           0        0.992060    0.000693   -0.077079
      3          7           0       -0.343407    0.000042   -0.275509
      4          6           0       -1.048134    1.234368    0.072912
      5          6           0       -1.046958   -1.234978    0.072852
      6          1           0        3.252646    0.000537    0.178154
      7          1           0       -2.040526    1.221005   -0.388211
      8          1           0       -0.492420    2.088252   -0.318436
      9          1           0       -1.168183    1.360540    1.160412
     10          1           0       -0.490425   -2.088319   -0.318519
     11          1           0       -2.039362   -1.222558   -0.388269
     12          1           0       -1.166895   -1.361320    1.160346
 ---------------------------------------------------------------------

 SCF Done:  E(RB3LYP) =  -211.307398260     A.U. after    1 cycles

 The electronic state is 1-A.
 Alpha  occ. eigenvalues --  -14.36313 -10.21816 -10.21815 -10.19882 -10.16048
 Alpha  occ. eigenvalues --   -0.94646  -0.73021  -0.72128  -0.65874  -0.53085
 Alpha  occ. eigenvalues --   -0.48806  -0.46910  -0.46424  -0.40335  -0.40318
 Alpha  occ. eigenvalues --   -0.38291  -0.31092  -0.25808  -0.19958
 Alpha virt. eigenvalues --    0.06362   0.08355   0.09554   0.13179   0.13916
 Alpha virt. eigenvalues --    0.15197   0.16065   0.17624   0.17712   0.19016
 Alpha virt. eigenvalues --    0.24212   0.28678   0.42636   0.49406   0.52010

 Mulliken charges:
               1
     1  C   -0.315804
     2  C    0.390923
     3  N   -0.576786
     4  C   -0.170140
     5  C   -0.170157
     6  H    0.141850
     7  H    0.112331
     8  H    0.131516
     9  H    0.106198
    10  H    0.131530
    11  H    0.112342
    12  H    0.106198
 Sum of Mulliken charges =  -0.00000

 Dipole moment (field-independent basis, Debye):
    X=             -1.5197    Y=             -0.0004    Z=              0.4882  Tot=              1.5962
 Quadrupole moment (field-independent basis, Debye-Ang):
   XX=            -27.3510   YY=            -29.0028   ZZ=            -32.8253
   XY=              0.0001   XZ=              0.3006   YZ=              0.0002

  Exact polarizability:  69.348  -0.004  39.277   1.367  -0.001  31.931
 Approx polarizability: 105.746  -0.020  48.430   5.542  -0.003  44.245

                      1                      2                      3
                      A                      A                      A
 Frequencies --    165.3243               188.9430               211.0156
 Red. masses --      1.6900                 2.5264                 1.1410
 Frc consts  --      0.0272                 0.0531                 0.0299
 IR Inten    --      2.1353                 0.0004                 0.3685

                      4                      5                      6
                      A                      A                      A
 Frequencies --    228.1476               317.3607               380.3113
 Red. masses --      1.5898                 1.5375                 2.1593
 Frc consts  --      0.0488                 0.0912                 0.1840
 IR Inten    --      4.4055                71.9893                 1.5896

                      7                      8                      9
                      A                      A                      A
 Frequencies --    525.2806               597.3811               660.9716
 Red. masses --      2.9154                 5.7585                 1.1856
 Frc consts  --      0.4739                 1.2108                 0.3052
 IR Inten    --      2.8819                 4.3527                40.1666

                     10                     11                     12
                      A                      A                      A
 Frequencies --    788.6626              1070.7785              1075.2101
 Red. masses --      4.5715                 1.6252                 1.9453
 Frc consts  --      1.6753                 1.0979                 1.3250
 IR Inten    --      7.9404                15.6656                50.6533

                     13                     14                     15
                      A                      A                      A
 Frequencies --   1123.2239              1173.4340              1244.1876
 Red. masses --      1.2343                 1.3861                 3.5247
 Frc consts  --      0.9175                 1.1245                 3.2147
 IR Inten    --      5.8936                12.3730                17.6426

                     16                     17                     18
                      A                      A                      A
 Frequencies --   1348.7117              1452.3861              1476.9270
 Red. masses --      2.9650                 1.1434                 1.1594
 Frc consts  --      3.1777                 1.4211                 1.4900
 IR Inten    --     24.6480                 0.9580                 4.7645

                     19                     20                     21
                      A                      A                      A
 Frequencies --   1494.4710              1506.5580              1512.2176
 Red. masses --      1.0449                 1.0579                 1.0466
 Frc consts  --      1.3750                 1.4147                 1.4101
 IR Inten    --      8.1918                24.1677                 6.6619

                     22                     23                     24
                      A                      A                      A
 Frequencies --   1529.8451              2244.9053              2990.8184
 Red. masses --      1.0651                 6.3461                 1.0508
 Frc consts  --      1.4688                18.8432                 5.5377
 IR Inten    --      4.2211               132.0037                42.8883

                     25                     26                     27
                      A                      A                      A
 Frequencies --   2996.0189              3088.9475              3089.6507
 Red. masses --      1.0533                 1.0864                 1.0838
 Frc consts  --      5.5706                 6.1075                 6.0955
 IR Inten    --    111.3915                 4.2870                60.9253

                     28                     29                     30
                      A                      A                      A
 Frequencies --   3147.4109              3148.7248              3504.0571
 Red. masses --      1.1015                 1.1024                 1.1535
 Frc consts  --      6.4290                 6.4395                 8.3445
 IR Inten    --     12.2834                18.6558                94.0099

 - Thermochemistry -
 -------------------
 Temperature   298.150 Kelvin.  Pressure   1.00000 Atm.
 Atom     1 has atomic number  6 and mass  12.00000

 Molecular mass:    69.05785 amu.
 Principal axes and moments of inertia in atomic units:
                           1         2         3
     Eigenvalues --   202.40279 443.49370 613.32627
           X            1.00000  -0.00002  -0.00257
           Y            0.00002   1.00000   0.00000
           Z            0.00257  -0.00000   1.00000
 This molecule is an asymmetric top.
 Rotational symmetry number  1.
 Rotational temperatures (Kelvin)      0.42793     0.19530     0.14122
 Rotational constants (GHZ):           8.91658     4.06937     2.94255
 Zero-point vibrational energy     264864.5 (Joules/Mol)
                                   63.30413 (Kcal/Mol)
 Warning -- explicit consideration of   8 degrees of freedom as
           vibrations may cause significant error
 Vibrational temperatures:    237.86   271.85   303.60   328.25   456.61
          (Kelvin)            547.18   755.76   859.50   950.99  1134.71
                             1540.61  1546.99  1616.07  1688.31  1790.11
                             1940.49  2089.66  2124.97  2150.21  2167.60
                             2175.74  2201.10  3229.91  4303.12  4310.60
                             4444.30  4445.31  4528.42  4530.31  5041.55

 Zero-point correction=                           0.100882 (Hartree/Particle)
 Thermal correction to Energy=                    0.107428
 Thermal correction to Enthalpy=                  0.108372
 Thermal correction to Gibbs Free Energy=         0.071721
 Sum of electronic and zero-point Energies=           -211.206517
 Sum of electronic and thermal Energies=              -211.199970
 Sum of electronic and thermal Enthalpies=            -211.199026
 Sum of electronic and thermal Free Energies=         -211.235678

                     E (Thermal)             CV                S
                      KCal/Mol        Cal/Mol-Kelvin    Cal/Mol-Kelvin
 Total                   67.412             22.142             77.140
 Electronic               0.000              0.000              0.000
 Translational            0.889              2.981             38.614
 Rotational               0.889              2.981             25.513
 Vibrational             65.635             16.181             13.012
 Vibration     1          0.624              1.885              2.488
 Vibration     2          0.633              1.855              2.238
 Vibration     3          0.643              1.824              2.035
 Vibration     4          0.651              1.798              1.893
 Vibration     5          0.704              1.640              1.324
 Vibration     6          0.750              1.512              1.038
 Vibration     7          0.880              1.194              0.598
 Vibration     8          0.955              1.037              0.454

 Normal termination of Gaussian 09 at Thu Sep  8 14:58:33 2022.
