 Gaussian 09, Revision E.01,
 Gaussian 09:  ES64L-G09RevE.01 30-Nov-2015

 ----------------------------
 #P OPT Freq B3LYP/6-31G(d,p)
 ----------------------------

 --------
 Frag_807
 --------
 Symbolic Z-matrix:
 Charge =  0 Multiplicity = 1

 SCF Done:  E(RB3LYP) =  -307.679023540     A.U. after   13 cycles
 SCF Done:  E(RB3LYP) =  -307.679123177     A.U. after   10 cycles
 SCF Done:  E(RB3LYP) =  -307.679129015     A.U. after    8 cycles
 SCF Done:  E(RB3LYP) =  -307.679129470     A.U. after    7 cycles
 Optimization completed.
    -- Stationary point found.
 Normal termination of Gaussian 09 at Thu Sep  8 15:07:33 2022.

 ----------------------------------------------------------------------
 #P Geom=AllCheck Guess=TCheck SCRF=Check GenChk RB3LYP/6-31G(d,p) Freq
 ----------------------------------------------------------------------

 Structure from the checkpoint file:  "B3LYP6-31Gdp.Frag_807.chk"
 --------
 Frag_807
 --------
 Charge =  0 Multiplicity = 1

                         Standard orientation:
 ---------------------------------------------------------------------
 Center     Atomic      Atomic             Coordinates (Angstroms)
 Number     Number       Type             X           Y           Z
 ---------------------------------------------------------------------
      1          6           0        1.442755   -1.285119    0.033537
      2          6           0        0.659264   -0.000003    0.000014
      3          6           0        1.442728    1.285128   -0.033554
      4          6           0       -0.678906   -0.000008    0.000045
      5          8           0       -1.432691    1.145460    0.114920
      6          8           0       -1.432706   -1.145453   -0.114953
      7          1           0        0.791180   -2.155835    0.119588
      8          1           0        2.047526   -1.401369   -0.875936
      9          1           0        2.145730   -1.290734    0.877526
     10          1           0        2.146024    1.290544   -0.877274
     11          1           0        0.791155    2.155801   -0.120068
     12          1           0        2.047142    1.401647    0.876123
     13          1           0       -2.120355    1.112223   -0.567828
     14          1           0       -2.120290   -1.112324    0.567878
 ---------------------------------------------------------------------

 SCF Done:  E(RB3LYP) =  -307.679129470     A.U. after    1 cycles

 The electronic state is 1-A.
 Alpha  occ. eigenvalues --  -19.17319 -19.17318 -10.27429 -10.17427 -10.16878
 Alpha  occ. eigenvalues --  -10.16877  -1.08496  -1.01337  -0.78978  -0.67961
 Alpha  occ. eigenvalues --   -0.66832  -0.56281  -0.54662  -0.45926  -0.44071
 Alpha  occ. eigenvalues --   -0.42417  -0.40860  -0.38708  -0.37238  -0.36462
 Alpha  occ. eigenvalues --   -0.34005  -0.32483  -0.31635  -0.20400
 Alpha virt. eigenvalues --    0.05358   0.06201   0.09831   0.11838   0.16500
 Alpha virt. eigenvalues --    0.16561   0.18823   0.19363   0.20106   0.24356
 Alpha virt. eigenvalues --    0.24400   0.25416   0.36022   0.45131   0.52193

 Mulliken charges:
               1
     1  C   -0.360945
     2  C    0.097012
     3  C   -0.360938
     4  C    0.405522
     5  O   -0.534462
     6  O   -0.534463
     7  H    0.122305
     8  H    0.106669
     9  H    0.102566
    10  H    0.102559
    11  H    0.122302
    12  H    0.106676
    13  H    0.312597
    14  H    0.312600
 Sum of Mulliken charges =   0.00000

 Dipole moment (field-independent basis, Debye):
    X=             -1.4108    Y=             -0.0002    Z=              0.0002  Tot=              1.4108
 Quadrupole moment (field-independent basis, Debye-Ang):
   XX=            -29.4466   YY=            -38.5926   ZZ=            -36.2528
   XY=              0.0003   XZ=             -0.0003   YZ=             -3.0000

  Exact polarizability:  69.882   0.000  49.529   0.000  -0.793  35.412
 Approx polarizability: 101.284  -0.000  64.639  -0.000   0.335  50.996

                      1                      2                      3
                      A                      A                      A
 Frequencies --    164.2090               170.5044               182.4061
 Red. masses --      1.0197                 1.0582                 3.8258
 Frc consts  --      0.0162                 0.0181                 0.0750
 IR Inten    --      0.0502                 8.5287                 0.4434

                      4                      5                      6
                      A                      A                      A
 Frequencies --    259.9180               279.8617               332.2821
 Red. masses --      1.7026                 1.7022                 2.7621
 Frc consts  --      0.0678                 0.0785                 0.1797
 IR Inten    --     46.6316                87.2373                14.6363

                      7                      8                      9
                      A                      A                      A
 Frequencies --    348.9688               458.3717               538.1517
 Red. masses --      2.4465                 1.3676                 2.1587
 Frc consts  --      0.1755                 0.1693                 0.3683
 IR Inten    --      2.7915                42.4075               133.3188

                     10                     11                     12
                      A                      A                      A
 Frequencies --    539.0127               591.3706               736.3783
 Red. masses --      5.2497                 4.3664                 4.3150
 Frc consts  --      0.8986                 0.8997                 1.3786
 IR Inten    --     12.2922                 8.8164                 0.2016

                     13                     14                     15
                      A                      A                      A
 Frequencies --    977.6606               982.4854              1008.3498
 Red. masses --      2.4011                 1.3362                 1.2429
 Frc consts  --      1.3522                 0.7599                 0.7445
 IR Inten    --     19.6781                 1.5089                 0.1496

                     16                     17                     18
                      A                      A                      A
 Frequencies --   1108.7449              1127.9496              1220.8660
 Red. masses --      1.5682                 1.7606                 5.0221
 Frc consts  --      1.1358                 1.3198                 4.4104
 IR Inten    --      0.6117               197.0550                58.6830

                     19                     20                     21
                      A                      A                      A
 Frequencies --   1250.8984              1297.2468              1313.2247
 Red. masses --      1.5476                 1.5186                 2.8607
 Frc consts  --      1.4267                 1.5057                 2.9067
 IR Inten    --     70.4431                 0.3079               159.3190

                     22                     23                     24
                      A                      A                      A
 Frequencies --   1422.1957              1432.5898              1496.7238
 Red. masses --      1.3673                 1.2603                 1.0462
 Frc consts  --      1.6295                 1.5239                 1.3808
 IR Inten    --      0.6209                 0.0250                 0.0362

                     25                     26                     27
                      A                      A                      A
 Frequencies --   1500.9434              1512.2832              1512.3133
 Red. masses --      1.0438                 1.0439                 1.0608
 Frc consts  --      1.3855                 1.4066                 1.4295
 IR Inten    --      5.3990                11.6142                 0.9302

                     28                     29                     30
                      A                      A                      A
 Frequencies --   1817.3111              3016.7069              3022.5347
 Red. masses --      7.0294                 1.0411                 1.0415
 Frc consts  --     13.6782                 5.5822                 5.6061
 IR Inten    --     97.9460                20.3105                76.9586

                     31                     32                     33
                      A                      A                      A
 Frequencies --   3060.1970              3061.3651              3149.8854
 Red. masses --      1.1004                 1.0997                 1.0959
 Frc consts  --      6.0718                 6.0724                 6.4066
 IR Inten    --      0.1644                66.7798                16.3626

                     34                     35                     36
                      A                      A                      A
 Frequencies --   3150.0152              3755.0335              3760.6900
 Red. masses --      1.0962                 1.0659                 1.0648
 Frc consts  --      6.4087                 8.8548                 8.8726
 IR Inten    --      9.8163                24.3480                23.1312

 - Thermochemistry -
 -------------------
 Temperature   298.150 Kelvin.  Pressure   1.00000 Atm.
 Atom     1 has atomic number  6 and mass  12.00000

 Molecular mass:    88.05243 amu.
 Principal axes and moments of inertia in atomic units:
                           1         2         3
     Eigenvalues --   375.01638 565.14284 910.15235
           X            1.00000   0.00000  -0.00000
           Y           -0.00000   0.99987  -0.01631
           Z            0.00000   0.01631   0.99987
 This molecule is an asymmetric top.
 Rotational symmetry number  1.
 Rotational temperatures (Kelvin)      0.23096     0.15326     0.09516
 Rotational constants (GHZ):           4.81243     3.19342     1.98290
 Zero-point vibrational energy     308395.2 (Joules/Mol)
                                   73.70822 (Kcal/Mol)
 Warning -- explicit consideration of  11 degrees of freedom as
           vibrations may cause significant error
 Vibrational temperatures:    236.26   245.32   262.44   373.96   402.66
          (Kelvin)            478.08   502.09   659.49   774.28   775.52
                              850.85  1059.48  1406.63  1413.58  1450.79
                             1595.23  1622.87  1756.55  1799.76  1866.45
                             1889.44  2046.22  2061.17  2153.45  2159.52
                             2175.84  2175.88  2614.70  4340.36  4348.75
                             4402.94  4404.62  4531.98  4532.16  5402.65
                             5410.79

 Zero-point correction=                           0.117462 (Hartree/Particle)
 Thermal correction to Energy=                    0.124934
 Thermal correction to Enthalpy=                  0.125878
 Thermal correction to Gibbs Free Energy=         0.086821
 Sum of electronic and zero-point Energies=           -307.561668
 Sum of electronic and thermal Energies=              -307.554196
 Sum of electronic and thermal Enthalpies=            -307.553251
 Sum of electronic and thermal Free Energies=         -307.592308

                     E (Thermal)             CV                S
                      KCal/Mol        Cal/Mol-Kelvin    Cal/Mol-Kelvin
 Total                   78.397             26.584             82.201
 Electronic               0.000              0.000              0.000
 Translational            0.889              2.981             39.339
 Rotational               0.889              2.981             26.759
 Vibrational             76.620             20.622             16.104
 Vibration     1          0.623              1.886              2.501
 Vibration     2          0.626              1.879              2.430
 Vibration     3          0.630              1.864              2.304
 Vibration     4          0.668              1.746              1.662
 Vibration     5          0.680              1.711              1.535
 Vibration     6          0.714              1.611              1.249
 Vibration     7          0.726              1.577              1.171
 Vibration     8          0.816              1.342              0.771
 Vibration     9          0.893              1.166              0.569
 Vibration    10          0.894              1.164              0.567
 Vibration    11          0.949              1.050              0.465

 Normal termination of Gaussian 09 at Thu Sep  8 15:07:44 2022.
