 Gaussian 09, Revision E.01,
 Gaussian 09:  ES64L-G09RevE.01 30-Nov-2015

 -------------------------
 #P OPT Freq B3LYP/6-31G**
 -------------------------

 --------
 Frag_182
 --------
 Symbolic Z-matrix:
 Charge =  0 Multiplicity = 1

 SCF Done:  E(RB3LYP) =  -260.659057561     A.U. after   14 cycles
 SCF Done:  E(RB3LYP) =  -260.677332266     A.U. after   13 cycles
 SCF Done:  E(RB3LYP) =  -260.684535700     A.U. after   13 cycles
 SCF Done:  E(RB3LYP) =  -260.688407745     A.U. after   13 cycles
 SCF Done:  E(RB3LYP) =  -260.692815196     A.U. after   12 cycles
 SCF Done:  E(RB3LYP) =  -260.696824160     A.U. after   13 cycles
 SCF Done:  E(RB3LYP) =  -260.699673491     A.U. after   13 cycles
 SCF Done:  E(RB3LYP) =  -260.700872218     A.U. after   11 cycles
 SCF Done:  E(RB3LYP) =  -260.701162522     A.U. after   11 cycles
 SCF Done:  E(RB3LYP) =  -260.701228825     A.U. after   10 cycles
 SCF Done:  E(RB3LYP) =  -260.701255594     A.U. after    9 cycles
 SCF Done:  E(RB3LYP) =  -260.701261796     A.U. after    9 cycles
 SCF Done:  E(RB3LYP) =  -260.701265111     A.U. after    8 cycles
 SCF Done:  E(RB3LYP) =  -260.701268276     A.U. after    8 cycles
 SCF Done:  E(RB3LYP) =  -260.701269099     A.U. after    8 cycles
 Optimization completed.
    -- Stationary point found.
 Normal termination of Gaussian 09 at Sat Aug 21 01:39:51 2021.

 ----------------------------------------------------------------------
 #P Geom=AllCheck Guess=TCheck SCRF=Check GenChk RB3LYP/6-31G(d,p) Freq
 ----------------------------------------------------------------------

 Structure from the checkpoint file:  "/public/home/users/caep010/.cache/gau_scr/Gau-178618.chk"
 --------
 Frag_182
 --------
 Charge =  0 Multiplicity = 1

                         Standard orientation:
 ---------------------------------------------------------------------
 Center     Atomic      Atomic             Coordinates (Angstroms)
 Number     Number       Type             X           Y           Z
 ---------------------------------------------------------------------
      1          7           0        1.834090   -0.047602   -0.045126
      2          7           0        0.602160   -0.817918   -0.047746
      3          6           0       -0.426411   -0.035881   -0.001531
      4          7           0       -1.695571   -0.607461    0.110073
      5          7           0       -0.366178    1.340906    0.058943
      6          1           0        2.531611   -0.685741   -0.421381
      7          1           0        2.105090    0.084054    0.933285
      8          1           0       -1.633800   -1.609734   -0.028722
      9          1           0       -2.390333   -0.194612   -0.502946
     10          1           0       -1.192497    1.857275   -0.203448
     11          1           0        0.516888    1.688569   -0.300605
 ---------------------------------------------------------------------

 SCF Done:  E(RB3LYP) =  -260.701269099     A.U. after    1 cycles

 The electronic state is 1-A.
 Alpha  occ. eigenvalues --  -14.33657 -14.33603 -14.33096 -14.30121 -10.26545
 Alpha  occ. eigenvalues --   -0.97615  -0.90067  -0.86399  -0.75558  -0.57892
 Alpha  occ. eigenvalues --   -0.52669  -0.52042  -0.46827  -0.45070  -0.42312
 Alpha  occ. eigenvalues --   -0.37539  -0.32739  -0.26388  -0.23150  -0.19028
 Alpha virt. eigenvalues --    0.05755   0.08571   0.09496   0.13129   0.14626
 Alpha virt. eigenvalues --    0.16500   0.17657   0.20687   0.28388   0.36314
 Alpha virt. eigenvalues --    0.43921   0.57872   0.59271   0.62571   0.65578

 Mulliken charges:
               1
     1  N   -0.506134
     2  N   -0.431029
     3  C    0.620323
     4  N   -0.619518
     5  N   -0.618428
     6  H    0.256680
     7  H    0.250479
     8  H    0.268552
     9  H    0.245716
    10  H    0.249645
    11  H    0.283714
 Sum of Mulliken charges =   0.00000

 Dipole moment (field-independent basis, Debye):
    X=             -1.0188    Y=              1.1967    Z=             -1.1743  Tot=              1.9619
 Quadrupole moment (field-independent basis, Debye-Ang):
   XX=            -22.6369   YY=            -28.1845   ZZ=            -31.2898
   XY=             -0.9334   XZ=              4.7678   YZ=             -0.7950

  Exact polarizability:  55.885  -3.142  39.813   1.965   0.236  22.351
 Approx polarizability:  77.680  -8.895  59.230   1.001   1.268  31.535

                      1                      2                      3
                      A                      A                      A
 Frequencies --    124.9952               265.5429               287.8060
 Red. masses --      1.0953                 1.4562                 2.0001
 Frc consts  --      0.0101                 0.0605                 0.0976
 IR Inten    --     35.1368                13.2545                17.1173

                      4                      5                      6
                      A                      A                      A
 Frequencies --    334.5899               417.5265               488.5831
 Red. masses --      3.2595                 1.4200                 1.8373
 Frc consts  --      0.2150                 0.1458                 0.2584
 IR Inten    --      3.5861                97.9218                67.1381

                      7                      8                      9
                      A                      A                      A
 Frequencies --    610.3834               629.5184               670.1984
 Red. masses --      1.9395                 2.8462                 1.5416
 Frc consts  --      0.4257                 0.6646                 0.4080
 IR Inten    --     51.4015                45.2462               126.5408

                     10                     11                     12
                      A                      A                      A
 Frequencies --    795.7011               922.5510               984.1886
 Red. masses --      2.1465                 5.4912                 2.8497
 Frc consts  --      0.8007                 2.7536                 1.6263
 IR Inten    --    243.8488                 8.6257                35.7165

                     13                     14                     15
                      A                      A                      A
 Frequencies --   1073.9229              1103.6029              1228.8574
 Red. masses --      1.3747                 1.3166                 1.5129
 Frc consts  --      0.9341                 0.9448                 1.3461
 IR Inten    --     55.6500                29.5590                 2.9689

                     16                     17                     18
                      A                      A                      A
 Frequencies --   1302.1785              1456.5219              1604.5257
 Red. masses --      1.2930                 2.7928                 1.3321
 Frc consts  --      1.2917                 3.4908                 2.0207
 IR Inten    --     12.9073                50.5716               120.3981

                     19                     20                     21
                      A                      A                      A
 Frequencies --   1633.2520              1657.5358              1748.6801
 Red. masses --      1.2628                 1.1144                 3.6105
 Frc consts  --      1.9848                 1.8039                 6.5049
 IR Inten    --     71.2308                16.7290               274.1008

                     22                     23                     24
                      A                      A                      A
 Frequencies --   3417.4665              3529.9371              3534.3783
 Red. masses --      1.0564                 1.0486                 1.0513
 Frc consts  --      7.2690                 7.6979                 7.7376
 IR Inten    --      5.9118                 8.1068                30.0930

                     25                     26                     27
                      A                      A                      A
 Frequencies --   3539.7213              3640.5732              3681.5829
 Red. masses --      1.0823                 1.0956                 1.0981
 Frc consts  --      7.9899                 8.5555                 8.7693
 IR Inten    --      2.3493                12.6307                29.1441

 - Thermochemistry -
 -------------------
 Temperature   298.150 Kelvin.  Pressure   1.00000 Atm.
 Atom     1 has atomic number  7 and mass  14.00307

 Molecular mass:    74.05925 amu.
 Principal axes and moments of inertia in atomic units:
                           1         2         3
     Eigenvalues --   181.77145 426.00817 595.81620
           X            0.99981   0.00306   0.01912
           Y           -0.00291   0.99996  -0.00789
           Z           -0.01914   0.00784   0.99979
 This molecule is an asymmetric top.
 Rotational symmetry number  1.
 Rotational temperatures (Kelvin)      0.47650     0.20331     0.14537
 Rotational constants (GHZ):           9.92863     4.23640     3.02902
 Zero-point vibrational energy     243346.3 (Joules/Mol)
                                   58.16116 (Kcal/Mol)
 Warning -- explicit consideration of   7 degrees of freedom as
           vibrations may cause significant error
 Vibrational temperatures:    179.84   382.06   414.09   481.40   600.73
          (Kelvin)            702.96   878.20   905.74   964.26  1144.83
                             1327.34  1416.03  1545.13  1587.84  1768.05
                             1873.54  2095.61  2308.55  2349.88  2384.82
                             2515.96  4916.97  5078.79  5085.18  5092.86
                             5237.97  5296.97

 Zero-point correction=                           0.092686 (Hartree/Particle)
 Thermal correction to Energy=                    0.098698
 Thermal correction to Enthalpy=                  0.099642
 Thermal correction to Gibbs Free Energy=         0.064022
 Sum of electronic and zero-point Energies=           -260.608583
 Sum of electronic and thermal Energies=              -260.602572
 Sum of electronic and thermal Enthalpies=            -260.601627
 Sum of electronic and thermal Free Energies=         -260.637247

                     E (Thermal)             CV                S
                      KCal/Mol        Cal/Mol-Kelvin    Cal/Mol-Kelvin
 Total                   61.934             21.199             74.967
 Electronic               0.000              0.000              0.000
 Translational            0.889              2.981             38.823
 Rotational               0.889              2.981             25.337
 Vibrational             60.156             15.237             10.807
 Vibration     1          0.610              1.928              3.022
 Vibration     2          0.671              1.736              1.625
 Vibration     3          0.685              1.696              1.487
 Vibration     4          0.716              1.606              1.238
 Vibration     5          0.781              1.432              0.900
 Vibration     6          0.844              1.275              0.687
 Vibration     7          0.969              1.010              0.432

 Normal termination of Gaussian 09 at Sat Aug 21 01:39:59 2021.
