 Gaussian 09, Revision E.01,
 Gaussian 09:  ES64L-G09RevE.01 30-Nov-2015

 ----------------------------
 #P OPT Freq B3LYP/6-31G(d,p)
 ----------------------------

 --------
 Frag_667
 --------
 Symbolic Z-matrix:
 Charge =  0 Multiplicity = 1

 SCF Done:  E(RB3LYP) =  -228.635022230     A.U. after   13 cycles
 SCF Done:  E(RB3LYP) =  -228.635072423     A.U. after    9 cycles
 SCF Done:  E(RB3LYP) =  -228.635076824     A.U. after    8 cycles
 SCF Done:  E(RB3LYP) =  -228.635078307     A.U. after    8 cycles
 SCF Done:  E(RB3LYP) =  -228.635078527     A.U. after    7 cycles
 SCF Done:  E(RB3LYP) =  -228.635078627     A.U. after    7 cycles
 SCF Done:  E(RB3LYP) =  -228.635078677     A.U. after    6 cycles
 SCF Done:  E(RB3LYP) =  -228.635078702     A.U. after    6 cycles
 Optimization completed.
    -- Stationary point found.
 Normal termination of Gaussian 09 at Thu Sep  8 15:21:39 2022.

 ----------------------------------------------------------------------
 #P Geom=AllCheck Guess=TCheck SCRF=Check GenChk RB3LYP/6-31G(d,p) Freq
 ----------------------------------------------------------------------

 Structure from the checkpoint file:  "B3LYP6-31Gdp.Frag_667.chk"
 --------
 Frag_667
 --------
 Charge =  0 Multiplicity = 1

                         Standard orientation:
 ---------------------------------------------------------------------
 Center     Atomic      Atomic             Coordinates (Angstroms)
 Number     Number       Type             X           Y           Z
 ---------------------------------------------------------------------
      1          6           0        2.061275   -0.041744   -0.030352
      2          6           0        0.706356   -0.688045    0.047531
      3          6           0       -0.478204   -0.044612    0.014940
      4          7           0       -1.721846   -0.695562   -0.108646
      5          7           0       -0.655157    1.346578    0.090273
      6          1           0        2.016780    0.965920   -0.462420
      7          1           0        2.552869    0.050738    0.948977
      8          1           0        2.739547   -0.623518   -0.666342
      9          1           0        0.681750   -1.770800    0.144692
     10          1           0       -2.383668   -0.389143    0.598581
     11          1           0       -1.633801   -1.704267   -0.097518
     12          1           0       -1.283399    1.694132   -0.627224
     13          1           0        0.212380    1.866231    0.097152
 ---------------------------------------------------------------------

 SCF Done:  E(RB3LYP) =  -228.635078702     A.U. after    1 cycles

 The electronic state is 1-A.
 Alpha  occ. eigenvalues --  -14.32760 -14.32578 -10.23288 -10.17183 -10.14914
 Alpha  occ. eigenvalues --   -0.93139  -0.84954  -0.74489  -0.64987  -0.56058
 Alpha  occ. eigenvalues --   -0.50904  -0.49060  -0.43483  -0.42404  -0.39661
 Alpha  occ. eigenvalues --   -0.37625  -0.35114  -0.33011  -0.25405  -0.17997
 Alpha virt. eigenvalues --    0.06718   0.07861   0.10722   0.13180   0.14143
 Alpha virt. eigenvalues --    0.15828   0.18375   0.20368   0.22001   0.24839
 Alpha virt. eigenvalues --    0.28939   0.36763   0.45359   0.54058   0.55525

 Mulliken charges:
               1
     1  C   -0.349849
     2  C   -0.136851
     3  C    0.400722
     4  N   -0.634552
     5  N   -0.642603
     6  H    0.083199
     7  H    0.108047
     8  H    0.105418
     9  H    0.051748
    10  H    0.254175
    11  H    0.250951
    12  H    0.256078
    13  H    0.253518
 Sum of Mulliken charges =  -0.00000

 Dipole moment (field-independent basis, Debye):
    X=             -0.4410    Y=              0.2284    Z=              0.0209  Tot=              0.4971
 Quadrupole moment (field-independent basis, Debye-Ang):
   XX=            -29.7512   YY=            -26.9747   ZZ=            -33.7363
   XY=              1.7590   XZ=             -1.2980   YZ=             -2.4444

  Exact polarizability:  65.643  -4.525  49.232   0.500  -0.502  28.441
 Approx polarizability:  91.740 -12.371  70.219   1.648   0.279  39.778

                      1                      2                      3
                      A                      A                      A
 Frequencies --    130.9387               215.3604               281.5939
 Red. masses --      1.1142                 2.2123                 2.0617
 Frc consts  --      0.0113                 0.0605                 0.0963
 IR Inten    --      0.5870                 2.6827                 0.5642

                      4                      5                      6
                      A                      A                      A
 Frequencies --    363.4186               384.8682               462.9548
 Red. masses --      1.1507                 1.1845                 2.8278
 Frc consts  --      0.0895                 0.1034                 0.3571
 IR Inten    --     15.7105                46.2487                 0.2811

                      7                      8                      9
                      A                      A                      A
 Frequencies --    548.4727               573.7586               714.1179
 Red. masses --      2.8935                 2.0620                 1.2145
 Frc consts  --      0.5128                 0.3999                 0.3649
 IR Inten    --     15.5232                75.2072               138.9637

                     10                     11                     12
                      A                      A                      A
 Frequencies --    769.8300               808.3163               857.7270
 Red. masses --      1.6287                 1.4707                 2.4110
 Frc consts  --      0.5687                 0.5661                 1.0451
 IR Inten    --    192.0821               209.5389                 9.3298

                     13                     14                     15
                      A                      A                      A
 Frequencies --   1020.4580              1055.1660              1100.9552
 Red. masses --      1.7236                 1.4009                 2.1526
 Frc consts  --      1.0575                 0.9190                 1.5373
 IR Inten    --     22.7039                 1.1711                 2.3182

                     16                     17                     18
                      A                      A                      A
 Frequencies --   1149.6771              1193.6264              1322.8936
 Red. masses --      1.3711                 1.3530                 1.9293
 Frc consts  --      1.0678                 1.1358                 1.9893
 IR Inten    --      9.2995                 2.6179                42.7366

                     19                     20                     21
                      A                      A                      A
 Frequencies --   1412.3951              1451.9213              1497.6902
 Red. masses --      1.5283                 1.6285                 1.0472
 Frc consts  --      1.7962                 2.0227                 1.3839
 IR Inten    --     26.3763                12.5649                 3.4009

                     22                     23                     24
                      A                      A                      A
 Frequencies --   1516.2415              1638.8462              1642.1000
 Red. masses --      1.0561                 1.1644                 1.1605
 Frc consts  --      1.4305                 1.8425                 1.8437
 IR Inten    --      2.2676                 8.1419               102.6118

                     25                     26                     27
                      A                      A                      A
 Frequencies --   1765.0979              3006.0429              3054.4566
 Red. masses --      5.1390                 1.0417                 1.0946
 Frc consts  --      9.4333                 5.5459                 6.0168
 IR Inten    --    150.1121                64.9120                40.7100

                     28                     29                     30
                      A                      A                      A
 Frequencies --   3081.2960              3166.4114              3516.2894
 Red. masses --      1.1000                 1.0885                 1.0504
 Frc consts  --      6.1534                 6.4300                 7.6517
 IR Inten    --     35.6642                25.8364                 2.1954

                     31                     32                     33
                      A                      A                      A
 Frequencies --   3530.5243              3635.7318              3654.0471
 Red. masses --      1.0505                 1.0933                 1.0933
 Frc consts  --      7.7145                 8.5149                 8.6006
 IR Inten    --      1.9020                 4.6264                 5.1375

 - Thermochemistry -
 -------------------
 Temperature   298.150 Kelvin.  Pressure   1.00000 Atm.
 Atom     1 has atomic number  6 and mass  12.00000

 Molecular mass:    72.06875 amu.
 Principal axes and moments of inertia in atomic units:
                           1         2         3
     Eigenvalues --   194.76716 495.03501 670.82808
           X            0.99990   0.01277  -0.00527
           Y           -0.01289   0.99963  -0.02406
           Z            0.00496   0.02413   0.99970
 This molecule is an asymmetric top.
 Rotational symmetry number  1.
 Rotational temperatures (Kelvin)      0.44470     0.17497     0.12911
 Rotational constants (GHZ):           9.26615     3.64568     2.69032
 Zero-point vibrational energy     302196.0 (Joules/Mol)
                                   72.22658 (Kcal/Mol)
 Warning -- explicit consideration of   8 degrees of freedom as
           vibrations may cause significant error
 Vibrational temperatures:    188.39   309.86   405.15   522.88   553.74
          (Kelvin)            666.09   789.13   825.51  1027.46  1107.61
                             1162.99  1234.08  1468.21  1518.15  1584.03
                             1654.13  1717.36  1903.35  2032.12  2088.99
                             2154.84  2181.53  2357.93  2362.61  2539.58
                             4325.02  4394.68  4433.29  4555.75  5059.15
                             5079.63  5231.00  5257.35

 Zero-point correction=                           0.115100 (Hartree/Particle)
 Thermal correction to Energy=                    0.121381
 Thermal correction to Enthalpy=                  0.122325
 Thermal correction to Gibbs Free Energy=         0.086168
 Sum of electronic and zero-point Energies=           -228.519978
 Sum of electronic and thermal Energies=              -228.513698
 Sum of electronic and thermal Enthalpies=            -228.512754
 Sum of electronic and thermal Free Energies=         -228.548911

                     E (Thermal)             CV                S
                      KCal/Mol        Cal/Mol-Kelvin    Cal/Mol-Kelvin
 Total                   76.167             22.723             76.099
 Electronic               0.000              0.000              0.000
 Translational            0.889              2.981             38.742
 Rotational               0.889              2.981             25.673
 Vibrational             74.390             16.761             11.685
 Vibration     1          0.612              1.922              2.932
 Vibration     2          0.645              1.818              1.998
 Vibration     3          0.681              1.708              1.524
 Vibration     4          0.737              1.548              1.107
 Vibration     5          0.754              1.502              1.020
 Vibration     6          0.821              1.332              0.758
 Vibration     7          0.904              1.143              0.547
 Vibration     8          0.930              1.088              0.497

 Optimization completed.
    -- Stationary point found.
 Normal termination of Gaussian 09 at Thu Sep  8 15:21:49 2022.
