 Gaussian 09, Revision E.01,
 Gaussian 09:  ES64L-G09RevE.01 30-Nov-2015

 -------------------------
 #P OPT Freq B3LYP/6-31G**
 -------------------------

 --------
 Frag_198
 --------
 Symbolic Z-matrix:
 Charge =  0 Multiplicity = 1

 SCF Done:  E(RB3LYP) =  -157.214806236     A.U. after   12 cycles
 SCF Done:  E(RB3LYP) =  -157.222605588     A.U. after   11 cycles
 SCF Done:  E(RB3LYP) =  -157.223559730     A.U. after   10 cycles
 SCF Done:  E(RB3LYP) =  -157.223710352     A.U. after    9 cycles
 SCF Done:  E(RB3LYP) =  -157.223717734     A.U. after    7 cycles
 SCF Done:  E(RB3LYP) =  -157.223719683     A.U. after    7 cycles
 Optimization completed.
    -- Stationary point found.
 Normal termination of Gaussian 09 at Sat Aug 21 01:35:12 2021.

 ----------------------------------------------------------------------
 #P Geom=AllCheck Guess=TCheck SCRF=Check GenChk RB3LYP/6-31G(d,p) Freq
 ----------------------------------------------------------------------

 Structure from the checkpoint file:  "/public/home/users/caep010/.cache/gau_scr/Gau-110950.chk"
 --------
 Frag_198
 --------
 Charge =  0 Multiplicity = 1

                         Standard orientation:
 ---------------------------------------------------------------------
 Center     Atomic      Atomic             Coordinates (Angstroms)
 Number     Number       Type             X           Y           Z
 ---------------------------------------------------------------------
      1          6           0       -1.554804   -0.000000   -0.137061
      2          6           0       -0.181422   -0.000000    0.499456
      3          6           0        0.957550    0.755575   -0.140162
      4          6           0        0.957551   -0.755575   -0.140162
      5          1           0       -1.479637    0.000003   -1.230327
      6          1           0       -2.130920   -0.885695    0.154924
      7          1           0       -2.130921    0.885693    0.154928
      8          1           0       -0.191181   -0.000002    1.588200
      9          1           0        0.763498    1.263501   -1.081259
     10          1           0        1.666206    1.271380    0.501182
     11          1           0        1.666207   -1.271378    0.501181
     12          1           0        0.763498   -1.263502   -1.081259
 ---------------------------------------------------------------------

 SCF Done:  E(RB3LYP) =  -157.223719683     A.U. after    1 cycles

 The electronic state is 1-A.
 Alpha  occ. eigenvalues --  -10.18734 -10.17888 -10.17864 -10.17439  -0.84811
 Alpha  occ. eigenvalues --   -0.70385  -0.59133  -0.56060  -0.48489  -0.44683
 Alpha  occ. eigenvalues --   -0.40328  -0.38507  -0.35588  -0.34474  -0.28134
 Alpha  occ. eigenvalues --   -0.27202
 Alpha virt. eigenvalues --    0.10234   0.11365   0.14256   0.14887   0.15728
 Alpha virt. eigenvalues --    0.17401   0.17975   0.19107   0.23236   0.26190
 Alpha virt. eigenvalues --    0.26517   0.31009   0.47721   0.51220   0.53043

 Mulliken charges:
               1
     1  C   -0.311484
     2  C   -0.066852
     3  C   -0.221089
     4  C   -0.221089
     5  H    0.096866
     6  H    0.104775
     7  H    0.104775
     8  H    0.094863
     9  H    0.104694
    10  H    0.104924
    11  H    0.104924
    12  H    0.104694
 Sum of Mulliken charges =  -0.00000

 Dipole moment (field-independent basis, Debye):
    X=             -0.0835    Y=             -0.0000    Z=              0.0676  Tot=              0.1075
 Quadrupole moment (field-independent basis, Debye-Ang):
   XX=            -26.6390   YY=            -26.7337   ZZ=            -25.4094
   XY=              0.0000   XZ=              0.6839   YZ=             -0.0000

  Exact polarizability:  44.569  -0.000  40.097   0.156   0.000  38.264
 Approx polarizability:  55.577  -0.000  55.145  -0.633   0.000  53.672

                      1                      2                      3
                      A                      A                      A
 Frequencies --    227.3299               340.4871               365.5015
 Red. masses --      1.0657                 1.9911                 2.1257
 Frc consts  --      0.0324                 0.1360                 0.1673
 IR Inten    --      0.0000                 0.6350                 0.1920

                      4                      5                      6
                      A                      A                      A
 Frequencies --    772.0900               798.9174               821.8200
 Red. masses --      1.5110                 1.4730                 1.0914
 Frc consts  --      0.5307                 0.5539                 0.4343
 IR Inten    --      2.3370                 4.1179                 4.6839

                      7                      8                      9
                      A                      A                      A
 Frequencies --    874.4022               946.3087              1003.1891
 Red. masses --      3.1150                 1.2602                 1.8059
 Frc consts  --      1.4032                 0.6649                 1.0708
 IR Inten    --      6.6472                 3.7838                 6.1533

                     10                     11                     12
                      A                      A                      A
 Frequencies --   1064.2254              1076.6085              1113.4654
 Red. masses --      1.5106                 1.3991                 1.3140
 Frc consts  --      1.0080                 0.9555                 0.9598
 IR Inten    --      6.2810                 1.2094                 4.3714

                     13                     14                     15
                      A                      A                      A
 Frequencies --   1149.5521              1203.0910              1215.5692
 Red. masses --      1.3015                 1.3968                 1.6829
 Frc consts  --      1.0133                 1.1912                 1.4651
 IR Inten    --      0.2732                 0.3886                 0.0470

                     16                     17                     18
                      A                      A                      A
 Frequencies --   1239.4205              1403.1380              1438.9296
 Red. masses --      1.8571                 1.3634                 1.4389
 Frc consts  --      1.6809                 1.5815                 1.7554
 IR Inten    --      0.1230                 3.8621                 2.0705

                     19                     20                     21
                      A                      A                      A
 Frequencies --   1482.6138              1505.8708              1515.0620
 Red. masses --      1.0866                 1.0461                 1.0534
 Frc consts  --      1.4073                 1.3976                 1.4246
 IR Inten    --      1.1505                 1.4285                 6.0658

                     22                     23                     24
                      A                      A                      A
 Frequencies --   1528.2267              3031.4182              3096.5111
 Red. masses --      1.3844                 1.0353                 1.1024
 Frc consts  --      1.9050                 5.6054                 6.2277
 IR Inten    --      0.8630                35.2861                33.1891

                     25                     26                     27
                      A                      A                      A
 Frequencies --   3100.0771              3132.3899              3136.8436
 Red. masses --      1.1006                 1.0507                 1.0597
 Frc consts  --      6.2320                 6.0739                 6.1437
 IR Inten    --     20.5379                26.5066                18.4990

                     28                     29                     30
                      A                      A                      A
 Frequencies --   3143.3505              3209.7447              3223.6700
 Red. masses --      1.0895                 1.1190                 1.1157
 Frc consts  --      6.3424                 6.7926                 6.8314
 IR Inten    --     19.5751                 0.2941                30.2633

 - Thermochemistry -
 -------------------
 Temperature   298.150 Kelvin.  Pressure   1.00000 Atm.
 Atom     1 has atomic number  6 and mass  12.00000

 Molecular mass:    56.06260 amu.
 Principal axes and moments of inertia in atomic units:
                           1         2         3
     Eigenvalues --   115.74003 286.47557 326.13818
           X            0.99989  -0.00000   0.01490
           Y            0.00000   1.00000  -0.00000
           Z           -0.01490   0.00000   0.99989
 This molecule is an asymmetric top.
 Rotational symmetry number  1.
 Rotational temperatures (Kelvin)      0.74835     0.30234     0.26557
 Rotational constants (GHZ):          15.59306     6.29981     5.53367
 Zero-point vibrational energy     288059.7 (Joules/Mol)
                                   68.84792 (Kcal/Mol)
 Warning -- explicit consideration of   3 degrees of freedom as
           vibrations may cause significant error
 Vibrational temperatures:    327.08   489.88   525.87  1110.86  1149.46
          (Kelvin)           1182.41  1258.07  1361.53  1443.36  1531.18
                             1549.00  1602.03  1653.95  1730.98  1748.93
                             1783.25  2018.80  2070.30  2133.15  2166.61
                             2179.83  2198.77  4361.53  4455.18  4460.31
                             4506.80  4513.21  4522.57  4618.10  4638.14

 Zero-point correction=                           0.109716 (Hartree/Particle)
 Thermal correction to Energy=                    0.114343
 Thermal correction to Enthalpy=                  0.115287
 Thermal correction to Gibbs Free Energy=         0.083200
 Sum of electronic and zero-point Energies=           -157.114004
 Sum of electronic and thermal Energies=              -157.109377
 Sum of electronic and thermal Enthalpies=            -157.108433
 Sum of electronic and thermal Free Energies=         -157.140520

                     E (Thermal)             CV                S
                      KCal/Mol        Cal/Mol-Kelvin    Cal/Mol-Kelvin
 Total                   71.751             16.404             67.534
 Electronic               0.000              0.000              0.000
 Translational            0.889              2.981             37.993
 Rotational               0.889              2.981             23.896
 Vibrational             69.974             10.442              5.645
 Vibration     1          0.651              1.799              1.900
 Vibration     2          0.720              1.595              1.210
 Vibration     3          0.739              1.543              1.099

 Optimization completed.
    -- Stationary point found.
 Normal termination of Gaussian 09 at Sat Aug 21 01:35:20 2021.
