 Gaussian 09, Revision D.01,
 Gaussian 09:  ES64L-G09RevD.01 24-Apr-2013

 -------------------------
 #P OPT Freq B3LYP/6-31G**
 -------------------------

 -------
 Frag_79
 -------
 Symbolic Z-matrix:
 Charge =  0 Multiplicity = 1

 SCF Done:  E(RB3LYP) =  -287.842509369     A.U. after   14 cycles
 Optimization completed.
    -- Stationary point found.
 Normal termination of Gaussian 09 at Fri Jul 23 06:10:49 2021.

 ----------------------------------------------------------------------
 #P Geom=AllCheck Guess=TCheck SCRF=Check GenChk RB3LYP/6-31G(d,p) Freq
 ----------------------------------------------------------------------

 Structure from the checkpoint file:  "/vol2/users/liuj201281/HOFBenchmark/IsodesmicSplit/Sample60/Ring26/Running/Gau-210599.chk"
 -------
 Frag_79
 -------
 Charge =  0 Multiplicity = 1

                         Standard orientation:
 ---------------------------------------------------------------------
 Center     Atomic      Atomic             Coordinates (Angstroms)
 Number     Number       Type             X           Y           Z
 ---------------------------------------------------------------------
      1          6           0       -1.778400    0.813072   -0.000129
      2          6           0       -0.728786   -0.292514   -0.000129
      3          8           0       -1.067170   -1.472018    0.000571
      4          7           0        0.596309    0.083804   -0.001329
      5          6           0        1.622923   -0.947183   -0.000029
      6          6           0        1.083791    1.450510    0.000571
      7          1           0       -2.752694    0.326060   -0.000229
      8          1           0       -1.702009    1.452873   -0.885429
      9          1           0       -1.702009    1.452773    0.885071
     10          1           0        2.258022   -0.860074    0.891071
     11          1           0        2.263322   -0.856274   -0.886929
     12          1           0        1.131436   -1.918289   -0.003329
     13          1           0        0.263082    2.164799   -0.002729
     14          1           0        1.706689    1.641918   -0.883829
     15          1           0        1.700189    1.642418    0.889371
 ---------------------------------------------------------------------

 SCF Done:  E(RB3LYP) =  -287.842509369     A.U. after    1 cycles

 The electronic state is 1-A.
 Alpha  occ. eigenvalues --  -19.10015 -14.36093 -10.27998 -10.22650 -10.20896
 Alpha  occ. eigenvalues --  -10.18795  -1.02162  -0.92702  -0.74709  -0.71936
 Alpha  occ. eigenvalues --   -0.67450  -0.54172  -0.48927  -0.47632  -0.46890
 Alpha  occ. eigenvalues --   -0.42569  -0.40437  -0.40314  -0.39918  -0.38737
 Alpha  occ. eigenvalues --   -0.37224  -0.34685  -0.23971  -0.23361
 Alpha virt. eigenvalues --    0.03392   0.08325   0.11328   0.14279   0.14837
 Alpha virt. eigenvalues --    0.15496   0.15859   0.16755   0.18116   0.18409
 Alpha virt. eigenvalues --    0.19406   0.21874   0.25992   0.32725   0.37750

 Mulliken charges:
               1
     1  C   -0.405505
     2  C    0.564663
     3  O   -0.511245
     4  N   -0.424156
     5  C   -0.179318
     6  C   -0.172146
     7  H    0.144440
     8  H    0.125797
     9  H    0.125815
    10  H    0.107787
    11  H    0.107703
    12  H    0.161137
    13  H    0.122438
    14  H    0.116307
    15  H    0.116284
 Sum of Mulliken charges =   0.00000

 Dipole moment (field-independent basis, Debye):
    X=              1.8033    Y=              3.1858    Z=              0.0005  Tot=              3.6608
 Quadrupole moment (field-independent basis, Debye-Ang):
   XX=            -35.6935   YY=            -39.3281   ZZ=            -37.0527
   XY=             -3.8732   XZ=              0.0016   YZ=              0.0026

  Exact polarizability:  63.525   2.261  56.416   0.003  -0.002  39.450
 Approx polarizability:  82.961  10.997  83.342  -0.007  -0.012  55.878

                      1                      2                      3
                      A                      A                      A
 Frequencies --     55.1466               106.3234               153.3284
 Red. masses --      1.3427                 1.8195                 1.3311
 Frc consts  --      0.0024                 0.0121                 0.0184
 IR Inten    --      0.0184                 1.1307                 0.7651

                      4                      5                      6
                      A                      A                      A
 Frequencies --    179.5316               238.3712               321.5337
 Red. masses --      1.1188                 1.7225                 3.0042
 Frc consts  --      0.0212                 0.0577                 0.1830
 IR Inten    --      1.4869                 4.1715                 4.7348

                      7                      8                      9
                      A                      A                      A
 Frequencies --    401.1688               465.5162               585.1315
 Red. masses --      2.4995                 2.9897                 2.7881
 Frc consts  --      0.2370                 0.3817                 0.5624
 IR Inten    --      2.5452                 9.0683                 4.4753

                     10                     11                     12
                      A                      A                      A
 Frequencies --    591.3959               734.1820               970.3687
 Red. masses --      4.9014                 3.6687                 2.4120
 Frc consts  --      1.0100                 1.1651                 1.3381
 IR Inten    --      9.2782                 0.8863                 0.6565

                     13                     14                     15
                      A                      A                      A
 Frequencies --   1025.9517              1047.9231              1083.5924
 Red. masses --      1.6413                 1.7341                 1.3573
 Frc consts  --      1.0179                 1.1220                 0.9390
 IR Inten    --     61.6644                 4.2735                 3.2798

                     16                     17                     18
                      A                      A                      A
 Frequencies --   1131.0230              1179.3120              1202.9942
 Red. masses --      1.2222                 1.3647                 2.2021
 Frc consts  --      0.9212                 1.1182                 1.8776
 IR Inten    --      0.0453                 1.5464                87.2059

                     19                     20                     21
                      A                      A                      A
 Frequencies --   1290.8685              1392.3044              1433.1249
 Red. masses --      5.7594                 1.3013                 1.4930
 Frc consts  --      5.6544                 1.4862                 1.8067
 IR Inten    --     42.4867                 6.7350                73.6454

                     22                     23                     24
                      A                      A                      A
 Frequencies --   1444.5541              1474.5989              1489.4900
 Red. masses --      1.6955                 1.1127                 1.0425
 Frc consts  --      2.0845                 1.4255                 1.3628
 IR Inten    --    106.8789                 6.3457                 8.7431

                     25                     26                     27
                      A                      A                      A
 Frequencies --   1496.0666              1509.5437              1517.6205
 Red. masses --      1.1296                 1.0430                 1.0707
 Frc consts  --      1.4896                 1.4004                 1.4530
 IR Inten    --     17.3290                 5.8120                 8.4680

                     28                     29                     30
                      A                      A                      A
 Frequencies --   1518.0998              1554.8648              1764.6566
 Red. masses --      1.0459                 1.2557                 9.3119
 Frc consts  --      1.4202                 1.7886                17.0847
 IR Inten    --      8.7291                35.4358               303.5334

                     31                     32                     33
                      A                      A                      A
 Frequencies --   3012.3513              3022.5106              3052.6783
 Red. masses --      1.0406                 1.0400                 1.0392
 Frc consts  --      5.5637                 5.5980                 5.7060
 IR Inten    --     37.8715                84.6341                 7.5998

                     34                     35                     36
                      A                      A                      A
 Frequencies --   3055.2062              3068.2326              3116.7335
 Red. masses --      1.1039                 1.1045                 1.1013
 Frc consts  --      6.0710                 6.1262                 6.3031
 IR Inten    --     48.2188                32.1996                12.7207

                     37                     38                     39
                      A                      A                      A
 Frequencies --   3174.7751              3179.7392              3184.2662
 Red. masses --      1.0989                 1.0948                 1.0957
 Frc consts  --      6.5258                 6.5217                 6.5459
 IR Inten    --     10.3452                 8.3208                 2.5105

 - Thermochemistry -
 -------------------
 Temperature   298.150 Kelvin.  Pressure   1.00000 Atm.
 Atom     1 has atomic number  6 and mass  12.00000

 Molecular mass:    87.06841 amu.
 Principal axes and moments of inertia in atomic units:
                           1         2         3
     Eigenvalues --   368.71610 533.92937 868.66958
           X            0.99281  -0.11967   0.00004
           Y            0.11967   0.99281   0.00003
           Z           -0.00004  -0.00003   1.00000
 This molecule is an asymmetric top.
 Rotational symmetry number  1.
 Rotational temperatures (Kelvin)      0.23491     0.16222     0.09971
 Rotational constants (GHZ):           4.89466     3.38011     2.07759
 Zero-point vibrational energy     342282.0 (Joules/Mol)
                                   81.80736 (Kcal/Mol)
 Warning -- explicit consideration of  10 degrees of freedom as
           vibrations may cause significant error
 Vibrational temperatures:     79.34   152.98   220.61   258.31   342.96
          (Kelvin)            462.61   577.19   669.77   841.87   850.89
                             1056.32  1396.14  1476.11  1507.73  1559.05
                             1627.29  1696.76  1730.84  1857.27  2003.21
                             2061.94  2078.39  2121.62  2143.04  2152.50
                             2171.89  2183.51  2184.20  2237.10  2538.94
                             4334.10  4348.71  4392.12  4395.75  4414.50
                             4484.28  4567.79  4574.93  4581.44

 Zero-point correction=                           0.130368 (Hartree/Particle)
 Thermal correction to Energy=                    0.138123
 Thermal correction to Enthalpy=                  0.139067
 Thermal correction to Gibbs Free Energy=         0.098426
 Sum of electronic and zero-point Energies=           -287.712141
 Sum of electronic and thermal Energies=              -287.704386
 Sum of electronic and thermal Enthalpies=            -287.703442
 Sum of electronic and thermal Free Energies=         -287.744083

                     E (Thermal)             CV                S
                      KCal/Mol        Cal/Mol-Kelvin    Cal/Mol-Kelvin
 Total                   86.674             25.781             85.537
 Electronic               0.000              0.000              0.000
 Translational            0.889              2.981             39.305
 Rotational               0.889              2.981             26.639
 Vibrational             84.896             19.819             19.592
 Vibration     1          0.596              1.976              4.624
 Vibration     2          0.605              1.944              3.335
 Vibration     3          0.619              1.899              2.631
 Vibration     4          0.629              1.867              2.333
 Vibration     5          0.656              1.782              1.815
 Vibration     6          0.707              1.632              1.302
 Vibration     7          0.767              1.468              0.958
 Vibration     8          0.823              1.327              0.750
 Vibration     9          0.942              1.064              0.476
 Vibration    10          0.949              1.050              0.465

 Normal termination of Gaussian 09 at Fri Jul 23 06:11:38 2021.
