 Gaussian 09, Revision E.01,
 Gaussian 09:  ES64L-G09RevE.01 30-Nov-2015

 ----------------------------
 #P OPT Freq B3LYP/6-31G(d,p)
 ----------------------------

 --------
 Frag_472
 --------
 Symbolic Z-matrix:
 Charge =  0 Multiplicity = 1

 SCF Done:  E(RB3LYP) =  -289.027697041     A.U. after   12 cycles
 SCF Done:  E(RB3LYP) =  -289.027729382     A.U. after    8 cycles
 SCF Done:  E(RB3LYP) =  -289.027733435     A.U. after    8 cycles
 SCF Done:  E(RB3LYP) =  -289.027735297     A.U. after    8 cycles
 SCF Done:  E(RB3LYP) =  -289.027737262     A.U. after    8 cycles
 SCF Done:  E(RB3LYP) =  -289.027738148     A.U. after    8 cycles
 SCF Done:  E(RB3LYP) =  -289.027738872     A.U. after    7 cycles
 Optimization completed.
    -- Stationary point found.
 Normal termination of Gaussian 09 at Thu Sep  8 15:08:26 2022.

 ----------------------------------------------------------------------
 #P Geom=AllCheck Guess=TCheck SCRF=Check GenChk RB3LYP/6-31G(d,p) Freq
 ----------------------------------------------------------------------

 Structure from the checkpoint file:  "B3LYP6-31Gdp.Frag_472.chk"
 --------
 Frag_472
 --------
 Charge =  0 Multiplicity = 1

                         Standard orientation:
 ---------------------------------------------------------------------
 Center     Atomic      Atomic             Coordinates (Angstroms)
 Number     Number       Type             X           Y           Z
 ---------------------------------------------------------------------
      1          6           0       -2.085646   -0.000174    0.035080
      2          7           0       -0.863716   -0.101989   -0.750947
      3          6           0        0.410923    0.007451   -0.045760
      4          6           0        0.615991   -1.059025    1.050278
      5          6           0        0.583096    1.425451    0.515352
      6          8           0        1.361829   -0.217210   -1.093342
      7          1           0       -2.183340    1.005780    0.454975
      8          1           0       -2.939279   -0.152487   -0.631723
      9          1           0       -2.180100   -0.719882    0.867162
     10          1           0       -0.845680   -0.975440   -1.271128
     11          1           0       -0.127708   -0.970175    1.847748
     12          1           0        0.541367   -2.059803    0.613145
     13          1           0        1.603629   -0.961058    1.517198
     14          1           0        0.439778    2.148949   -0.289942
     15          1           0       -0.126255    1.641093    1.320201
     16          1           0        1.591084    1.546543    0.926309
     17          1           0        2.231696   -0.294139   -0.680281
 ---------------------------------------------------------------------

 SCF Done:  E(RB3LYP) =  -289.027738872     A.U. after    1 cycles

 The electronic state is 1-A.
 Alpha  occ. eigenvalues --  -19.13702 -14.30937 -10.26255 -10.20028 -10.17557
 Alpha  occ. eigenvalues --  -10.17001  -1.01985  -0.88619  -0.74951  -0.69036
 Alpha  occ. eigenvalues --   -0.67134  -0.56656  -0.50237  -0.47328  -0.45122
 Alpha  occ. eigenvalues --   -0.42197  -0.40877  -0.39698  -0.39194  -0.37667
 Alpha  occ. eigenvalues --   -0.35921  -0.35059  -0.32780  -0.26654  -0.21420
 Alpha virt. eigenvalues --    0.06632   0.10635   0.12045   0.13707   0.14479
 Alpha virt. eigenvalues --    0.14599   0.17122   0.18556   0.18826   0.19612
 Alpha virt. eigenvalues --    0.21722   0.22431   0.23491   0.24285   0.26512

 Mulliken charges:
               1
     1  C   -0.175667
     2  N   -0.481847
     3  C    0.390757
     4  C   -0.325868
     5  C   -0.308166
     6  O   -0.553096
     7  H    0.113458
     8  H    0.109820
     9  H    0.080590
    10  H    0.240564
    11  H    0.104776
    12  H    0.105639
    13  H    0.088177
    14  H    0.128283
    15  H    0.097157
    16  H    0.086583
    17  H    0.298841
 Sum of Mulliken charges =  -0.00000

 Dipole moment (field-independent basis, Debye):
    X=              0.2932    Y=             -0.7265    Z=              1.8913  Tot=              2.0471
 Quadrupole moment (field-independent basis, Debye-Ang):
   XX=            -33.9058   YY=            -38.2764   ZZ=            -42.2671
   XY=              0.4751   XZ=              1.3035   YZ=              1.5451

  Exact polarizability:  61.802   0.016  51.667   1.031   1.109  50.736
 Approx polarizability:  79.926  -0.553  67.987  -0.146   2.640  73.617

                      1                      2                      3
                      A                      A                      A
 Frequencies --     70.8939               207.7518               259.6400
 Red. masses --      1.8214                 1.0384                 1.3180
 Frc consts  --      0.0054                 0.0264                 0.0523
 IR Inten    --      1.6296                 0.0327                15.0478

                      4                      5                      6
                      A                      A                      A
 Frequencies --    259.7639               272.9448               278.0334
 Red. masses --      1.0956                 1.2879                 1.5385
 Frc consts  --      0.0436                 0.0565                 0.0701
 IR Inten    --     63.0636                 2.1182                31.4839

                      7                      8                      9
                      A                      A                      A
 Frequencies --    355.4569               366.1619               457.7298
 Red. masses --      2.6268                 2.4609                 2.6911
 Frc consts  --      0.1955                 0.1944                 0.3322
 IR Inten    --      0.9096                 2.7593                 9.8284

                     10                     11                     12
                      A                      A                      A
 Frequencies --    490.7291               515.1984               727.5248
 Red. masses --      2.7407                 3.2856                 2.8676
 Frc consts  --      0.3889                 0.5138                 0.8943
 IR Inten    --     15.0840                 5.2842                42.1022

                     13                     14                     15
                      A                      A                      A
 Frequencies --    781.2719               903.5456               918.5180
 Red. masses --      1.4999                 1.6956                 1.9248
 Frc consts  --      0.5394                 0.8156                 0.9568
 IR Inten    --     59.8385                 9.7182                31.9945

                     16                     17                     18
                      A                      A                      A
 Frequencies --    970.7973              1008.1495              1104.1562
 Red. masses --      1.7971                 1.3055                 1.8977
 Frc consts  --      0.9979                 0.7817                 1.3632
 IR Inten    --      5.5572                 2.2788                 6.1613

                     19                     20                     21
                      A                      A                      A
 Frequencies --   1115.5554              1159.5157              1180.0107
 Red. masses --      1.5048                 1.4272                 2.2688
 Frc consts  --      1.1034                 1.1305                 1.8613
 IR Inten    --     50.0627                 1.3061                85.2444

                     22                     23                     24
                      A                      A                      A
 Frequencies --   1223.5894              1264.0895              1370.9566
 Red. masses --      2.9356                 2.2673                 1.7586
 Frc consts  --      2.5896                 2.1346                 1.9474
 IR Inten    --    110.7550                13.8353                52.3809

                     25                     26                     27
                      A                      A                      A
 Frequencies --   1405.9546              1422.6703              1471.1911
 Red. masses --      1.2789                 1.2788                 1.1582
 Frc consts  --      1.4894                 1.5249                 1.4770
 IR Inten    --     14.7154                17.9130                 2.6810

                     28                     29                     30
                      A                      A                      A
 Frequencies --   1477.3952              1490.6398              1500.5077
 Red. masses --      1.1987                 1.0490                 1.0785
 Frc consts  --      1.5416                 1.3733                 1.4307
 IR Inten    --     16.9254                 0.1362                 0.6009

                     31                     32                     33
                      A                      A                      A
 Frequencies --   1512.4416              1520.6609              1525.7900
 Red. masses --      1.0475                 1.1036                 1.0863
 Frc consts  --      1.4118                 1.5036                 1.4901
 IR Inten    --      2.4961                 2.8486                 5.5037

                     34                     35                     36
                      A                      A                      A
 Frequencies --   1535.8041              2958.3317              3035.6706
 Red. masses --      1.0594                 1.0603                 1.0380
 Frc consts  --      1.4723                 5.4671                 5.6356
 IR Inten    --     16.1729                81.8402                17.3835

                     37                     38                     39
                      A                      A                      A
 Frequencies --   3050.7172              3077.9123              3103.2182
 Red. masses --      1.0373                 1.0731                 1.0988
 Frc consts  --      5.6881                 5.9896                 6.2343
 IR Inten    --     15.6474                38.4762                16.8542

                     40                     41                     42
                      A                      A                      A
 Frequencies --   3114.8357              3120.5597              3127.6145
 Red. masses --      1.1014                 1.1018                 1.1025
 Frc consts  --      6.2962                 6.3217                 6.3539
 IR Inten    --     59.5804                10.3517                32.9857

                     43                     44                     45
                      A                      A                      A
 Frequencies --   3149.8376              3527.6631              3821.8686
 Red. masses --      1.1028                 1.0740                 1.0659
 Frc consts  --      6.4465                 7.8746                 9.1735
 IR Inten    --     16.9436                 0.1660                10.4859

 - Thermochemistry -
 -------------------
 Temperature   298.150 Kelvin.  Pressure   1.00000 Atm.
 Atom     1 has atomic number  6 and mass  12.00000

 Molecular mass:    89.08406 amu.
 Principal axes and moments of inertia in atomic units:
                           1         2         3
     Eigenvalues --   402.72082 671.99161 678.46044
           X            0.99959   0.01065   0.02661
           Y           -0.00860   0.99707  -0.07596
           Z           -0.02734   0.07570   0.99676
 This molecule is an asymmetric top.
 Rotational symmetry number  1.
 Rotational temperatures (Kelvin)      0.21507     0.12889     0.12766
 Rotational constants (GHZ):           4.48137     2.68566     2.66005
 Zero-point vibrational energy     402024.6 (Joules/Mol)
                                   96.08619 (Kcal/Mol)
 Warning -- explicit consideration of  11 degrees of freedom as
           vibrations may cause significant error
 Vibrational temperatures:    102.00   298.91   373.56   373.74   392.71
          (Kelvin)            400.03   511.42   526.82   658.57   706.05
                              741.25  1046.74  1124.07  1300.00  1321.54
                             1396.76  1450.50  1588.63  1605.03  1668.28
                             1697.77  1760.47  1818.74  1972.50  2022.85
                             2046.90  2116.71  2125.64  2144.70  2158.89
                             2176.06  2187.89  2195.27  2209.68  4256.37
                             4367.65  4389.30  4428.42  4464.83  4481.55
                             4489.78  4499.93  4531.91  5075.51  5498.81

 Zero-point correction=                           0.153123 (Hartree/Particle)
 Thermal correction to Energy=                    0.161088
 Thermal correction to Enthalpy=                  0.162032
 Thermal correction to Gibbs Free Energy=         0.121917
 Sum of electronic and zero-point Energies=           -288.874616
 Sum of electronic and thermal Energies=              -288.866651
 Sum of electronic and thermal Enthalpies=            -288.865707
 Sum of electronic and thermal Free Energies=         -288.905822

                     E (Thermal)             CV                S
                      KCal/Mol        Cal/Mol-Kelvin    Cal/Mol-Kelvin
 Total                  101.084             29.097             84.430
 Electronic               0.000              0.000              0.000
 Translational            0.889              2.981             39.374
 Rotational               0.889              2.981             26.710
 Vibrational             99.307             23.135             18.347
 Vibration     1          0.598              1.968              4.128
 Vibration     2          0.641              1.829              2.063
 Vibration     3          0.668              1.746              1.664
 Vibration     4          0.668              1.746              1.663
 Vibration     5          0.676              1.723              1.577
 Vibration     6          0.679              1.714              1.546
 Vibration     7          0.731              1.564              1.142
 Vibration     8          0.739              1.542              1.096
 Vibration     9          0.816              1.344              0.773
 Vibration    10          0.847              1.271              0.682
 Vibration    11          0.870              1.216              0.621

 Optimization completed.
    -- Stationary point found.
 Normal termination of Gaussian 09 at Thu Sep  8 15:08:41 2022.
