 Gaussian 09, Revision E.01,
 Gaussian 09:  ES64L-G09RevE.01 30-Nov-2015

 ----------------------------
 #P OPT Freq B3LYP/6-31G(d,p)
 ----------------------------

 ---------
 Frag_1135
 ---------
 Symbolic Z-matrix:
 Charge =  0 Multiplicity = 1

 SCF Done:  E(RB3LYP) =  -316.347648680     A.U. after   15 cycles
 SCF Done:  E(RB3LYP) =  -316.347762579     A.U. after   12 cycles
 SCF Done:  E(RB3LYP) =  -316.347774000     A.U. after   11 cycles
 SCF Done:  E(RB3LYP) =  -316.347763918     A.U. after   10 cycles
 SCF Done:  E(RB3LYP) =  -316.347786118     A.U. after   10 cycles
 SCF Done:  E(RB3LYP) =  -316.347785814     A.U. after    8 cycles
 SCF Done:  E(RB3LYP) =  -316.347786307     A.U. after    8 cycles
 Optimization completed.
    -- Stationary point found.
 Normal termination of Gaussian 09 at Thu Sep  8 14:51:53 2022.

 ----------------------------------------------------------------------
 #P Geom=AllCheck Guess=TCheck SCRF=Check GenChk RB3LYP/6-31G(d,p) Freq
 ----------------------------------------------------------------------

 Structure from the checkpoint file:  "B3LYP6-31Gdp.Frag_1135.chk"
 ---------
 Frag_1135
 ---------
 Charge =  0 Multiplicity = 1

                         Standard orientation:
 ---------------------------------------------------------------------
 Center     Atomic      Atomic             Coordinates (Angstroms)
 Number     Number       Type             X           Y           Z
 ---------------------------------------------------------------------
      1          7           0        1.683871    0.004802    0.000003
      2          7           0        0.521070   -0.852069    0.000000
      3          7           0       -0.540111   -0.109721   -0.000019
      4          8           0       -0.415678    1.276127    0.000002
      5          8           0       -1.672101   -0.542831    0.000010
      6          1           0        2.233702   -0.261674    0.816761
      7          1           0        2.233706   -0.261676   -0.816752
      8          1           0        0.581027    1.355900    0.000007
 ---------------------------------------------------------------------

 SCF Done:  E(RB3LYP) =  -316.347786307     A.U. after    1 cycles

 The electronic state is 1-A.
 Alpha  occ. eigenvalues --  -19.21911 -19.17968 -14.58655 -14.40250 -14.40139
 Alpha  occ. eigenvalues --   -1.23059  -1.06803  -1.01135  -0.87094  -0.65697
 Alpha  occ. eigenvalues --   -0.58288  -0.56071  -0.51692  -0.51118  -0.47984
 Alpha  occ. eigenvalues --   -0.37834  -0.34249  -0.31143  -0.28963  -0.27363
 Alpha virt. eigenvalues --   -0.04251   0.04307   0.08157   0.11789   0.12982
 Alpha virt. eigenvalues --    0.17284   0.30578   0.34387   0.57973   0.60021
 Alpha virt. eigenvalues --    0.61305   0.65173   0.67993   0.71950   0.72374

 Mulliken charges:
               1
     1  N   -0.525663
     2  N   -0.181578
     3  N    0.550156
     4  O   -0.401638
     5  O   -0.387889
     6  H    0.292429
     7  H    0.292428
     8  H    0.361755
 Sum of Mulliken charges =   0.00000

 Dipole moment (field-independent basis, Debye):
    X=              4.6251    Y=              0.8936    Z=             -0.0000  Tot=              4.7107
 Quadrupole moment (field-independent basis, Debye-Ang):
   XX=            -25.0146   YY=            -31.3034   ZZ=            -26.3026
   XY=             -0.5418   XZ=              0.0001   YZ=              0.0000

  Exact polarizability:  47.821  -0.359  29.252  -0.000  -0.000  17.289
 Approx polarizability:  88.653  -3.053  50.672  -0.000  -0.000  24.399

                      1                      2                      3
                      A                      A                      A
 Frequencies --    223.6643               283.8188               420.6283
 Red. masses --      1.3666                 2.7652                 3.7787
 Frc consts  --      0.0403                 0.1312                 0.3939
 IR Inten    --     16.9224                 0.4608                 5.6479

                      4                      5                      6
                      A                      A                      A
 Frequencies --    597.0870               695.3496               723.4894
 Red. masses --     10.1305                 6.5312                11.8048
 Frc consts  --      2.1279                 1.8606                 3.6406
 IR Inten    --      2.0014                 5.8446                 8.6278

                      7                      8                      9
                      A                      A                      A
 Frequencies --    833.3025               863.6312              1011.5019
 Red. masses --     11.5955                 1.0814                 1.7937
 Frc consts  --      4.7440                 0.4752                 1.0812
 IR Inten    --     57.5125               119.0962                80.4088

                     10                     11                     12
                      A                      A                      A
 Frequencies --   1043.0045              1258.0263              1313.6525
 Red. masses --      6.3134                 1.1387                 3.3851
 Frc consts  --      4.0466                 1.0618                 3.4418
 IR Inten    --     64.0472                 2.1292                 7.5828

                     13                     14                     15
                      A                      A                      A
 Frequencies --   1444.2806              1659.5759              1728.2203
 Red. masses --      1.5800                 1.0961                 4.3494
 Frc consts  --      1.9418                 1.7787                 7.6539
 IR Inten    --    250.5024                 9.0386               450.0254

                     16                     17                     18
                      A                      A                      A
 Frequencies --   3253.5824              3465.7467              3540.1009
 Red. masses --      1.0625                 1.0488                 1.0948
 Frc consts  --      6.6268                 7.4226                 8.0838
 IR Inten    --    202.6405                 6.5939                12.0022

 - Thermochemistry -
 -------------------
 Temperature   298.150 Kelvin.  Pressure   1.00000 Atm.
 Atom     1 has atomic number  7 and mass  14.00307

 Molecular mass:    77.02253 amu.
 Principal axes and moments of inertia in atomic units:
                           1         2         3
     Eigenvalues --   158.63069 380.30287 529.33009
           X            0.99999  -0.00517   0.00000
           Y            0.00517   0.99999   0.00000
           Z           -0.00000  -0.00000   1.00000
 This molecule is an asymmetric top.
 Rotational symmetry number  1.
 Rotational temperatures (Kelvin)      0.54601     0.22775     0.16363
 Rotational constants (GHZ):          11.37700     4.74554     3.40948
 Zero-point vibrational energy     145697.2 (Joules/Mol)
                                   34.82246 (Kcal/Mol)
 Warning -- explicit consideration of   4 degrees of freedom as
           vibrations may cause significant error
 Vibrational temperatures:    321.80   408.35   605.19   859.07  1000.45
          (Kelvin)           1040.94  1198.94  1242.57  1455.32  1500.65
                             1810.02  1890.05  2078.00  2387.76  2486.52
                             4681.17  4986.43  5093.41

 Zero-point correction=                           0.055493 (Hartree/Particle)
 Thermal correction to Energy=                    0.060193
 Thermal correction to Enthalpy=                  0.061137
 Thermal correction to Gibbs Free Energy=         0.027934
 Sum of electronic and zero-point Energies=           -316.292293
 Sum of electronic and thermal Energies=              -316.287594
 Sum of electronic and thermal Enthalpies=            -316.286650
 Sum of electronic and thermal Free Energies=         -316.319852

                     E (Thermal)             CV                S
                      KCal/Mol        Cal/Mol-Kelvin    Cal/Mol-Kelvin
 Total                   37.771             15.881             69.881
 Electronic               0.000              0.000              0.000
 Translational            0.889              2.981             38.940
 Rotational               0.889              2.981             24.972
 Vibrational             35.994              9.919              5.970
 Vibration     1          0.649              1.805              1.929
 Vibration     2          0.682              1.704              1.511
 Vibration     3          0.783              1.425              0.890
 Vibration     4          0.955              1.038              0.455

 Optimization completed.
    -- Stationary point found.
 Normal termination of Gaussian 09 at Thu Sep  8 14:52:00 2022.
