 Gaussian 09, Revision E.01,
 Gaussian 09:  ES64L-G09RevE.01 30-Nov-2015

 ----------------------------
 #P OPT Freq B3LYP/6-31G(d,p)
 ----------------------------

 --------
 Frag_958
 --------
 Symbolic Z-matrix:
 Charge =  0 Multiplicity = 1

 SCF Done:  E(RB3LYP) =  -439.486322781     A.U. after   13 cycles
 SCF Done:  E(RB3LYP) =  -439.486380171     A.U. after   10 cycles
 SCF Done:  E(RB3LYP) =  -439.486358346     A.U. after   10 cycles
 SCF Done:  E(RB3LYP) =  -439.486411614     A.U. after   10 cycles
 SCF Done:  E(RB3LYP) =  -439.486413704     A.U. after    7 cycles
 SCF Done:  E(RB3LYP) =  -439.486415737     A.U. after    8 cycles
 SCF Done:  E(RB3LYP) =  -439.486416825     A.U. after    8 cycles
 SCF Done:  E(RB3LYP) =  -439.486417163     A.U. after    7 cycles
 Optimization completed.
    -- Stationary point found.
 Normal termination of Gaussian 09 at Thu Sep  8 14:58:43 2022.

 ----------------------------------------------------------------------
 #P Geom=AllCheck Guess=TCheck SCRF=Check GenChk RB3LYP/6-31G(d,p) Freq
 ----------------------------------------------------------------------

 Structure from the checkpoint file:  "B3LYP6-31Gdp.Frag_958.chk"
 --------
 Frag_958
 --------
 Charge =  0 Multiplicity = 1

                         Standard orientation:
 ---------------------------------------------------------------------
 Center     Atomic      Atomic             Coordinates (Angstroms)
 Number     Number       Type             X           Y           Z
 ---------------------------------------------------------------------
      1          6           0       -1.315277    1.407672    0.207026
      2          6           0       -0.771010   -0.002289   -0.037861
      3          6           0       -1.347900   -1.002830    0.973322
      4          8           0       -1.085040   -0.428613   -1.375217
      5          6           0        0.792636    0.001555    0.011007
      6          7           0        1.298243   -1.280727   -0.405059
      7          8           0        1.220943    0.278701    1.337707
      8          8           0        1.321063    1.036644   -0.799608
      9          1           0       -0.990175    1.787312    1.179992
     10          1           0       -0.967389    2.081588   -0.577675
     11          1           0       -2.411228    1.396879    0.200257
     12          1           0       -0.954971   -2.006160    0.793402
     13          1           0       -2.440498   -1.035564    0.884727
     14          1           0       -1.105664   -0.708478    1.997454
     15          1           0       -2.046797   -0.485668   -1.444934
     16          1           0        0.730160   -1.613679   -1.180677
     17          1           0        2.243415   -1.141469   -0.754876
     18          1           0        1.479489   -0.576223    1.707571
     19          1           0        1.569545    1.748047   -0.193840
 ---------------------------------------------------------------------

 SCF Done:  E(RB3LYP) =  -439.486417163     A.U. after    1 cycles

 The electronic state is 1-A.
 Alpha  occ. eigenvalues --  -19.14942 -19.14422 -19.13974 -14.31431 -10.30655
 Alpha  occ. eigenvalues --  -10.23971 -10.17325 -10.17027  -1.06813  -1.01693
 Alpha  occ. eigenvalues --   -0.98620  -0.87233  -0.77201  -0.68722  -0.65062
 Alpha  occ. eigenvalues --   -0.57528  -0.53265  -0.50285  -0.49589  -0.47468
 Alpha  occ. eigenvalues --   -0.44624  -0.41854  -0.41061  -0.38770  -0.37432
 Alpha  occ. eigenvalues --   -0.36723  -0.35836  -0.35079  -0.33816  -0.29311
 Alpha  occ. eigenvalues --   -0.27594  -0.26839  -0.25100
 Alpha virt. eigenvalues --    0.06330   0.09478   0.11288   0.11994   0.13182
 Alpha virt. eigenvalues --    0.15011   0.16089   0.16737   0.18096   0.18832
 Alpha virt. eigenvalues --    0.20066   0.22609   0.23031   0.24735   0.27558

 Mulliken charges:
               1
     1  C   -0.336749
     2  C    0.263980
     3  C   -0.324406
     4  O   -0.559514
     5  C    0.600078
     6  N   -0.627778
     7  O   -0.567030
     8  O   -0.548295
     9  H    0.116077
    10  H    0.126388
    11  H    0.085425
    12  H    0.120099
    13  H    0.085038
    14  H    0.111630
    15  H    0.303005
    16  H    0.271710
    17  H    0.248746
    18  H    0.318345
    19  H    0.313252
 Sum of Mulliken charges =  -0.00000

 Dipole moment (field-independent basis, Debye):
    X=             -0.9508    Y=             -0.4195    Z=              0.8050  Tot=              1.3145
 Quadrupole moment (field-independent basis, Debye-Ang):
   XX=            -42.2161   YY=            -47.7175   ZZ=            -50.7045
   XY=             -0.1181   XZ=              1.6825   YZ=              0.9954

  Exact polarizability:  63.300  -0.724  59.945   0.101   1.077  56.809
 Approx polarizability:  82.504   0.624  81.641   2.027   3.212  83.641

                      1                      2                      3
                      A                      A                      A
 Frequencies --    100.9954               141.3806               207.5492
 Red. masses --      3.9448                 1.2161                 1.2301
 Frc consts  --      0.0237                 0.0143                 0.0312
 IR Inten    --      2.5901                64.0909                17.6456

                      4                      5                      6
                      A                      A                      A
 Frequencies --    229.9679               239.8423               246.9696
 Red. masses --      1.1661                 1.2156                 1.3368
 Frc consts  --      0.0363                 0.0412                 0.0480
 IR Inten    --     20.3375                85.6161                10.0737

                      7                      8                      9
                      A                      A                      A
 Frequencies --    263.2680               285.4425               350.5035
 Red. masses --      2.2367                 1.7161                 3.4511
 Frc consts  --      0.0913                 0.0824                 0.2498
 IR Inten    --     13.2496                 5.0824                17.8981

                     10                     11                     12
                      A                      A                      A
 Frequencies --    356.0260               362.7127               419.8794
 Red. masses --      2.2573                 3.1934                 1.4663
 Frc consts  --      0.1686                 0.2475                 0.1523
 IR Inten    --      3.7148                 7.4588                86.7692

                     13                     14                     15
                      A                      A                      A
 Frequencies --    442.9812               470.6404               549.0754
 Red. masses --      2.7417                 2.4366                 3.1889
 Frc consts  --      0.3170                 0.3180                 0.5665
 IR Inten    --      1.6478                36.9446                16.7696

                     16                     17                     18
                      A                      A                      A
 Frequencies --    561.2533               572.6319               722.6889
 Red. masses --      3.4547                 3.4458                 4.1286
 Frc consts  --      0.6412                 0.6657                 1.2704
 IR Inten    --     13.1658                22.8076                 5.4448

                     19                     20                     21
                      A                      A                      A
 Frequencies --    863.5544               910.9972               935.6370
 Red. masses --      2.9382                 1.6548                 1.4839
 Frc consts  --      1.2910                 0.8091                 0.7653
 IR Inten    --     16.9241               147.8889                 3.6510

                     22                     23                     24
                      A                      A                      A
 Frequencies --    972.9957               990.6142              1007.5391
 Red. masses --      2.1367                 2.3187                 1.5065
 Frc consts  --      1.1918                 1.3406                 0.9010
 IR Inten    --     16.9622                68.7085                42.1046

                     25                     26                     27
                      A                      A                      A
 Frequencies --   1053.0857              1120.1091              1144.0429
 Red. masses --      2.2252                 1.6040                 1.5916
 Frc consts  --      1.4539                 1.1857                 1.2273
 IR Inten    --    185.6599               120.2070                 6.2643

                     28                     29                     30
                      A                      A                      A
 Frequencies --   1217.6201              1230.3643              1282.2055
 Red. masses --      2.7654                 2.7931                 1.5827
 Frc consts  --      2.4157                 2.4912                 1.5331
 IR Inten    --     41.6286                35.9078               117.9764

                     31                     32                     33
                      A                      A                      A
 Frequencies --   1342.0466              1395.4791              1400.3797
 Red. masses --      1.5490                 1.5595                 1.8782
 Frc consts  --      1.6437                 1.7893                 2.1701
 IR Inten    --     76.7074                63.4834                 8.5001

                     34                     35                     36
                      A                      A                      A
 Frequencies --   1412.1055              1430.6611              1493.6268
 Red. masses --      1.5627                 1.3478                 1.0495
 Frc consts  --      1.8359                 1.6253                 1.3795
 IR Inten    --     32.6453                19.2832                 0.4971

                     37                     38                     39
                      A                      A                      A
 Frequencies --   1507.3411              1511.8773              1534.7324
 Red. masses --      1.0499                 1.0503                 1.0890
 Frc consts  --      1.4055                 1.4145                 1.5113
 IR Inten    --      0.2303                 0.5908                16.0531

                     40                     41                     42
                      A                      A                      A
 Frequencies --   1664.7322              3041.8092              3049.3116
 Red. masses --      1.1079                 1.0416                 1.0402
 Frc consts  --      1.8090                 5.6781                 5.6985
 IR Inten    --     69.8998                13.7193                31.7870

                     43                     44                     45
                      A                      A                      A
 Frequencies --   3114.6056              3120.3553              3148.2565
 Red. masses --      1.0958                 1.0959                 1.1033
 Frc consts  --      6.2633                 6.2865                 6.4430
 IR Inten    --      4.5559                39.0474                15.1800

                     46                     47                     48
                      A                      A                      A
 Frequencies --   3155.5899              3503.7563              3588.2553
 Red. masses --      1.1023                 1.0494                 1.0923
 Frc consts  --      6.4672                 7.5905                 8.2861
 IR Inten    --     13.4352                 8.1265                16.6625

                     49                     50                     51
                      A                      A                      A
 Frequencies --   3816.0063              3819.1716              3822.8644
 Red. masses --      1.0664                 1.0659                 1.0653
 Frc consts  --      9.1494                 9.1605                 9.1731
 IR Inten    --      9.4518                36.2353                48.4107

 - Thermochemistry -
 -------------------
 Temperature   298.150 Kelvin.  Pressure   1.00000 Atm.
 Atom     1 has atomic number  6 and mass  12.00000

 Molecular mass:   121.07389 amu.
 Principal axes and moments of inertia in atomic units:
                           1         2         3
     Eigenvalues --   715.07057 997.310671017.26357
           X            0.99845  -0.03830  -0.04037
           Y            0.03471   0.99567  -0.08619
           Z            0.04350   0.08466   0.99546
 This molecule is an asymmetric top.
 Rotational symmetry number  1.
 Warning -- assumption of classical behavior for rotation
           may cause significant error
 Rotational temperatures (Kelvin)      0.12113     0.08685     0.08514
 Rotational constants (GHZ):           2.52386     1.80961     1.77411
 Zero-point vibrational energy     425425.2 (Joules/Mol)
                                  101.67906 (Kcal/Mol)
 Warning -- explicit consideration of  17 degrees of freedom as
           vibrations may cause significant error
 Vibrational temperatures:    145.31   203.41   298.62   330.87   345.08
          (Kelvin)            355.33   378.78   410.69   504.30   512.24
                              521.86   604.11   637.35   677.15   790.00
                              807.52   823.89  1039.79  1242.46  1310.72
                             1346.17  1399.92  1425.27  1449.62  1515.15
                             1611.59  1646.02  1751.88  1770.22  1844.81
                             1930.90  2007.78  2014.83  2031.70  2058.40
                             2148.99  2168.72  2175.25  2208.13  2395.18
                             4376.48  4387.27  4481.22  4489.49  4529.63
                             4540.18  5041.12  5162.69  5490.38  5494.93
                             5500.24

 Zero-point correction=                           0.162036 (Hartree/Particle)
 Thermal correction to Energy=                    0.172196
 Thermal correction to Enthalpy=                  0.173140
 Thermal correction to Gibbs Free Energy=         0.128444
 Sum of electronic and zero-point Energies=           -439.324381
 Sum of electronic and thermal Energies=              -439.314221
 Sum of electronic and thermal Enthalpies=            -439.313277
 Sum of electronic and thermal Free Energies=         -439.357973

                     E (Thermal)             CV                S
                      KCal/Mol        Cal/Mol-Kelvin    Cal/Mol-Kelvin
 Total                  108.055             38.263             94.071
 Electronic               0.000              0.000              0.000
 Translational            0.889              2.981             40.288
 Rotational               0.889              2.981             28.075
 Vibrational            106.277             32.301             25.708
 Vibration     1          0.604              1.948              3.435
 Vibration     2          0.615              1.912              2.785
 Vibration     3          0.641              1.829              2.065
 Vibration     4          0.652              1.795              1.879
 Vibration     5          0.657              1.779              1.804
 Vibration     6          0.661              1.768              1.752
 Vibration     7          0.670              1.740              1.640
 Vibration     8          0.683              1.701              1.501
 Vibration     9          0.727              1.574              1.164
 Vibration    10          0.732              1.563              1.139
 Vibration    11          0.737              1.549              1.110
 Vibration    12          0.783              1.427              0.892
 Vibration    13          0.803              1.376              0.817
 Vibration    14          0.828              1.315              0.736
 Vibration    15          0.904              1.142              0.546
 Vibration    16          0.917              1.115              0.521
 Vibration    17          0.929              1.090              0.499

 Normal termination of Gaussian 09 at Thu Sep  8 14:59:04 2022.
