 Gaussian 09, Revision E.01,
 Gaussian 09:  ES64L-G09RevE.01 30-Nov-2015

 ----------------------------
 #P OPT Freq B3LYP/6-31G(d,p)
 ----------------------------

 --------
 Frag_614
 --------
 Symbolic Z-matrix:
 Charge =  0 Multiplicity = 1

 SCF Done:  E(RB3LYP) =  -328.355641857     A.U. after   13 cycles
 SCF Done:  E(RB3LYP) =  -328.355678347     A.U. after   10 cycles
 SCF Done:  E(RB3LYP) =  -328.355680532     A.U. after    7 cycles
 SCF Done:  E(RB3LYP) =  -328.355681165     A.U. after    7 cycles
 SCF Done:  E(RB3LYP) =  -328.355681605     A.U. after    7 cycles
 Optimization completed.
    -- Stationary point found.
 Normal termination of Gaussian 09 at Thu Sep  8 15:18:01 2022.

 ----------------------------------------------------------------------
 #P Geom=AllCheck Guess=TCheck SCRF=Check GenChk RB3LYP/6-31G(d,p) Freq
 ----------------------------------------------------------------------

 Structure from the checkpoint file:  "B3LYP6-31Gdp.Frag_614.chk"
 --------
 Frag_614
 --------
 Charge =  0 Multiplicity = 1

                         Standard orientation:
 ---------------------------------------------------------------------
 Center     Atomic      Atomic             Coordinates (Angstroms)
 Number     Number       Type             X           Y           Z
 ---------------------------------------------------------------------
      1          6           0       -1.307989   -1.224722   -0.686774
      2          6           0       -0.621344   -0.032690    0.004259
      3          6           0       -1.331268    1.269982   -0.415000
      4          6           0       -0.704090   -0.184515    1.534379
      5          6           0        0.863853    0.029683   -0.459093
      6          7           0        1.599279   -1.146747   -0.073650
      7          8           0        1.544324    1.188297    0.057788
      8          1           0       -0.802114   -2.160737   -0.440556
      9          1           0       -1.291837   -1.112639   -1.777535
     10          1           0       -2.356382   -1.297636   -0.376912
     11          1           0       -0.937358    2.140607    0.120986
     12          1           0       -2.401237    1.212134   -0.190267
     13          1           0       -1.232749    1.452219   -1.492625
     14          1           0       -0.120212    0.594677    2.033626
     15          1           0       -0.332574   -1.161151    1.861869
     16          1           0       -1.742852   -0.104101    1.871833
     17          1           0        0.869646    0.072397   -1.560368
     18          1           0        1.710048   -1.151861    0.938180
     19          1           0        2.539055   -1.085681   -0.457889
     20          1           0        1.154043    1.976198   -0.343720
 ---------------------------------------------------------------------

 SCF Done:  E(RB3LYP) =  -328.355681605     A.U. after    1 cycles

 The electronic state is 1-A.
 Alpha  occ. eigenvalues --  -19.13716 -14.31175 -10.25222 -10.19272 -10.17637
 Alpha  occ. eigenvalues --  -10.16782 -10.16411  -1.01467  -0.87463  -0.80170
 Alpha  occ. eigenvalues --   -0.68305  -0.67807  -0.64269  -0.53940  -0.51338
 Alpha  occ. eigenvalues --   -0.48648  -0.45619  -0.43555  -0.41568  -0.41310
 Alpha  occ. eigenvalues --   -0.38033  -0.37721  -0.35991  -0.35232  -0.33206
 Alpha  occ. eigenvalues --   -0.32151  -0.31554  -0.26224  -0.25010
 Alpha virt. eigenvalues --    0.06782   0.09808   0.11836   0.12493   0.13813
 Alpha virt. eigenvalues --    0.15155   0.16269   0.17650   0.18362   0.18573
 Alpha virt. eigenvalues --    0.20113   0.21103   0.22078   0.22412   0.24224

 Mulliken charges:
               1
     1  C   -0.298342
     2  C    0.042671
     3  C   -0.325875
     4  C   -0.321062
     5  C    0.276595
     6  N   -0.587105
     7  O   -0.556127
     8  H    0.124285
     9  H    0.089293
    10  H    0.090305
    11  H    0.093696
    12  H    0.105244
    13  H    0.093815
    14  H    0.112107
    15  H    0.100940
    16  H    0.096510
    17  H    0.073165
    18  H    0.245139
    19  H    0.244890
    20  H    0.299853
 Sum of Mulliken charges =  -0.00000

 Dipole moment (field-independent basis, Debye):
    X=             -0.3206    Y=              0.8921    Z=             -0.4105  Tot=              1.0330
 Quadrupole moment (field-independent basis, Debye-Ang):
   XX=            -44.9048   YY=            -45.8309   ZZ=            -44.4369
   XY=             -1.5037   XZ=             -0.8478   YZ=             -2.6394

  Exact polarizability:  66.838  -2.001  65.028   0.067  -1.189  62.047
 Approx polarizability:  88.723  -1.655  90.330   0.385  -1.717  87.418

                      1                      2                      3
                      A                      A                      A
 Frequencies --     94.6535               217.4557               241.6637
 Red. masses --      3.3149                 1.0888                 1.2985
 Frc consts  --      0.0175                 0.0303                 0.0447
 IR Inten    --      0.8224                 2.3249                 4.8526

                      4                      5                      6
                      A                      A                      A
 Frequencies --    248.6002               267.7379               276.6579
 Red. masses --      1.3939                 1.3862                 1.7622
 Frc consts  --      0.0508                 0.0585                 0.0795
 IR Inten    --      2.1373                 9.2542                 1.3819

                      7                      8                      9
                      A                      A                      A
 Frequencies --    308.8043               342.6429               352.8002
 Red. masses --      1.4061                 1.4894                 2.4023
 Frc consts  --      0.0790                 0.1030                 0.1762
 IR Inten    --      5.2448                89.9398                 0.0749

                     10                     11                     12
                      A                      A                      A
 Frequencies --    376.3713               390.6114               474.9055
 Red. masses --      1.5382                 2.0376                 2.3950
 Frc consts  --      0.1284                 0.1832                 0.3183
 IR Inten    --     48.8281                24.7633                30.0425

                     13                     14                     15
                      A                      A                      A
 Frequencies --    492.1495               587.2521               741.7157
 Red. masses --      3.1639                 2.9191                 3.0469
 Frc consts  --      0.4515                 0.5931                 0.9876
 IR Inten    --      1.9104                22.6121                 4.7993

                     16                     17                     18
                      A                      A                      A
 Frequencies --    871.2893               893.0433               942.2592
 Red. masses --      2.1934                 1.8556                 1.6922
 Frc consts  --      0.9811                 0.8719                 0.8852
 IR Inten    --      5.4458                94.9450                 1.0056

                     19                     20                     21
                      A                      A                      A
 Frequencies --    943.7558               964.9657              1013.7889
 Red. masses --      1.6162                 1.2088                 2.6506
 Frc consts  --      0.8481                 0.6632                 1.6051
 IR Inten    --      2.2321                 0.2405                99.8412

                     22                     23                     24
                      A                      A                      A
 Frequencies --   1034.7006              1064.1227              1095.8219
 Red. masses --      1.3644                 1.8260                 1.7245
 Frc consts  --      0.8606                 1.2182                 1.2201
 IR Inten    --      2.0845                49.7475                37.3950

                     25                     26                     27
                      A                      A                      A
 Frequencies --   1162.0448              1243.4902              1254.0597
 Red. masses --      1.2344                 2.0070                 2.6680
 Frc consts  --      0.9821                 1.8284                 2.4722
 IR Inten    --     18.2539                46.6103                 5.0403

                     28                     29                     30
                      A                      A                      A
 Frequencies --   1293.9868              1327.5004              1387.2662
 Red. masses --      2.3561                 1.7400                 1.2400
 Frc consts  --      2.3244                 1.8066                 1.4060
 IR Inten    --     10.5864                34.6967                 4.6445

                     31                     32                     33
                      A                      A                      A
 Frequencies --   1406.2217              1409.1605              1431.6308
 Red. masses --      1.2645                 1.2569                 1.2707
 Frc consts  --      1.4732                 1.4705                 1.5345
 IR Inten    --      8.3928                 4.2841                 1.6482

                     34                     35                     36
                      A                      A                      A
 Frequencies --   1452.6455              1494.4204              1505.6540
 Red. masses --      1.3748                 1.0502                 1.0485
 Frc consts  --      1.7092                 1.3819                 1.4005
 IR Inten    --     31.1990                 0.3823                 0.7602

                     37                     38                     39
                      A                      A                      A
 Frequencies --   1509.2415              1516.8738              1525.5250
 Red. masses --      1.0460                 1.0541                 1.0552
 Frc consts  --      1.4037                 1.4290                 1.4469
 IR Inten    --      0.1253                 2.3073                 5.0031

                     40                     41                     42
                      A                      A                      A
 Frequencies --   1540.0019              1680.5783              2986.9741
 Red. masses --      1.0635                 1.0934                 1.0848
 Frc consts  --      1.4860                 1.8195                 5.7024
 IR Inten    --     15.6551                29.9826                54.9585

                     43                     44                     45
                      A                      A                      A
 Frequencies --   3027.5567              3037.7178              3044.3982
 Red. masses --      1.0371                 1.0373                 1.0367
 Frc consts  --      5.6010                 5.6397                 5.6610
 IR Inten    --     28.8888                40.1200                 9.4138

                     46                     47                     48
                      A                      A                      A
 Frequencies --   3094.9736              3099.6642              3106.7956
 Red. masses --      1.1010                 1.1013                 1.1017
 Frc consts  --      6.2135                 6.2345                 6.2651
 IR Inten    --     11.9343                48.3378                12.6497

                     49                     50                     51
                      A                      A                      A
 Frequencies --   3109.9721              3124.2581              3142.7439
 Red. masses --      1.1008                 1.1025                 1.0994
 Frc consts  --      6.2729                 6.3407                 6.3976
 IR Inten    --     48.8142                25.6164                18.6134

                     52                     53                     54
                      A                      A                      A
 Frequencies --   3498.7699              3576.7552              3809.7951
 Red. masses --      1.0494                 1.0915                 1.0655
 Frc consts  --      7.5689                 8.2275                 9.1121
 IR Inten    --      0.0548                 0.6776                 5.4313

 - Thermochemistry -
 -------------------
 Temperature   298.150 Kelvin.  Pressure   1.00000 Atm.
 Atom     1 has atomic number  6 and mass  12.00000

 Molecular mass:   103.09971 amu.
 Principal axes and moments of inertia in atomic units:
                           1         2         3
     Eigenvalues --   578.81593 804.64279 960.04012
           X            0.99934  -0.03631   0.00318
           Y            0.03638   0.99893  -0.02850
           Z           -0.00214   0.02860   0.99959
 This molecule is an asymmetric top.
 Rotational symmetry number  1.
 Warning -- assumption of classical behavior for rotation
           may cause significant error
 Rotational temperatures (Kelvin)      0.14964     0.10764     0.09022
 Rotational constants (GHZ):           3.11799     2.24291     1.87986
 Zero-point vibrational energy     478736.2 (Joules/Mol)
                                  114.42070 (Kcal/Mol)
 Warning -- explicit consideration of  14 degrees of freedom as
           vibrations may cause significant error
 Vibrational temperatures:    136.19   312.87   347.70   357.68   385.21
          (Kelvin)            398.05   444.30   492.99   507.60   541.51
                              562.00   683.28   708.09   844.92  1067.16
                             1253.59  1284.89  1355.70  1357.85  1388.37
                             1458.61  1488.70  1531.03  1576.64  1671.92
                             1789.10  1804.31  1861.76  1909.97  1995.96
                             2023.24  2027.47  2059.79  2090.03  2150.13
                             2166.30  2171.46  2182.44  2194.89  2215.72
                             2417.97  4297.58  4355.97  4370.59  4380.20
                             4452.97  4459.72  4469.98  4474.55  4495.10
                             4521.70  5033.94  5146.15  5481.44

 Zero-point correction=                           0.182341 (Hartree/Particle)
 Thermal correction to Energy=                    0.191381
 Thermal correction to Enthalpy=                  0.192326
 Thermal correction to Gibbs Free Energy=         0.150124
 Sum of electronic and zero-point Energies=           -328.173341
 Sum of electronic and thermal Energies=              -328.164300
 Sum of electronic and thermal Enthalpies=            -328.163356
 Sum of electronic and thermal Free Energies=         -328.205558

                     E (Thermal)             CV                S
                      KCal/Mol        Cal/Mol-Kelvin    Cal/Mol-Kelvin
 Total                  120.094             34.419             88.821
 Electronic               0.000              0.000              0.000
 Translational            0.889              2.981             39.809
 Rotational               0.889              2.981             27.594
 Vibrational            118.316             28.458             21.418
 Vibration     1          0.603              1.953              3.562
 Vibration     2          0.646              1.814              1.980
 Vibration     3          0.658              1.777              1.791
 Vibration     4          0.662              1.765              1.740
 Vibration     5          0.673              1.732              1.611
 Vibration     6          0.678              1.717              1.554
 Vibration     7          0.698              1.657              1.369
 Vibration     8          0.722              1.590              1.200
 Vibration     9          0.729              1.570              1.154
 Vibration    10          0.747              1.520              1.054
 Vibration    11          0.758              1.490              0.998
 Vibration    12          0.832              1.306              0.724
 Vibration    13          0.848              1.267              0.678
 Vibration    14          0.944              1.059              0.472

 Normal termination of Gaussian 09 at Thu Sep  8 15:18:21 2022.
