 Gaussian 09, Revision E.01,
 Gaussian 09:  ES64L-G09RevE.01 30-Nov-2015

 ----------------------------
 #P OPT Freq B3LYP/6-31G(d,p)
 ----------------------------

 ---------
 Frag_1055
 ---------
 Symbolic Z-matrix:
 Charge =  0 Multiplicity = 1

 SCF Done:  E(RB3LYP) =  -321.068429221     A.U. after   13 cycles
 SCF Done:  E(RB3LYP) =  -321.068479851     A.U. after   10 cycles
 SCF Done:  E(RB3LYP) =  -321.068486591     A.U. after    8 cycles
 SCF Done:  E(RB3LYP) =  -321.068489579     A.U. after    8 cycles
 SCF Done:  E(RB3LYP) =  -321.068491364     A.U. after    8 cycles
 SCF Done:  E(RB3LYP) =  -321.068492018     A.U. after    7 cycles
 SCF Done:  E(RB3LYP) =  -321.068492344     A.U. after    7 cycles
 Optimization completed.
    -- Stationary point found.
 Normal termination of Gaussian 09 at Thu Sep  8 14:53:14 2022.

 ----------------------------------------------------------------------
 #P Geom=AllCheck Guess=TCheck SCRF=Check GenChk RB3LYP/6-31G(d,p) Freq
 ----------------------------------------------------------------------

 Structure from the checkpoint file:  "B3LYP6-31Gdp.Frag_1055.chk"
 ---------
 Frag_1055
 ---------
 Charge =  0 Multiplicity = 1

                         Standard orientation:
 ---------------------------------------------------------------------
 Center     Atomic      Atomic             Coordinates (Angstroms)
 Number     Number       Type             X           Y           Z
 ---------------------------------------------------------------------
      1          6           0        0.996395    1.150693    0.682358
      2          7           0        0.680693    0.230003   -0.407156
      3          7           0        1.572197   -0.879801   -0.490491
      4          6           0       -0.672517   -0.293337   -0.373382
      5          7           0       -0.977039   -1.011265    0.859656
      6          8           0       -1.521508    0.828120   -0.592617
      7          1           0        1.052091    0.652770    1.667257
      8          1           0        0.239822    1.937822    0.718388
      9          1           0        1.967210    1.615313    0.483110
     10          1           0        1.709760   -1.286860    0.440988
     11          1           0        2.467957   -0.519852   -0.809898
     12          1           0       -0.731946   -1.020053   -1.191681
     13          1           0       -1.730992   -1.678977    0.730940
     14          1           0       -1.246486   -0.361158    1.593687
     15          1           0       -2.429570    0.519339   -0.479780
 ---------------------------------------------------------------------

 SCF Done:  E(RB3LYP) =  -321.068492344     A.U. after    1 cycles

 The electronic state is 1-A.
 Alpha  occ. eigenvalues --  -19.14347 -14.33948 -14.33001 -14.32022 -10.27731
 Alpha  occ. eigenvalues --  -10.19422  -1.03318  -0.95705  -0.86944  -0.77485
 Alpha  occ. eigenvalues --   -0.68957  -0.58512  -0.53580  -0.50988  -0.47345
 Alpha  occ. eigenvalues --   -0.46176  -0.44230  -0.41149  -0.39825  -0.38126
 Alpha  occ. eigenvalues --   -0.35568  -0.28939  -0.24863  -0.24544  -0.21502
 Alpha virt. eigenvalues --    0.06405   0.09200   0.11846   0.13123   0.15081
 Alpha virt. eigenvalues --    0.15990   0.17651   0.18510   0.19064   0.19426
 Alpha virt. eigenvalues --    0.23838   0.27050   0.28339   0.29565   0.53440

 Mulliken charges:
               1
     1  C   -0.177046
     2  N   -0.304618
     3  N   -0.452878
     4  C    0.401931
     5  N   -0.599468
     6  O   -0.534394
     7  H    0.079236
     8  H    0.129418
     9  H    0.103124
    10  H    0.233465
    11  H    0.249001
    12  H    0.104006
    13  H    0.239389
    14  H    0.237815
    15  H    0.291019
 Sum of Mulliken charges =   0.00000

 Dipole moment (field-independent basis, Debye):
    X=             -1.2530    Y=             -0.4884    Z=              1.8944  Tot=              2.3232
 Quadrupole moment (field-independent basis, Debye-Ang):
   XX=            -26.1528   YY=            -39.9726   ZZ=            -38.8872
   XY=              3.4002   XZ=             -0.3167   YZ=              1.3670

  Exact polarizability:  54.499   0.629  46.842  -0.668   1.065  42.148
 Approx polarizability:  68.506  -0.952  64.907  -1.148  -0.177  59.787

                      1                      2                      3
                      A                      A                      A
 Frequencies --    117.3887               223.8647               265.9079
 Red. masses --      3.4095                 1.9410                 1.2173
 Frc consts  --      0.0277                 0.0573                 0.0507
 IR Inten    --      2.6738                16.7145               103.6534

                      4                      5                      6
                      A                      A                      A
 Frequencies --    274.4117               303.0613               322.4513
 Red. masses --      1.0536                 1.8642                 1.4086
 Frc consts  --      0.0467                 0.1009                 0.0863
 IR Inten    --     30.6735                30.6346                19.9802

                      7                      8                      9
                      A                      A                      A
 Frequencies --    391.9824               416.5068               474.5415
 Red. masses --      1.3265                 3.0087                 2.5666
 Frc consts  --      0.1201                 0.3075                 0.3405
 IR Inten    --     27.1602                 3.6809                21.2873

                     10                     11                     12
                      A                      A                      A
 Frequencies --    566.5335               630.4325               780.1612
 Red. masses --      3.7054                 3.0342                 1.6712
 Frc consts  --      0.7007                 0.7105                 0.5993
 IR Inten    --     13.6100                16.8957               131.5653

                     13                     14                     15
                      A                      A                      A
 Frequencies --    818.7871               925.0356              1019.1034
 Red. masses --      3.0949                 2.0678                 1.7990
 Frc consts  --      1.2225                 1.0425                 1.1008
 IR Inten    --     22.6871               100.5261                43.1510

                     16                     17                     18
                      A                      A                      A
 Frequencies --   1050.0589              1062.2364              1129.4463
 Red. masses --      1.6667                 4.1159                 2.6236
 Frc consts  --      1.0828                 2.7362                 1.9719
 IR Inten    --     49.7530               225.4634                23.3730

                     19                     20                     21
                      A                      A                      A
 Frequencies --   1149.6452              1230.1108              1278.7613
 Red. masses --      1.3079                 1.4523                 2.0010
 Frc consts  --      1.0185                 1.2947                 1.9279
 IR Inten    --      5.8984                36.0945                28.0401

                     22                     23                     24
                      A                      A                      A
 Frequencies --   1307.9026              1348.9506              1385.2973
 Red. masses --      1.5372                 1.3500                 1.3569
 Frc consts  --      1.5492                 1.4474                 1.5342
 IR Inten    --     17.9628                13.6374                11.7179

                     25                     26                     27
                      A                      A                      A
 Frequencies --   1442.1713              1463.9191              1504.8224
 Red. masses --      1.1895                 1.3284                 1.0533
 Frc consts  --      1.4576                 1.6774                 1.4053
 IR Inten    --      9.6325                35.1230                 9.3332

                     28                     29                     30
                      A                      A                      A
 Frequencies --   1521.3936              1654.2025              1665.9575
 Red. masses --      1.0606                 1.1032                 1.0931
 Frc consts  --      1.4464                 1.7787                 1.7875
 IR Inten    --      7.3341                30.8303                22.0748

                     31                     32                     33
                      A                      A                      A
 Frequencies --   2956.1452              3067.2727              3081.6980
 Red. masses --      1.0574                 1.0870                 1.0783
 Frc consts  --      5.4441                 6.0256                 6.0333
 IR Inten    --     70.1836                40.5700                36.3828

                     34                     35                     36
                      A                      A                      A
 Frequencies --   3139.8161              3378.4563              3504.2130
 Red. masses --      1.1004                 1.0555                 1.0483
 Frc consts  --      6.3916                 7.0982                 7.5845
 IR Inten    --     15.1442                17.0118                 0.0951

                     37                     38                     39
                      A                      A                      A
 Frequencies --   3546.9484              3602.5661              3825.5903
 Red. masses --      1.0852                 1.0945                 1.0660
 Frc consts  --      8.0436                 8.3695                 9.1923
 IR Inten    --      0.3123                 1.0625                12.9915

 - Thermochemistry -
 -------------------
 Temperature   298.150 Kelvin.  Pressure   1.00000 Atm.
 Atom     1 has atomic number  6 and mass  12.00000

 Molecular mass:    91.07456 amu.
 Principal axes and moments of inertia in atomic units:
                           1         2         3
     Eigenvalues --   373.72576 614.41998 718.14843
           X            0.99854   0.05353   0.00783
           Y           -0.05398   0.99547   0.07832
           Z           -0.00360  -0.07863   0.99690
 This molecule is an asymmetric top.
 Rotational symmetry number  1.
 Rotational temperatures (Kelvin)      0.23176     0.14097     0.12061
 Rotational constants (GHZ):           4.82905     2.93731     2.51305
 Zero-point vibrational energy     345886.8 (Joules/Mol)
                                   82.66892 (Kcal/Mol)
 Warning -- explicit consideration of  10 degrees of freedom as
           vibrations may cause significant error
 Vibrational temperatures:    168.90   322.09   382.58   394.82   436.04
          (Kelvin)            463.93   563.97   599.26   682.76   815.11
                              907.05  1122.48  1178.05  1330.92  1466.26
                             1510.80  1528.32  1625.02  1654.08  1769.85
                             1839.85  1881.78  1940.84  1993.13  2074.96
                             2106.25  2165.10  2188.94  2380.03  2396.94
                             4253.23  4413.12  4433.87  4517.49  4860.84
                             5041.77  5103.26  5183.28  5504.16

 Zero-point correction=                           0.131741 (Hartree/Particle)
 Thermal correction to Energy=                    0.139129
 Thermal correction to Enthalpy=                  0.140073
 Thermal correction to Gibbs Free Energy=         0.101295
 Sum of electronic and zero-point Energies=           -320.936751
 Sum of electronic and thermal Energies=              -320.929364
 Sum of electronic and thermal Enthalpies=            -320.928419
 Sum of electronic and thermal Free Energies=         -320.967198

                     E (Thermal)             CV                S
                      KCal/Mol        Cal/Mol-Kelvin    Cal/Mol-Kelvin
 Total                   87.305             27.150             81.616
 Electronic               0.000              0.000              0.000
 Translational            0.889              2.981             39.439
 Rotational               0.889              2.981             26.603
 Vibrational             85.527             21.188             15.574
 Vibration     1          0.608              1.935              3.143
 Vibration     2          0.649              1.805              1.928
 Vibration     3          0.672              1.736              1.623
 Vibration     4          0.677              1.721              1.568
 Vibration     5          0.695              1.668              1.400
 Vibration     6          0.707              1.630              1.298
 Vibration     7          0.759              1.487              0.993
 Vibration     8          0.780              1.434              0.904
 Vibration     9          0.831              1.307              0.725
 Vibration    10          0.922              1.104              0.511

 Optimization completed.
    -- Stationary point found.
 Normal termination of Gaussian 09 at Thu Sep  8 14:53:26 2022.
