 Gaussian 09, Revision E.01,
 Gaussian 09:  ES64L-G09RevE.01 30-Nov-2015

 ----------------------------
 #P OPT Freq B3LYP/6-31G(d,p)
 ----------------------------

 --------
 Frag_829
 --------
 Symbolic Z-matrix:
 Charge =  0 Multiplicity = 1

 SCF Done:  E(RB3LYP) =  -189.277662616     A.U. after   13 cycles
 SCF Done:  E(RB3LYP) =  -189.277696466     A.U. after    9 cycles
 SCF Done:  E(RB3LYP) =  -189.277699113     A.U. after    8 cycles
 SCF Done:  E(RB3LYP) =  -189.277699711     A.U. after    8 cycles
 Optimization completed.
    -- Stationary point found.
 Normal termination of Gaussian 09 at Thu Sep  8 15:12:30 2022.

 ----------------------------------------------------------------------
 #P Geom=AllCheck Guess=TCheck SCRF=Check GenChk RB3LYP/6-31G(d,p) Freq
 ----------------------------------------------------------------------

 Structure from the checkpoint file:  "B3LYP6-31Gdp.Frag_829.chk"
 --------
 Frag_829
 --------
 Charge =  0 Multiplicity = 1

                         Standard orientation:
 ---------------------------------------------------------------------
 Center     Atomic      Atomic             Coordinates (Angstroms)
 Number     Number       Type             X           Y           Z
 ---------------------------------------------------------------------
      1          6           0       -1.648466   -0.298170    0.152414
      2          6           0       -0.423614    0.582202   -0.098863
      3          7           0        0.730906   -0.253068   -0.469821
      4          7           0        1.760780   -0.189886    0.212867
      5          1           0       -1.487337   -0.956097    1.011451
      6          1           0       -1.857449   -0.921508   -0.720750
      7          1           0       -2.525745    0.322710    0.354795
      8          1           0       -0.182261    1.205249    0.781084
      9          1           0       -0.610644    1.245784   -0.952142
     10          1           0        1.654117    0.500349    1.002941
 ---------------------------------------------------------------------

 SCF Done:  E(RB3LYP) =  -189.277699711     A.U. after    1 cycles

 The electronic state is 1-A.
 Alpha  occ. eigenvalues --  -14.39047 -14.38110 -10.22688 -10.19414  -1.03130
 Alpha  occ. eigenvalues --   -0.79596  -0.67804  -0.61280  -0.51281  -0.47725
 Alpha  occ. eigenvalues --   -0.43326  -0.39507  -0.38842  -0.35022  -0.33680
 Alpha  occ. eigenvalues --   -0.23487
 Alpha virt. eigenvalues --   -0.04128   0.07861   0.10634   0.13751   0.15794
 Alpha virt. eigenvalues --    0.16588   0.17529   0.21069   0.21668   0.41015
 Alpha virt. eigenvalues --    0.50016   0.52402   0.54184   0.55225   0.61774

 Mulliken charges:
               1
     1  C   -0.319745
     2  C   -0.080504
     3  N   -0.147568
     4  N   -0.233941
     5  H    0.120704
     6  H    0.134029
     7  H    0.115264
     8  H    0.081197
     9  H    0.132816
    10  H    0.197746
 Sum of Mulliken charges =  -0.00000

 Dipole moment (field-independent basis, Debye):
    X=             -2.1201    Y=              1.7362    Z=              1.1753  Tot=              2.9817
 Quadrupole moment (field-independent basis, Debye-Ang):
   XX=            -28.1330   YY=            -25.2209   ZZ=            -24.8974
   XY=              2.2963   XZ=              1.7489   YZ=             -0.5885

  Exact polarizability:  44.809  -1.011  30.628   4.886   2.703  33.068
 Approx polarizability:  61.735  -2.430  42.923  10.689   5.189  50.493

                      1                      2                      3
                      A                      A                      A
 Frequencies --    109.3824               225.9879               374.4051
 Red. masses --      3.2257                 1.0968                 2.6995
 Frc consts  --      0.0227                 0.0330                 0.2230
 IR Inten    --      3.1703                 1.2463                21.2846

                      4                      5                      6
                      A                      A                      A
 Frequencies --    566.7653               806.9248               856.7649
 Red. masses --      2.5688                 1.3746                 1.8831
 Frc consts  --      0.4862                 0.5273                 0.8144
 IR Inten    --      1.1597                 5.9951                 1.0013

                      7                      8                      9
                      A                      A                      A
 Frequencies --    928.7728              1016.7188              1138.2930
 Red. masses --      1.2674                 2.6457                 1.8985
 Frc consts  --      0.6441                 1.6114                 1.4494
 IR Inten    --     40.1008                 3.3434                 5.0332

                     10                     11                     12
                      A                      A                      A
 Frequencies --   1179.9762              1283.9518              1360.0747
 Red. masses --      1.6429                 1.1358                 1.3501
 Frc consts  --      1.3477                 1.1031                 1.4714
 IR Inten    --      3.9303                 1.7948                 4.2543

                     13                     14                     15
                      A                      A                      A
 Frequencies --   1419.5889              1479.9774              1496.7031
 Red. masses --      1.2297                 1.1396                 1.1793
 Frc consts  --      1.4600                 1.4706                 1.5564
 IR Inten    --      1.1368                 9.5290                79.8409

                     16                     17                     18
                      A                      A                      A
 Frequencies --   1505.1550              1520.1193              1689.4107
 Red. masses --      1.0456                 1.0631                11.5386
 Frc consts  --      1.3957                 1.4474                19.4032
 IR Inten    --      2.6948                 7.2083                22.9279

                     19                     20                     21
                      A                      A                      A
 Frequencies --   2956.3671              2994.8345              3058.0123
 Red. masses --      1.0687                 1.0694                 1.0354
 Frc consts  --      5.5035                 5.6512                 5.7050
 IR Inten    --     48.6163               109.4854                16.1436

                     22                     23                     24
                      A                      A                      A
 Frequencies --   3071.4755              3132.8536              3142.1201
 Red. masses --      1.0924                 1.1034                 1.1033
 Frc consts  --      6.0717                 6.3805                 6.4176
 IR Inten    --     12.6008                22.6698                17.6500

 - Thermochemistry -
 -------------------
 Temperature   298.150 Kelvin.  Pressure   1.00000 Atm.
 Atom     1 has atomic number  6 and mass  12.00000

 Molecular mass:    58.05310 amu.
 Principal axes and moments of inertia in atomic units:
                           1         2         3
     Eigenvalues --    71.12993 388.83072 400.71800
           X            0.99969   0.02245   0.01059
           Y           -0.02283   0.99906   0.03690
           Z           -0.00975  -0.03713   0.99926
 This molecule is an asymmetric top.
 Rotational symmetry number  1.
 Rotational temperatures (Kelvin)      1.21768     0.22275     0.21615
 Rotational constants (GHZ):          25.37246     4.64146     4.50377
 Zero-point vibrational energy     223191.1 (Joules/Mol)
                                   53.34395 (Kcal/Mol)
 Warning -- explicit consideration of   4 degrees of freedom as
           vibrations may cause significant error
 Vibrational temperatures:    157.38   325.15   538.68   815.45  1160.98
          (Kelvin)           1232.69  1336.30  1462.83  1637.75  1697.72
                             1847.32  1956.84  2042.47  2129.35  2153.42
                             2165.58  2187.11  2430.68  4253.55  4308.89
                             4399.79  4419.16  4507.47  4520.80

 Zero-point correction=                           0.085009 (Hartree/Particle)
 Thermal correction to Energy=                    0.089906
 Thermal correction to Enthalpy=                  0.090850
 Thermal correction to Gibbs Free Energy=         0.057792
 Sum of electronic and zero-point Energies=           -189.192691
 Sum of electronic and thermal Energies=              -189.187794
 Sum of electronic and thermal Enthalpies=            -189.186850
 Sum of electronic and thermal Free Energies=         -189.219908

                     E (Thermal)             CV                S
                      KCal/Mol        Cal/Mol-Kelvin    Cal/Mol-Kelvin
 Total                   56.417             15.537             69.577
 Electronic               0.000              0.000              0.000
 Translational            0.889              2.981             38.097
 Rotational               0.889              2.981             23.920
 Vibrational             54.639              9.575              7.560
 Vibration     1          0.606              1.942              3.280
 Vibration     2          0.650              1.801              1.911
 Vibration     3          0.746              1.525              1.062
 Vibration     4          0.923              1.103              0.510

 Optimization completed.
    -- Stationary point found.
 Normal termination of Gaussian 09 at Thu Sep  8 15:12:37 2022.
