 Gaussian 09, Revision E.01,
 Gaussian 09:  ES64L-G09RevE.01 30-Nov-2015

 -------------------------
 #P OPT Freq B3LYP/6-31G**
 -------------------------

 --------
 Frag_189
 --------
 Symbolic Z-matrix:
 Charge =  0 Multiplicity = 1

 SCF Done:  E(RB3LYP) =  -204.081808893     A.U. after   15 cycles
 SCF Done:  E(RB3LYP) =  -204.095915536     A.U. after   14 cycles
 SCF Done:  E(RB3LYP) =  -204.093236631     A.U. after   15 cycles
 SCF Done:  E(RB3LYP) =  -204.096975215     A.U. after   11 cycles
 SCF Done:  E(RB3LYP) =  -204.097191361     A.U. after   12 cycles
 SCF Done:  E(RB3LYP) =  -204.097232202     A.U. after   12 cycles
 SCF Done:  E(RB3LYP) =  -204.097245311     A.U. after    9 cycles
 SCF Done:  E(RB3LYP) =  -204.097246173     A.U. after    8 cycles
 Optimization completed.
    -- Stationary point found.
 Normal termination of Gaussian 09 at Sat Aug 21 01:36:37 2021.

 ----------------------------------------------------------------------
 #P Geom=AllCheck Guess=TCheck SCRF=Check GenChk RB3LYP/6-31G(d,p) Freq
 ----------------------------------------------------------------------

 Structure from the checkpoint file:  "/public/home/users/caep010/.cache/gau_scr/Gau-17517.chk"
 --------
 Frag_189
 --------
 Charge =  0 Multiplicity = 1

                         Standard orientation:
 ---------------------------------------------------------------------
 Center     Atomic      Atomic             Coordinates (Angstroms)
 Number     Number       Type             X           Y           Z
 ---------------------------------------------------------------------
      1          6           0       -1.548571    0.283934    0.000005
      2          7           0       -0.394496   -0.632937    0.000039
      3          7           0        0.717194   -0.095371   -0.000089
      4          7           0        1.800067    0.270853    0.000047
      5          1           0       -1.564056    0.920167   -0.892819
      6          1           0       -1.563760    0.920656    0.892483
      7          1           0       -2.440111   -0.342243    0.000323
 ---------------------------------------------------------------------

 SCF Done:  E(RB3LYP) =  -204.097246173     A.U. after    1 cycles

 The electronic state is 1-A.
 Alpha  occ. eigenvalues --  -14.51304 -14.40711 -14.38427 -10.23999  -1.13936
 Alpha  occ. eigenvalues --   -0.98062  -0.75061  -0.54414  -0.51642  -0.51468
 Alpha  occ. eigenvalues --   -0.45241  -0.43418  -0.41754  -0.30408  -0.25532
 Alpha virt. eigenvalues --   -0.02796   0.01142   0.10385   0.14249   0.15038
 Alpha virt. eigenvalues --    0.16506   0.26597   0.46234   0.49316   0.52426
 Alpha virt. eigenvalues --    0.54384   0.55974   0.62955   0.65198   0.69886

 Mulliken charges:
               1
     1  C   -0.175165
     2  N   -0.366223
     3  N    0.402987
     4  N   -0.266894
     5  H    0.130706
     6  H    0.130699
     7  H    0.143890
 Sum of Mulliken charges =   0.00000

 Dipole moment (field-independent basis, Debye):
    X=             -2.1322    Y=              1.0200    Z=             -0.0002  Tot=              2.3636
 Quadrupole moment (field-independent basis, Debye-Ang):
   XX=            -24.0499   YY=            -24.1163   ZZ=            -22.9812
   XY=             -1.8691   XZ=             -0.0002   YZ=              0.0000

  Exact polarizability:  50.861   5.380  22.532   0.001   0.000  19.048
 Approx polarizability: 102.903  24.479  37.895   0.001   0.000  25.443

                      1                      2                      3
                      A                      A                      A
 Frequencies --    100.5968               246.8221               573.1248
 Red. masses --      1.2048                 4.3007                13.5102
 Frc consts  --      0.0072                 0.1544                 2.6146
 IR Inten    --      0.6835                 6.2803                12.6865

                      4                      5                      6
                      A                      A                      A
 Frequencies --    664.6640               924.8969              1110.9911
 Red. masses --      7.3599                 6.2395                 1.2542
 Frc consts  --      1.9157                 3.1447                 0.9121
 IR Inten    --      9.8662                18.5848                 0.1061

                      7                      8                      9
                      A                      A                      A
 Frequencies --   1150.9373              1346.6485              1461.8485
 Red. masses --      1.3882                 8.7974                 1.1755
 Frc consts  --      1.0834                 9.3997                 1.4800
 IR Inten    --     11.0747               118.6565                10.2901

                     10                     11                     12
                      A                      A                      A
 Frequencies --   1505.8620              1506.9215              2264.1758
 Red. masses --      1.0538                 1.0451                13.4433
 Frc consts  --      1.4079                 1.3982                40.6047
 IR Inten    --     14.5688                 6.0722               441.5194

                     13                     14                     15
                      A                      A                      A
 Frequencies --   3029.1304              3092.6609              3166.9373
 Red. masses --      1.0364                 1.1062                 1.0992
 Frc consts  --      5.6029                 6.2337                 6.4955
 IR Inten    --     44.6058                31.0613                11.0782

 - Thermochemistry -
 -------------------
 Temperature   298.150 Kelvin.  Pressure   1.00000 Atm.
 Atom     1 has atomic number  6 and mass  12.00000

 Molecular mass:    57.03270 amu.
 Principal axes and moments of inertia in atomic units:
                           1         2         3
     Eigenvalues --    39.52731 341.35300 369.40918
           X            0.99967  -0.02573  -0.00000
           Y            0.02573   0.99967   0.00000
           Z           -0.00000  -0.00000   1.00000
 This molecule is an asymmetric top.
 Rotational symmetry number  1.
 Rotational temperatures (Kelvin)      2.19124     0.25374     0.23447
 Rotational constants (GHZ):          45.65808     5.28702     4.88548
 Zero-point vibrational energy     132463.8 (Joules/Mol)
                                   31.65961 (Kcal/Mol)
 Warning -- explicit consideration of   3 degrees of freedom as
           vibrations may cause significant error
 Vibrational temperatures:    144.74   355.12   824.60   956.30  1330.72
          (Kelvin)           1598.47  1655.94  1937.52  2103.27  2166.60
                             2168.12  3257.64  4358.24  4449.64  4556.51

 Zero-point correction=                           0.050453 (Hartree/Particle)
 Thermal correction to Energy=                    0.054931
 Thermal correction to Enthalpy=                  0.055875
 Thermal correction to Gibbs Free Energy=         0.023798
 Sum of electronic and zero-point Energies=           -204.046793
 Sum of electronic and thermal Energies=              -204.042315
 Sum of electronic and thermal Enthalpies=            -204.041371
 Sum of electronic and thermal Free Energies=         -204.073448

                     E (Thermal)             CV                S
                      KCal/Mol        Cal/Mol-Kelvin    Cal/Mol-Kelvin
 Total                   34.470             13.006             67.512
 Electronic               0.000              0.000              0.000
 Translational            0.889              2.981             38.044
 Rotational               0.889              2.981             23.126
 Vibrational             32.692              7.045              6.341
 Vibration     1          0.604              1.949              3.443
 Vibration     2          0.661              1.768              1.753
 Vibration     3          0.929              1.089              0.498

 Optimization completed.
    -- Stationary point found.
 Normal termination of Gaussian 09 at Sat Aug 21 01:36:43 2021.
