 Gaussian 09, Revision E.01,
 Gaussian 09:  ES64L-G09RevE.01 30-Nov-2015

 ----------------------------
 #P OPT Freq B3LYP/6-31G(d,p)
 ----------------------------

 --------
 Frag_767
 --------
 Symbolic Z-matrix:
 Charge =  0 Multiplicity = 1

 SCF Done:  E(RB3LYP) =  -318.686796777     A.U. after   15 cycles
 SCF Done:  E(RB3LYP) =  -318.686860897     A.U. after   11 cycles
 SCF Done:  E(RB3LYP) =  -318.686903270     A.U. after   11 cycles
 SCF Done:  E(RB3LYP) =  -318.686918037     A.U. after   10 cycles
 SCF Done:  E(RB3LYP) =  -318.686920295     A.U. after    8 cycles
 SCF Done:  E(RB3LYP) =  -318.686921939     A.U. after    9 cycles
 Optimization completed.
    -- Stationary point found.
 Normal termination of Gaussian 09 at Thu Sep  8 15:02:19 2022.

 ----------------------------------------------------------------------
 #P Geom=AllCheck Guess=TCheck SCRF=Check GenChk RB3LYP/6-31G(d,p) Freq
 ----------------------------------------------------------------------

 Structure from the checkpoint file:  "B3LYP6-31Gdp.Frag_767.chk"
 --------
 Frag_767
 --------
 Charge =  0 Multiplicity = 1

                         Standard orientation:
 ---------------------------------------------------------------------
 Center     Atomic      Atomic             Coordinates (Angstroms)
 Number     Number       Type             X           Y           Z
 ---------------------------------------------------------------------
      1          7           0        1.236571    1.284143   -0.341259
      2          6           0        0.720463    0.148954   -0.035145
      3          7           0        1.516216   -0.931953    0.261526
      4          6           0       -0.765560   -0.156751   -0.025035
      5          7           0       -1.312859   -1.256004   -0.344399
      6          8           0       -1.550978    0.889373    0.335847
      7          1           0        0.520269    1.927407   -0.681866
      8          1           0        2.503043   -0.722424    0.330225
      9          1           0        1.163963   -1.608049    0.923331
     10          1           0       -0.597229   -1.913919   -0.655955
     11          1           0       -0.991134    1.575475    0.727498
 ---------------------------------------------------------------------

 SCF Done:  E(RB3LYP) =  -318.686921939     A.U. after    1 cycles

 The electronic state is 1-A.
 Alpha  occ. eigenvalues --  -19.19702 -14.37041 -14.32262 -14.32087 -10.29744
 Alpha  occ. eigenvalues --  -10.28499  -1.08742  -0.96871  -0.90029  -0.87110
 Alpha  occ. eigenvalues --   -0.66334  -0.61801  -0.58256  -0.51288  -0.48770
 Alpha  occ. eigenvalues --   -0.47314  -0.44113  -0.38999  -0.37702  -0.31549
 Alpha  occ. eigenvalues --   -0.28517  -0.26559  -0.26049
 Alpha virt. eigenvalues --   -0.03650   0.04802   0.06272   0.09297   0.12123
 Alpha virt. eigenvalues --    0.12755   0.15424   0.22900   0.28014   0.31852
 Alpha virt. eigenvalues --    0.39851   0.43464   0.53499   0.55835   0.57311

 Mulliken charges:
               1
     1  N   -0.561485
     2  C    0.379972
     3  N   -0.605056
     4  C    0.453278
     5  N   -0.517916
     6  O   -0.485350
     7  H    0.225400
     8  H    0.283646
     9  H    0.273283
    10  H    0.238265
    11  H    0.315963
 Sum of Mulliken charges =  -0.00000

 Dipole moment (field-independent basis, Debye):
    X=              2.3585    Y=             -0.2704    Z=              1.6955  Tot=              2.9173
 Quadrupole moment (field-independent basis, Debye-Ang):
   XX=            -42.3271   YY=            -31.0813   ZZ=            -33.5849
   XY=             -7.6246   XZ=              1.7785   YZ=             -0.7173

  Exact polarizability:  45.230   2.572  58.735   0.712  -0.771  25.232
 Approx polarizability:  64.140  10.113 103.421   0.327  -0.561  36.774

                      1                      2                      3
                      A                      A                      A
 Frequencies --    111.4862               271.7190               320.8656
 Red. masses --      5.6788                 4.4043                 2.9344
 Frc consts  --      0.0416                 0.1916                 0.1780
 IR Inten    --      1.0012                24.9238                46.1535

                      4                      5                      6
                      A                      A                      A
 Frequencies --    411.5639               458.8307               486.7336
 Red. masses --      3.1587                 1.3139                 1.1592
 Frc consts  --      0.3152                 0.1630                 0.1618
 IR Inten    --     25.9513                81.7278               118.7788

                      7                      8                      9
                      A                      A                      A
 Frequencies --    559.1934               601.6768               644.0004
 Red. masses --      1.6183                 2.9876                 2.8834
 Frc consts  --      0.2982                 0.6372                 0.7046
 IR Inten    --     92.3807                 5.8556                86.6080

                     10                     11                     12
                      A                      A                      A
 Frequencies --    778.7251               796.1757               872.8340
 Red. masses --      7.2652                 5.4872                 1.1244
 Frc consts  --      2.5958                 2.0494                 0.5047
 IR Inten    --      3.4544                 8.5463                47.5811

                     13                     14                     15
                      A                      A                      A
 Frequencies --    915.0551              1095.5904              1129.1991
 Red. masses --      1.1134                 1.9201                 1.5961
 Frc consts  --      0.5493                 1.3579                 1.1991
 IR Inten    --     46.6445               197.5335                16.3478

                     16                     17                     18
                      A                      A                      A
 Frequencies --   1163.3450              1254.7109              1367.5457
 Red. masses --      1.3098                 1.3034                 2.1837
 Frc consts  --      1.0444                 1.2090                 2.4061
 IR Inten    --     50.4891               160.4741               213.7802

                     19                     20                     21
                      A                      A                      A
 Frequencies --   1461.7540              1621.9347              1711.6217
 Red. masses --      2.9020                 1.3548                 5.1748
 Frc consts  --      3.6533                 2.0999                 8.9323
 IR Inten    --     39.4566                35.4882               244.9084

                     22                     23                     24
                      A                      A                      A
 Frequencies --   1758.9567              3492.1998              3507.5323
 Red. masses --      7.4471                 1.0749                 1.0748
 Frc consts  --     13.5753                 7.7239                 7.7905
 IR Inten    --     84.1202                 1.0978                 3.2887

                     25                     26                     27
                      A                      A                      A
 Frequencies --   3578.4993              3703.3983              3792.8417
 Red. masses --      1.0462                 1.1018                 1.0655
 Frc consts  --      7.8935                 8.9030                 9.0309
 IR Inten    --     32.8202                33.9943                47.2038

 - Thermochemistry -
 -------------------
 Temperature   298.150 Kelvin.  Pressure   1.00000 Atm.
 Atom     1 has atomic number  7 and mass  14.00307

 Molecular mass:    87.04326 amu.
 Principal axes and moments of inertia in atomic units:
                           1         2         3
     Eigenvalues --   328.21907 526.18913 793.99600
           X            0.99839  -0.05591   0.00960
           Y            0.05599   0.99839  -0.00883
           Z           -0.00909   0.00935   0.99991
 This molecule is an asymmetric top.
 Rotational symmetry number  1.
 Rotational temperatures (Kelvin)      0.26389     0.16461     0.10909
 Rotational constants (GHZ):           5.49859     3.42983     2.27299
 Zero-point vibrational energy     226500.9 (Joules/Mol)
                                   54.13501 (Kcal/Mol)
 Warning -- explicit consideration of   8 degrees of freedom as
           vibrations may cause significant error
 Vibrational temperatures:    160.40   390.94   461.65   592.15   660.15
          (Kelvin)            700.30   804.55   865.68   926.57  1120.41
                             1145.52  1255.81  1316.56  1576.31  1624.66
                             1673.79  1805.25  1967.59  2103.14  2333.60
                             2462.64  2530.74  5024.49  5046.55  5148.66
                             5328.36  5457.05

 Zero-point correction=                           0.086270 (Hartree/Particle)
 Thermal correction to Energy=                    0.092312
 Thermal correction to Enthalpy=                  0.093256
 Thermal correction to Gibbs Free Energy=         0.056877
 Sum of electronic and zero-point Energies=           -318.600652
 Sum of electronic and thermal Energies=              -318.594610
 Sum of electronic and thermal Enthalpies=            -318.593666
 Sum of electronic and thermal Free Energies=         -318.630045

                     E (Thermal)             CV                S
                      KCal/Mol        Cal/Mol-Kelvin    Cal/Mol-Kelvin
 Total                   57.927             22.035             76.565
 Electronic               0.000              0.000              0.000
 Translational            0.889              2.981             39.304
 Rotational               0.889              2.981             26.419
 Vibrational             56.149             16.073             10.841
 Vibration     1          0.607              1.940              3.243
 Vibration     2          0.675              1.725              1.585
 Vibration     3          0.706              1.634              1.306
 Vibration     4          0.776              1.445              0.921
 Vibration     5          0.817              1.341              0.770
 Vibration     6          0.843              1.279              0.692
 Vibration     7          0.915              1.120              0.525
 Vibration     8          0.960              1.028              0.447

 Normal termination of Gaussian 09 at Thu Sep  8 15:02:29 2022.
