 Gaussian 09, Revision E.01,
 Gaussian 09:  ES64L-G09RevE.01 30-Nov-2015

 --------------------------------
 #P OPT=calcfc Freq B3LYP/6-31G**
 --------------------------------

 --------
 Frag_268
 --------
 Symbolic Z-matrix:
 Charge =  0 Multiplicity = 1

 SCF Done:  E(RB3LYP) =  -206.498435905     A.U. after   13 cycles
 SCF Done:  E(RB3LYP) =  -206.504583199     A.U. after   11 cycles
 SCF Done:  E(RB3LYP) =  -206.505007196     A.U. after   12 cycles
 SCF Done:  E(RB3LYP) =  -206.505043911     A.U. after   10 cycles
 SCF Done:  E(RB3LYP) =  -206.505051874     A.U. after    9 cycles
 Optimization completed.
    -- Stationary point found.
 Normal termination of Gaussian 09 at Mon Sep 27 01:15:33 2021.

 ----------------------------------------------------------------------
 #P Geom=AllCheck Guess=TCheck SCRF=Check GenChk RB3LYP/6-31G(d,p) Freq
 ----------------------------------------------------------------------

 Structure from the checkpoint file:  "/public/home/users/caep010/.cache/gau_scr/Gau-203861.chk"
 --------
 Frag_268
 --------
 Charge =  0 Multiplicity = 1

                         Standard orientation:
 ---------------------------------------------------------------------
 Center     Atomic      Atomic             Coordinates (Angstroms)
 Number     Number       Type             X           Y           Z
 ---------------------------------------------------------------------
      1          6           0        1.195540   -0.644355    0.082305
      2          7           0       -0.017006    0.006152   -0.416804
      3          7           0       -0.132674    1.346845    0.057174
      4          7           0       -1.155251   -0.702999    0.196285
      5          1           0        1.246490   -0.639532    1.184227
      6          1           0        2.066040   -0.127648   -0.332469
      7          1           0        1.220733   -1.683766   -0.260251
      8          1           0        0.224630    1.421222    1.017856
      9          1           0        0.452872    1.921632   -0.541979
     10          1           0       -1.936058   -0.073676    0.004947
     11          1           0       -1.313434   -1.502086   -0.422743
 ---------------------------------------------------------------------

 SCF Done:  E(RB3LYP) =  -206.505051874     A.U. after    1 cycles

 The electronic state is 1-A.
 Alpha  occ. eigenvalues --  -14.37136 -14.34056 -14.33084 -10.20041  -0.99271
 Alpha  occ. eigenvalues --   -0.84682  -0.75227  -0.62705  -0.50682  -0.50264
 Alpha  occ. eigenvalues --   -0.45039  -0.41936  -0.40566  -0.37831  -0.31358
 Alpha  occ. eigenvalues --   -0.25374  -0.19536
 Alpha virt. eigenvalues --    0.07490   0.11571   0.13503   0.14470   0.15387
 Alpha virt. eigenvalues --    0.16729   0.17461   0.18980   0.21724   0.25963
 Alpha virt. eigenvalues --    0.54746   0.55236   0.58310   0.63075   0.67087

 Mulliken charges:
               1
     1  C   -0.132900
     2  N   -0.250982
     3  N   -0.442241
     4  N   -0.455241
     5  H    0.091158
     6  H    0.100687
     7  H    0.107122
     8  H    0.226004
     9  H    0.256532
    10  H    0.255346
    11  H    0.244513
 Sum of Mulliken charges =  -0.00000

 Dipole moment (field-independent basis, Debye):
    X=              1.1069    Y=              0.0743    Z=             -0.3296  Tot=              1.1574
 Quadrupole moment (field-independent basis, Debye-Ang):
   XX=            -23.2179   YY=            -23.4745   ZZ=            -27.3742
   XY=              2.5191   XZ=              1.5089   YZ=              1.7552

  Exact polarizability:  37.123   1.837  39.228   0.527   1.866  28.619
 Approx polarizability:  46.880   2.790  52.115   0.143   2.612  40.969

                      1                      2                      3
                      A                      A                      A
 Frequencies --    152.1591               289.8154               325.2428
 Red. masses --      1.0968                 1.0385                 1.1307
 Frc consts  --      0.0150                 0.0514                 0.0705
 IR Inten    --     62.7721                 3.3975                41.1846

                      4                      5                      6
                      A                      A                      A
 Frequencies --    431.4288               467.0835               507.2528
 Red. masses --      2.4973                 2.5717                 2.7198
 Frc consts  --      0.2739                 0.3306                 0.4123
 IR Inten    --      7.3121                11.5933                 3.1807

                      7                      8                      9
                      A                      A                      A
 Frequencies --    819.6344               906.2259              1030.6632
 Red. masses --      5.3781                 2.3848                 1.8171
 Frc consts  --      2.1287                 1.1539                 1.1373
 IR Inten    --     27.3643                66.1746                39.9863

                     10                     11                     12
                      A                      A                      A
 Frequencies --   1083.9025              1126.9776              1168.5646
 Red. masses --      2.0180                 1.2512                 1.3130
 Frc consts  --      1.3968                 0.9363                 1.0564
 IR Inten    --     22.7464                39.3639                29.3611

                     13                     14                     15
                      A                      A                      A
 Frequencies --   1238.8659              1324.5326              1391.5142
 Red. masses --      2.0067                 1.3315                 1.3703
 Frc consts  --      1.8146                 1.3763                 1.5633
 IR Inten    --      9.6640                 1.9190                 2.8611

                     16                     17                     18
                      A                      A                      A
 Frequencies --   1452.5472              1493.3164              1508.5231
 Red. masses --      1.1997                 1.0531                 1.0484
 Frc consts  --      1.4914                 1.3836                 1.4057
 IR Inten    --      1.5185                 3.7544                 5.7587

                     19                     20                     21
                      A                      A                      A
 Frequencies --   1638.1446              1655.1471              2977.9201
 Red. masses --      1.0713                 1.0834                 1.0499
 Frc consts  --      1.6939                 1.7487                 5.4855
 IR Inten    --     36.0782                12.8937                57.5420

                     22                     23                     24
                      A                      A                      A
 Frequencies --   3085.7619              3123.7266              3350.9214
 Red. masses --      1.0833                 1.1041                 1.0576
 Frc consts  --      6.0775                 6.3473                 6.9968
 IR Inten    --     36.7832                28.2576                26.2177

                     25                     26                     27
                      A                      A                      A
 Frequencies --   3425.0050              3525.6009              3565.7564
 Red. masses --      1.0520                 1.0899                 1.0831
 Frc consts  --      7.2708                 7.9817                 8.1135
 IR Inten    --      4.6120                 0.5105                 1.6191

 - Thermochemistry -
 -------------------
 Temperature   298.150 Kelvin.  Pressure   1.00000 Atm.
 Atom     1 has atomic number  6 and mass  12.00000

 Molecular mass:    61.06400 amu.
 Principal axes and moments of inertia in atomic units:
                           1         2         3
     Eigenvalues --   195.57300 197.83706 349.35387
           X            0.97141   0.23623   0.02363
           Y           -0.23666   0.97143   0.01775
           Z           -0.01876  -0.02284   0.99956
 This molecule is an asymmetric top.
 Rotational symmetry number  1.
 Rotational temperatures (Kelvin)      0.44287     0.43780     0.24793
 Rotational constants (GHZ):           9.22797     9.12236     5.16594
 Zero-point vibrational energy     257593.3 (Joules/Mol)
                                   61.56627 (Kcal/Mol)
 Warning -- explicit consideration of   6 degrees of freedom as
           vibrations may cause significant error
 Vibrational temperatures:    218.92   416.98   467.95   620.73   672.03
          (Kelvin)            729.82  1179.27  1303.86  1482.89  1559.49
                             1621.47  1681.30  1782.45  1905.70  2002.08
                             2089.89  2148.55  2170.43  2356.92  2381.38
                             4284.56  4439.72  4494.34  4821.22  4927.81
                             5072.55  5130.32

 Zero-point correction=                           0.098112 (Hartree/Particle)
 Thermal correction to Energy=                    0.103435
 Thermal correction to Enthalpy=                  0.104379
 Thermal correction to Gibbs Free Energy=         0.070779
 Sum of electronic and zero-point Energies=           -206.406940
 Sum of electronic and thermal Energies=              -206.401617
 Sum of electronic and thermal Enthalpies=            -206.400673
 Sum of electronic and thermal Free Energies=         -206.434273

                     E (Thermal)             CV                S
                      KCal/Mol        Cal/Mol-Kelvin    Cal/Mol-Kelvin
 Total                   64.906             18.125             70.718
 Electronic               0.000              0.000              0.000
 Translational            0.889              2.981             38.248
 Rotational               0.889              2.981             24.117
 Vibrational             63.129             12.164              8.353
 Vibration     1          0.619              1.900              2.645
 Vibration     2          0.686              1.693              1.475
 Vibration     3          0.709              1.625              1.284
 Vibration     4          0.792              1.402              0.854
 Vibration     5          0.824              1.323              0.746
 Vibration     6          0.862              1.234              0.640

 Optimization completed.
    -- Stationary point found.
 Normal termination of Gaussian 09 at Mon Sep 27 01:15:40 2021.
