 Gaussian 09, Revision E.01,
 Gaussian 09:  ES64L-G09RevE.01 30-Nov-2015

 --------------------------------
 #P OPT=calcfc Freq B3LYP/6-31G**
 --------------------------------

 --------
 Frag_366
 --------
 Symbolic Z-matrix:
 Charge =  0 Multiplicity = 1

 SCF Done:  E(RB3LYP) =  -237.100644944     A.U. after   12 cycles
 SCF Done:  E(RB3LYP) =  -237.103265345     A.U. after   10 cycles
 SCF Done:  E(RB3LYP) =  -237.103304736     A.U. after    9 cycles
 Optimization completed.
    -- Stationary point found.
 Normal termination of Gaussian 09 at Fri Sep 10 20:43:35 2021.

 ----------------------------------------------------------------------
 #P Geom=AllCheck Guess=TCheck SCRF=Check GenChk RB3LYP/6-31G(d,p) Freq
 ----------------------------------------------------------------------

 Structure from the checkpoint file:  "/public/home/users/caep010/.cache/gau_scr/Gau-189043.chk"
 --------
 Frag_366
 --------
 Charge =  0 Multiplicity = 1

                         Standard orientation:
 ---------------------------------------------------------------------
 Center     Atomic      Atomic             Coordinates (Angstroms)
 Number     Number       Type             X           Y           Z
 ---------------------------------------------------------------------
      1          6           0       -2.193497    0.034237   -0.000003
      2          6           0       -0.878695    0.823234   -0.000069
      3          6           0        0.436526   -0.000607   -0.000000
      4          6           0        0.529116   -0.884963    1.258363
      5          6           0        0.529107   -0.885194   -1.258203
      6          6           0        1.617705    0.990040   -0.000094
      7          1           0       -3.047539    0.719586   -0.000041
      8          1           0       -2.289886   -0.603966    0.884053
      9          1           0       -2.289903   -0.604082   -0.883973
     10          1           0       -0.864701    1.485512   -0.876692
     11          1           0       -0.864701    1.485658    0.876443
     12          1           0       -0.260955   -1.642147    1.283531
     13          1           0        1.489376   -1.411884    1.292160
     14          1           0        0.447255   -0.283691    2.171379
     15          1           0        0.447256   -0.284084   -2.171326
     16          1           0        1.489360   -1.412133   -1.291903
     17          1           0       -0.260972   -1.642373   -1.283236
     18          1           0        2.577244    0.460574   -0.000045
     19          1           0        1.593295    1.636191   -0.885212
     20          1           0        1.593294    1.636358    0.884902
 ---------------------------------------------------------------------

 SCF Done:  E(RB3LYP) =  -237.103304736     A.U. after    1 cycles

 The electronic state is 1-A.
 Alpha  occ. eigenvalues --  -10.19095 -10.17439 -10.16969 -10.16704 -10.16703
 Alpha  occ. eigenvalues --  -10.16698  -0.81629  -0.73066  -0.67754  -0.67745
 Alpha  occ. eigenvalues --   -0.61748  -0.52166  -0.45163  -0.45042  -0.43013
 Alpha  occ. eigenvalues --   -0.41686  -0.39298  -0.37632  -0.37094  -0.35747
 Alpha  occ. eigenvalues --   -0.35199  -0.33823  -0.31074  -0.30925  -0.30303
 Alpha virt. eigenvalues --    0.07638   0.12415   0.13501   0.13733   0.14279
 Alpha virt. eigenvalues --    0.14628   0.16128   0.17641   0.17821   0.19659
 Alpha virt. eigenvalues --    0.20518   0.20847   0.22621   0.22627   0.24404

 Mulliken charges:
               1
     1  C   -0.326467
     2  C   -0.151338
     3  C    0.044847
     4  C   -0.300123
     5  C   -0.300123
     6  C   -0.298259
     7  H    0.099545
     8  H    0.104160
     9  H    0.104160
    10  H    0.084472
    11  H    0.084472
    12  H    0.097801
    13  H    0.094529
    14  H    0.094023
    15  H    0.094023
    16  H    0.094529
    17  H    0.097802
    18  H    0.093183
    19  H    0.094381
    20  H    0.094381
 Sum of Mulliken charges =  -0.00000

 Dipole moment (field-independent basis, Debye):
    X=             -0.0356    Y=              0.0121    Z=             -0.0000  Tot=              0.0376
 Quadrupole moment (field-independent basis, Debye-Ang):
   XX=            -41.7286   YY=            -41.6450   ZZ=            -41.5691
   XY=             -0.2408   XZ=              0.0000   YZ=              0.0000

  Exact polarizability:  69.774  -0.283  63.068   0.000   0.000  63.150
 Approx polarizability:  89.090  -0.826  87.902   0.000   0.000  88.236

                      1                      2                      3
                      A                      A                      A
 Frequencies --     96.2115               218.1744               254.0992
 Red. masses --      1.7092                 1.0295                 1.0865
 Frc consts  --      0.0093                 0.0289                 0.0413
 IR Inten    --      0.0061                 0.0114                 0.0002

                      4                      5                      6
                      A                      A                      A
 Frequencies --    258.2053               281.1057               291.7518
 Red. masses --      2.4524                 1.0555                 1.1177
 Frc consts  --      0.0963                 0.0491                 0.0561
 IR Inten    --      0.0242                 0.0672                 0.0009

                      7                      8                      9
                      A                      A                      A
 Frequencies --    335.8457               355.4255               408.2548
 Red. masses --      2.0703                 2.2423                 2.2367
 Frc consts  --      0.1376                 0.1669                 0.2196
 IR Inten    --      0.0125                 0.0139                 0.0264

                     10                     11                     12
                      A                      A                      A
 Frequencies --    420.3951               484.9753               709.6263
 Red. masses --      1.9974                 2.4129                 3.0912
 Frc consts  --      0.2080                 0.3344                 0.9171
 IR Inten    --      0.0203                 0.3757                 0.3060

                     13                     14                     15
                      A                      A                      A
 Frequencies --    789.7385               876.4378               936.1082
 Red. masses --      1.1841                 2.0281                 1.7534
 Frc consts  --      0.4351                 0.9178                 0.9053
 IR Inten    --      2.3958                 0.1656                 0.8478

                     16                     17                     18
                      A                      A                      A
 Frequencies --    938.9641               964.7959              1005.0365
 Red. masses --      1.7780                 1.2027                 1.2819
 Frc consts  --      0.9236                 0.6596                 0.7629
 IR Inten    --      0.1455                 0.0095                 0.6111

                     19                     20                     21
                      A                      A                      A
 Frequencies --   1017.1247              1030.7139              1101.0510
 Red. masses --      1.2942                 2.2882                 1.6802
 Frc consts  --      0.7888                 1.4323                 1.2001
 IR Inten    --      2.9569                 1.6391                 2.1435

                     22                     23                     24
                      A                      A                      A
 Frequencies --   1110.7326              1244.5563              1252.9918
 Red. masses --      1.4128                 2.3848                 2.0185
 Frc consts  --      1.0270                 2.1764                 1.8671
 IR Inten    --      0.3559                 8.7068                 1.9878

                     25                     26                     27
                      A                      A                      A
 Frequencies --   1280.9569              1342.1568              1380.9042
 Red. masses --      2.7304                 1.3310                 1.4464
 Frc consts  --      2.6397                 1.4127                 1.6251
 IR Inten    --      4.3810                 0.9396                 0.2659

                     28                     29                     30
                      A                      A                      A
 Frequencies --   1413.0498              1413.9337              1427.9628
 Red. masses --      1.2536                 1.2605                 1.2449
 Frc consts  --      1.4747                 1.4847                 1.4956
 IR Inten    --      5.6186                 3.7663                 4.4761

                     31                     32                     33
                      A                      A                      A
 Frequencies --   1444.6313              1494.3933              1495.3233
 Red. masses --      1.2247                 1.0670                 1.0478
 Frc consts  --      1.5059                 1.4039                 1.3804
 IR Inten    --      3.0402                 0.0589                 0.1411

                     34                     35                     36
                      A                      A                      A
 Frequencies --   1501.8874              1503.9486              1517.4640
 Red. masses --      1.0439                 1.0477                 1.0446
 Frc consts  --      1.3873                 1.3962                 1.4172
 IR Inten    --      0.1232                 0.0344                 7.9894

                     37                     38                     39
                      A                      A                      A
 Frequencies --   1523.2164              1526.1030              1528.9383
 Red. masses --      1.0720                 1.0498                 1.0549
 Frc consts  --      1.4655                 1.4405                 1.4529
 IR Inten    --      4.0516                 4.7723                 0.0008

                     40                     41                     42
                      A                      A                      A
 Frequencies --   1534.5380              3017.0404              3028.8477
 Red. masses --      1.0604                 1.0589                 1.0352
 Frc consts  --      1.4712                 5.6789                 5.5953
 IR Inten    --      8.9182                28.9055                34.7287

                     43                     44                     45
                      A                      A                      A
 Frequencies --   3032.3011              3039.8335              3048.5256
 Red. masses --      1.0353                 1.0373                 1.0363
 Frc consts  --      5.6088                 5.6474                 5.6744
 IR Inten    --     35.5390                13.4922                18.9665

                     46                     47                     48
                      A                      A                      A
 Frequencies --   3051.6982              3098.1107              3098.4468
 Red. masses --      1.1030                 1.1026                 1.1025
 Frc consts  --      6.0523                 6.2354                 6.2360
 IR Inten    --     20.2779                 0.2285                 0.2700

                     49                     50                     51
                      A                      A                      A
 Frequencies --   3101.3744              3105.4838              3108.9318
 Red. masses --      1.1023                 1.1014                 1.1018
 Frc consts  --      6.2467                 6.2582                 6.2742
 IR Inten    --     34.0808                60.2373                31.7489

                     52                     53                     54
                      A                      A                      A
 Frequencies --   3109.6873              3116.5075              3122.3243
 Red. masses --      1.1016                 1.1001                 1.1018
 Frc consts  --      6.2762                 6.2953                 6.3285
 IR Inten    --     70.8626                58.4834                35.6929

 - Thermochemistry -
 -------------------
 Temperature   298.150 Kelvin.  Pressure   1.00000 Atm.
 Atom     1 has atomic number  6 and mass  12.00000

 Molecular mass:    86.10955 amu.
 Principal axes and moments of inertia in atomic units:
                           1         2         3
     Eigenvalues --   423.25294 730.52301 733.17913
           X            0.99996   0.00927  -0.00000
           Y           -0.00927   0.99996   0.00001
           Z            0.00000  -0.00001   1.00000
 This molecule is an asymmetric top.
 Rotational symmetry number  1.
 Rotational temperatures (Kelvin)      0.20464     0.11856     0.11813
 Rotational constants (GHZ):           4.26398     2.47048     2.46153
 Zero-point vibrational energy     495199.2 (Joules/Mol)
                                  118.35545 (Kcal/Mol)
 Warning -- explicit consideration of  11 degrees of freedom as
           vibrations may cause significant error
 Vibrational temperatures:    138.43   313.90   365.59   371.50   404.45
          (Kelvin)            419.77   483.21   511.38   587.39   604.85
                              697.77  1020.99  1136.26  1261.00  1346.85
                             1350.96  1388.12  1446.02  1463.41  1482.97
                             1584.16  1598.09  1790.64  1802.77  1843.01
                             1931.06  1986.81  2033.06  2034.33  2054.52
                             2078.50  2150.10  2151.43  2160.88  2163.84
                             2183.29  2191.57  2195.72  2199.80  2207.86
                             4340.84  4357.83  4362.80  4373.64  4386.14
                             4390.71  4457.48  4457.97  4462.18  4468.09
                             4473.05  4474.14  4483.95  4492.32

 Zero-point correction=                           0.188611 (Hartree/Particle)
 Thermal correction to Energy=                    0.196772
 Thermal correction to Enthalpy=                  0.197716
 Thermal correction to Gibbs Free Energy=         0.157493
 Sum of electronic and zero-point Energies=           -236.914693
 Sum of electronic and thermal Energies=              -236.906533
 Sum of electronic and thermal Enthalpies=            -236.905589
 Sum of electronic and thermal Free Energies=         -236.945811

                     E (Thermal)             CV                S
                      KCal/Mol        Cal/Mol-Kelvin    Cal/Mol-Kelvin
 Total                  123.476             30.698             84.656
 Electronic               0.000              0.000              0.000
 Translational            0.889              2.981             39.272
 Rotational               0.889              2.981             26.919
 Vibrational            121.699             24.737             18.465
 Vibration     1          0.603              1.952              3.530
 Vibration     2          0.646              1.813              1.974
 Vibration     3          0.665              1.756              1.702
 Vibration     4          0.667              1.749              1.674
 Vibration     5          0.681              1.709              1.527
 Vibration     6          0.687              1.689              1.464
 Vibration     7          0.717              1.604              1.232
 Vibration     8          0.731              1.564              1.142
 Vibration     9          0.773              1.452              0.933
 Vibration    10          0.783              1.426              0.891
 Vibration    11          0.841              1.283              0.697

 Optimization completed.
    -- Stationary point found.
 Normal termination of Gaussian 09 at Fri Sep 10 20:43:53 2021.
