 Gaussian 09, Revision E.01,
 Gaussian 09:  ES64L-G09RevE.01 30-Nov-2015

 ----------------------------
 #P OPT Freq B3LYP/6-31G(d,p)
 ----------------------------

 ---------
 Frag_1111
 ---------
 Symbolic Z-matrix:
 Charge =  0 Multiplicity = 1

 SCF Done:  E(RB3LYP) =  -340.940181343     A.U. after   13 cycles
 SCF Done:  E(RB3LYP) =  -340.940241247     A.U. after   10 cycles
 SCF Done:  E(RB3LYP) =  -340.940235184     A.U. after   10 cycles
 SCF Done:  E(RB3LYP) =  -340.940256382     A.U. after    9 cycles
 SCF Done:  E(RB3LYP) =  -340.940257231     A.U. after    7 cycles
 SCF Done:  E(RB3LYP) =  -340.940257400     A.U. after    7 cycles
 Optimization completed.
    -- Stationary point found.
 Normal termination of Gaussian 09 at Thu Sep  8 14:45:46 2022.

 ----------------------------------------------------------------------
 #P Geom=AllCheck Guess=TCheck SCRF=Check GenChk RB3LYP/6-31G(d,p) Freq
 ----------------------------------------------------------------------

 Structure from the checkpoint file:  "B3LYP6-31Gdp.Frag_1111.chk"
 ---------
 Frag_1111
 ---------
 Charge =  0 Multiplicity = 1

                         Standard orientation:
 ---------------------------------------------------------------------
 Center     Atomic      Atomic             Coordinates (Angstroms)
 Number     Number       Type             X           Y           Z
 ---------------------------------------------------------------------
      1          6           0       -1.748608   -0.622821   -0.386413
      2          7           0       -0.603590    0.285072   -0.465134
      3          7           0       -0.671720    1.194118    0.697971
      4          6           0        0.665197   -0.442659   -0.299944
      5          8           0        0.833159   -1.006992    0.951893
      6          8           0        1.717837    0.474775   -0.527906
      7          1           0       -2.670195   -0.059504   -0.566630
      8          1           0       -1.821800   -1.134383    0.583759
      9          1           0       -1.654323   -1.371692   -1.177386
     10          1           0        0.011042    1.921249    0.483215
     11          1           0       -1.580823    1.649691    0.628768
     12          1           0        0.676352   -1.258705   -1.034954
     13          1           0        0.515837   -0.324610    1.572423
     14          1           0        1.543576    0.874237   -1.392808
 ---------------------------------------------------------------------

 SCF Done:  E(RB3LYP) =  -340.940257400     A.U. after    1 cycles

 The electronic state is 1-A.
 Alpha  occ. eigenvalues --  -19.14782 -19.13998 -14.35829 -14.35593 -10.30220
 Alpha  occ. eigenvalues --  -10.21030  -1.06931  -0.99229  -0.95824  -0.80421
 Alpha  occ. eigenvalues --   -0.68938  -0.61901  -0.53557  -0.52919  -0.48558
 Alpha  occ. eigenvalues --   -0.46109  -0.44173  -0.41715  -0.39141  -0.37675
 Alpha  occ. eigenvalues --   -0.35172  -0.31924  -0.29193  -0.28410  -0.21334
 Alpha virt. eigenvalues --    0.06632   0.09742   0.11597   0.12359   0.14489
 Alpha virt. eigenvalues --    0.14700   0.16216   0.18405   0.19425   0.21837
 Alpha virt. eigenvalues --    0.23387   0.27588   0.29510   0.52446   0.53440

 Mulliken charges:
               1
     1  C   -0.161283
     2  N   -0.364665
     3  N   -0.490911
     4  C    0.518151
     5  O   -0.525427
     6  O   -0.542188
     7  H    0.103115
     8  H    0.113306
     9  H    0.116451
    10  H    0.265177
    11  H    0.252763
    12  H    0.087474
    13  H    0.324725
    14  H    0.303312
 Sum of Mulliken charges =  -0.00000

 Dipole moment (field-independent basis, Debye):
    X=             -2.3654    Y=              1.7275    Z=             -1.4211  Tot=              3.2556
 Quadrupole moment (field-independent basis, Debye-Ang):
   XX=            -37.9784   YY=            -34.0249   ZZ=            -35.1218
   XY=              0.7482   XZ=             -2.3852   YZ=              1.8472

  Exact polarizability:  46.539   0.880  44.998  -1.180   2.283  40.250
 Approx polarizability:  60.291   0.466  62.313  -1.183   2.332  57.743

                      1                      2                      3
                      A                      A                      A
 Frequencies --    135.3648               204.2324               240.3257
 Red. masses --      2.7354                 1.1773                 1.4120
 Frc consts  --      0.0295                 0.0289                 0.0480
 IR Inten    --     29.0048                14.2205                 0.0071

                      4                      5                      6
                      A                      A                      A
 Frequencies --    288.7839               309.7890               375.2455
 Red. masses --      1.7011                 4.2603                 1.4306
 Frc consts  --      0.0836                 0.2409                 0.1187
 IR Inten    --      1.7258                 7.6046                54.1503

                      7                      8                      9
                      A                      A                      A
 Frequencies --    413.1730               495.3684               554.5908
 Red. masses --      2.0711                 2.3281                 1.8545
 Frc consts  --      0.2083                 0.3366                 0.3361
 IR Inten    --     34.9075                25.9234               104.5081

                     10                     11                     12
                      A                      A                      A
 Frequencies --    601.9675               702.8669               821.9774
 Red. masses --      2.5950                 4.1225                 4.7850
 Frc consts  --      0.5540                 1.1999                 1.9048
 IR Inten    --     45.1573                44.4770                27.0825

                     13                     14                     15
                      A                      A                      A
 Frequencies --    961.7764              1041.7658              1084.6524
 Red. masses --      2.6846                 3.1782                 2.7156
 Frc consts  --      1.4631                 2.0322                 1.8823
 IR Inten    --     30.6133                76.1994                14.4211

                     16                     17                     18
                      A                      A                      A
 Frequencies --   1108.3528              1119.0406              1161.0816
 Red. masses --      4.5657                 1.2398                 1.4876
 Frc consts  --      3.3046                 0.9148                 1.1816
 IR Inten    --    292.5414                30.5786                20.2590

                     19                     20                     21
                      A                      A                      A
 Frequencies --   1205.7829              1260.2915              1347.9777
 Red. masses --      1.5194                 1.2953                 1.3698
 Frc consts  --      1.3016                 1.2121                 1.4665
 IR Inten    --     33.3784                93.2681                19.3092

                     22                     23                     24
                      A                      A                      A
 Frequencies --   1401.9180              1412.6916              1449.3154
 Red. masses --      1.3729                 1.5712                 1.1814
 Frc consts  --      1.5897                 1.8475                 1.4621
 IR Inten    --     18.5549                24.6199                51.8575

                     25                     26                     27
                      A                      A                      A
 Frequencies --   1474.3023              1496.6284              1521.3025
 Red. masses --      1.2236                 1.0454                 1.0576
 Frc consts  --      1.5670                 1.3796                 1.4421
 IR Inten    --     73.1416                12.7642                 8.9554

                     28                     29                     30
                      A                      A                      A
 Frequencies --   1641.1587              3013.1982              3044.5947
 Red. masses --      1.0711                 1.0412                 1.0869
 Frc consts  --      1.6997                 5.5698                 5.9361
 IR Inten    --     47.6771                41.1641                59.0609

                     31                     32                     33
                      A                      A                      A
 Frequencies --   3089.3739              3128.7126              3462.0820
 Red. masses --      1.0966                 1.1010                 1.0501
 Frc consts  --      6.1667                 6.3500                 7.4159
 IR Inten    --     32.7552                23.1941                 1.1902

                     34                     35                     36
                      A                      A                      A
 Frequencies --   3551.7997              3676.6719              3792.7115
 Red. masses --      1.0928                 1.0637                 1.0649
 Frc consts  --      8.1225                 8.4717                 9.0254
 IR Inten    --      1.8975                68.0590                17.5032

 - Thermochemistry -
 -------------------
 Temperature   298.150 Kelvin.  Pressure   1.00000 Atm.
 Atom     1 has atomic number  6 and mass  12.00000

 Molecular mass:    92.05858 amu.
 Principal axes and moments of inertia in atomic units:
                           1         2         3
     Eigenvalues --   356.68851 607.28462 681.26118
           X            0.99947   0.03225  -0.00338
           Y           -0.03161   0.99220   0.12059
           Z            0.00724  -0.12042   0.99270
 This molecule is an asymmetric top.
 Rotational symmetry number  1.
 Rotational temperatures (Kelvin)      0.24283     0.14262     0.12714
 Rotational constants (GHZ):           5.05971     2.97182     2.64912
 Zero-point vibrational energy     314563.2 (Joules/Mol)
                                   75.18242 (Kcal/Mol)
 Warning -- explicit consideration of  10 degrees of freedom as
           vibrations may cause significant error
 Vibrational temperatures:    194.76   293.84   345.77   415.50   445.72
          (Kelvin)            539.89   594.46   712.72   797.93   866.10
                             1011.27  1182.64  1383.78  1498.87  1560.57
                             1594.67  1610.05  1670.54  1734.85  1813.28
                             1939.44  2017.04  2032.55  2085.24  2121.19
                             2153.31  2188.81  2361.26  4335.31  4380.49
                             4444.91  4501.51  4981.16  5110.24  5289.90
                             5456.86

 Zero-point correction=                           0.119811 (Hartree/Particle)
 Thermal correction to Energy=                    0.126841
 Thermal correction to Enthalpy=                  0.127786
 Thermal correction to Gibbs Free Energy=         0.089634
 Sum of electronic and zero-point Energies=           -340.820447
 Sum of electronic and thermal Energies=              -340.813416
 Sum of electronic and thermal Enthalpies=            -340.812472
 Sum of electronic and thermal Free Energies=         -340.850623

                     E (Thermal)             CV                S
                      KCal/Mol        Cal/Mol-Kelvin    Cal/Mol-Kelvin
 Total                   79.594             25.545             80.297
 Electronic               0.000              0.000              0.000
 Translational            0.889              2.981             39.471
 Rotational               0.889              2.981             26.492
 Vibrational             77.817             19.583             14.333
 Vibration     1          0.613              1.918              2.868
 Vibration     2          0.640              1.834              2.095
 Vibration     3          0.657              1.779              1.800
 Vibration     4          0.685              1.695              1.481
 Vibration     5          0.699              1.655              1.363
 Vibration     6          0.746              1.523              1.058
 Vibration     7          0.777              1.442              0.915
 Vibration     8          0.851              1.260              0.670
 Vibration     9          0.910              1.130              0.535
 Vibration    10          0.960              1.028              0.446

 Optimization completed.
    -- Stationary point found.
 Normal termination of Gaussian 09 at Thu Sep  8 14:45:58 2022.
