 Gaussian 09, Revision E.01,
 Gaussian 09:  ES64L-G09RevE.01 30-Nov-2015

 ----------------------------
 #P OPT Freq B3LYP/6-31G(d,p)
 ----------------------------

 --------
 Frag_510
 --------
 Symbolic Z-matrix:
 Charge =  0 Multiplicity = 1

 SCF Done:  E(RB3LYP) =  -248.506919495     A.U. after   13 cycles
 SCF Done:  E(RB3LYP) =  -248.506974422     A.U. after   10 cycles
 SCF Done:  E(RB3LYP) =  -248.506977620     A.U. after    8 cycles
 Optimization completed.
    -- Stationary point found.
 Normal termination of Gaussian 09 at Thu Sep  8 15:10:01 2022.

 ----------------------------------------------------------------------
 #P Geom=AllCheck Guess=TCheck SCRF=Check GenChk RB3LYP/6-31G(d,p) Freq
 ----------------------------------------------------------------------

 Structure from the checkpoint file:  "B3LYP6-31Gdp.Frag_510.chk"
 --------
 Frag_510
 --------
 Charge =  0 Multiplicity = 1

                         Standard orientation:
 ---------------------------------------------------------------------
 Center     Atomic      Atomic             Coordinates (Angstroms)
 Number     Number       Type             X           Y           Z
 ---------------------------------------------------------------------
      1          6           0        1.944981   -0.144772   -0.000057
      2          7           0        0.633987   -0.784533   -0.000039
      3          6           0       -0.390279   -0.040930   -0.000024
      4          6           0       -1.787328   -0.601600    0.000022
      5          8           0       -0.292591    1.331648    0.000117
      6          1           0        2.718023   -0.917107   -0.004040
      7          1           0        2.092459    0.489165    0.884027
      8          1           0        2.089776    0.495995   -0.879639
      9          1           0       -2.342585   -0.269046    0.885860
     10          1           0       -2.342750   -0.268825   -0.885639
     11          1           0       -1.739679   -1.689579   -0.000140
     12          1           0       -1.176674    1.721754   -0.000736
 ---------------------------------------------------------------------

 SCF Done:  E(RB3LYP) =  -248.506977620     A.U. after    1 cycles

 The electronic state is 1-A.
 Alpha  occ. eigenvalues --  -19.18302 -14.30058 -10.27195 -10.19615 -10.18960
 Alpha  occ. eigenvalues --   -1.06570  -0.89285  -0.74863  -0.66978  -0.58365
 Alpha  occ. eigenvalues --   -0.49804  -0.46683  -0.45190  -0.41571  -0.40711
 Alpha  occ. eigenvalues --   -0.37793  -0.36191  -0.35538  -0.25097  -0.24458
 Alpha virt. eigenvalues --    0.03077   0.05861   0.12360   0.14143   0.16260
 Alpha virt. eigenvalues --    0.16628   0.18416   0.20311   0.21061   0.22400
 Alpha virt. eigenvalues --    0.30059   0.43292   0.52136   0.53684   0.55600

 Mulliken charges:
               1
     1  C   -0.180286
     2  N   -0.441793
     3  C    0.488738
     4  C   -0.391100
     5  O   -0.513822
     6  H    0.105156
     7  H    0.109912
     8  H    0.109866
     9  H    0.121567
    10  H    0.121515
    11  H    0.152992
    12  H    0.317255
 Sum of Mulliken charges =  -0.00000

 Dipole moment (field-independent basis, Debye):
    X=             -2.2612    Y=              1.5274    Z=             -0.0008  Tot=              2.7288
 Quadrupole moment (field-independent basis, Debye-Ang):
   XX=            -25.4458   YY=            -31.9451   ZZ=            -30.9225
   XY=             -1.4986   XZ=              0.0027   YZ=             -0.0025

  Exact polarizability:  57.887  -4.342  40.975   0.005  -0.001  30.379
 Approx polarizability:  73.329 -11.938  62.425   0.010  -0.003  42.135

                      1                      2                      3
                      A                      A                      A
 Frequencies --     32.1501               165.7598               252.6883
 Red. masses --      1.0448                 1.1356                 2.2106
 Frc consts  --      0.0006                 0.0184                 0.0832
 IR Inten    --      0.9253                 0.8652                19.5844

                      4                      5                      6
                      A                      A                      A
 Frequencies --    263.1310               373.9734               408.1079
 Red. masses --      3.1388                 1.1982                 2.6352
 Frc consts  --      0.1280                 0.0987                 0.2586
 IR Inten    --      9.5555                98.3933                 2.2019

                      7                      8                      9
                      A                      A                      A
 Frequencies --    604.8764               612.9367               851.3119
 Red. masses --      3.7025                 3.0264                 5.0241
 Frc consts  --      0.7981                 0.6699                 2.1453
 IR Inten    --      0.6067                 0.0066                19.6023

                     10                     11                     12
                      A                      A                      A
 Frequencies --    979.1739              1058.3277              1064.0859
 Red. masses --      1.8804                 1.5664                 2.6067
 Frc consts  --      1.0623                 1.0337                 1.7390
 IR Inten    --     21.5369                 2.9561                18.9436

                     13                     14                     15
                      A                      A                      A
 Frequencies --   1117.3821              1156.8594              1232.1445
 Red. masses --      1.3530                 1.3160                 2.0595
 Frc consts  --      0.9953                 1.0377                 1.8422
 IR Inten    --      0.0725                28.9340                 6.4126

                     16                     17                     18
                      A                      A                      A
 Frequencies --   1313.3053              1415.2136              1450.5967
 Red. masses --      2.2401                 1.3714                 1.1660
 Frc consts  --      2.2764                 1.6183                 1.4456
 IR Inten    --    249.2949                21.4295                20.7015

                     19                     20                     21
                      A                      A                      A
 Frequencies --   1492.6739              1499.2869              1500.8383
 Red. masses --      1.0558                 1.0443                 1.0572
 Frc consts  --      1.3860                 1.3830                 1.4031
 IR Inten    --      1.2880                 7.7595                 6.1253

                     22                     23                     24
                      A                      A                      A
 Frequencies --   1514.3729              1805.5901              3017.3343
 Red. masses --      1.0443                 8.0017                 1.0363
 Frc consts  --      1.4110                15.3699                 5.5590
 IR Inten    --      4.3876               194.1781                50.2103

                     25                     26                     27
                      A                      A                      A
 Frequencies --   3034.9402              3071.4653              3089.4211
 Red. masses --      1.0408                 1.1020                 1.1008
 Frc consts  --      5.6482                 6.1251                 6.1905
 IR Inten    --     19.2936                37.1734                17.7810

                     28                     29                     30
                      A                      A                      A
 Frequencies --   3118.1016              3178.3871              3816.9665
 Red. masses --      1.1008                 1.0978                 1.0664
 Frc consts  --      6.3056                 6.5339                 9.1542
 IR Inten    --     39.1051                 4.1226                36.8415

 - Thermochemistry -
 -------------------
 Temperature   298.150 Kelvin.  Pressure   1.00000 Atm.
 Atom     1 has atomic number  6 and mass  12.00000

 Molecular mass:    73.05276 amu.
 Principal axes and moments of inertia in atomic units:
                           1         2         3
     Eigenvalues --   185.87709 455.32635 618.71403
           X            0.99974   0.02294   0.00001
           Y           -0.02294   0.99974  -0.00003
           Z           -0.00001   0.00003   1.00000
 This molecule is an asymmetric top.
 Rotational symmetry number  1.
 Rotational temperatures (Kelvin)      0.46597     0.19022     0.13999
 Rotational constants (GHZ):           9.70933     3.96362     2.91692
 Zero-point vibrational energy     266117.7 (Joules/Mol)
                                   63.60365 (Kcal/Mol)
 Warning -- explicit consideration of   8 degrees of freedom as
           vibrations may cause significant error
 Vibrational temperatures:     46.26   238.49   363.56   378.59   538.06
          (Kelvin)            587.18   870.28   881.88  1224.85  1408.81
                             1522.70  1530.98  1607.66  1664.46  1772.78
                             1889.55  2036.17  2087.08  2147.62  2157.14
                             2159.37  2178.84  2597.84  4341.27  4366.60
                             4419.15  4444.98  4486.25  4572.98  5491.76

 Zero-point correction=                           0.101359 (Hartree/Particle)
 Thermal correction to Energy=                    0.107844
 Thermal correction to Enthalpy=                  0.108788
 Thermal correction to Gibbs Free Energy=         0.071107
 Sum of electronic and zero-point Energies=           -248.405619
 Sum of electronic and thermal Energies=              -248.399133
 Sum of electronic and thermal Enthalpies=            -248.398189
 Sum of electronic and thermal Free Energies=         -248.435870

                     E (Thermal)             CV                S
                      KCal/Mol        Cal/Mol-Kelvin    Cal/Mol-Kelvin
 Total                   67.673             21.272             79.307
 Electronic               0.000              0.000              0.000
 Translational            0.889              2.981             38.782
 Rotational               0.889              2.981             25.463
 Vibrational             65.896             15.310             15.062
 Vibration     1          0.594              1.983              5.692
 Vibration     2          0.624              1.885              2.483
 Vibration     3          0.664              1.758              1.712
 Vibration     4          0.670              1.740              1.641
 Vibration     5          0.745              1.526              1.063
 Vibration     6          0.773              1.453              0.933
 Vibration     7          0.963              1.021              0.441
 Vibration     8          0.972              1.004              0.428

 Normal termination of Gaussian 09 at Thu Sep  8 15:10:09 2022.
