 Gaussian 09, Revision E.01,
 Gaussian 09:  ES64L-G09RevE.01 30-Nov-2015

 --------------------------------
 #P OPT=calcfc Freq B3LYP/6-31G**
 --------------------------------

 --------
 Frag_337
 --------
 Symbolic Z-matrix:
 Charge =  0 Multiplicity = 1

 SCF Done:  E(RB3LYP) =  -267.923002203     A.U. after   12 cycles
 SCF Done:  E(RB3LYP) =  -267.926259899     A.U. after   13 cycles
 SCF Done:  E(RB3LYP) =  -267.940957037     A.U. after   13 cycles
 SCF Done:  E(RB3LYP) =  -267.904070529     A.U. after   13 cycles
 SCF Done:  E(RB3LYP) =  -267.941331006     A.U. after    9 cycles
 SCF Done:  E(RB3LYP) =  -267.939195527     A.U. after   12 cycles
 SCF Done:  E(RB3LYP) =  -267.941556761     A.U. after    9 cycles
 SCF Done:  E(RB3LYP) =  -267.942030879     A.U. after   14 cycles
 SCF Done:  E(RB3LYP) =  -267.942746658     A.U. after   13 cycles
 SCF Done:  E(RB3LYP) =  -267.943745164     A.U. after   12 cycles
 SCF Done:  E(RB3LYP) =  -267.944357116     A.U. after    7 cycles
 SCF Done:  E(RB3LYP) =  -267.944357832     A.U. after    8 cycles
 SCF Done:  E(RB3LYP) =  -267.944359104     A.U. after    9 cycles
 SCF Done:  E(RB3LYP) =  -267.944359208     A.U. after    9 cycles
 SCF Done:  E(RB3LYP) =  -267.944360422     A.U. after    8 cycles
 SCF Done:  E(RB3LYP) =  -267.944362437     A.U. after   10 cycles
 SCF Done:  E(RB3LYP) =  -267.944361972     A.U. after    9 cycles
 SCF Done:  E(RB3LYP) =  -267.944361870     A.U. after   10 cycles
 SCF Done:  E(RB3LYP) =  -267.944362453     A.U. after    9 cycles
 Optimization completed on the basis of negligible forces.
    -- Stationary point found.
 Normal termination of Gaussian 09 at Fri Sep 10 21:02:27 2021.

 ----------------------------------------------------------------------
 #P Geom=AllCheck Guess=TCheck SCRF=Check GenChk RB3LYP/6-31G(d,p) Freq
 ----------------------------------------------------------------------

 Structure from the checkpoint file:  "/public/home/users/caep010/.cache/gau_scr/Gau-2138.chk"
 --------
 Frag_337
 --------
 Charge =  0 Multiplicity = 1

                         Standard orientation:
 ---------------------------------------------------------------------
 Center     Atomic      Atomic             Coordinates (Angstroms)
 Number     Number       Type             X           Y           Z
 ---------------------------------------------------------------------
      1          6           0       -1.691140    1.009370   -0.012397
      2          6           0       -0.668675   -0.098766   -0.014929
      3          7           0       -1.280380   -1.381907   -0.102993
      4          6           0        0.668676    0.098766    0.014945
      5          6           0        1.691139   -1.009370    0.012367
      6          7           0        1.280383    1.381904    0.103017
      7          1           0       -2.144267    1.150590    0.979338
      8          1           0       -1.279101    1.975002   -0.317501
      9          1           0       -2.500025    0.763830   -0.708953
     10          1           0       -2.021498   -1.493236    0.585145
     11          1           0       -0.626146   -2.147264    0.006940
     12          1           0        2.144234   -1.150571   -0.979387
     13          1           0        1.279106   -1.975012    0.317449
     14          1           0        2.500054   -0.763842    0.708890
     15          1           0        2.021472    1.493259   -0.585150
     16          1           0        0.626156    2.147272   -0.006859
 ---------------------------------------------------------------------

 SCF Done:  E(RB3LYP) =  -267.944362453     A.U. after    1 cycles

 The electronic state is 1-A.
 Alpha  occ. eigenvalues --  -14.31723 -14.31723 -10.19428 -10.19352 -10.17667
 Alpha  occ. eigenvalues --  -10.17667  -0.89915  -0.87254  -0.73318  -0.72225
 Alpha  occ. eigenvalues --   -0.63394  -0.52792  -0.51074  -0.48365  -0.43076
 Alpha  occ. eigenvalues --   -0.42080  -0.41211  -0.39715  -0.38762  -0.36472
 Alpha  occ. eigenvalues --   -0.34287  -0.30450  -0.26726  -0.16316
 Alpha virt. eigenvalues --    0.06247   0.07154   0.10441   0.11719   0.14523
 Alpha virt. eigenvalues --    0.14670   0.16167   0.18478   0.18811   0.21299
 Alpha virt. eigenvalues --    0.24275   0.25822   0.26177   0.28014   0.39037

 Mulliken charges:
               1
     1  C   -0.373635
     2  C    0.205606
     3  N   -0.640169
     4  C    0.205606
     5  C   -0.373635
     6  N   -0.640171
     7  H    0.112126
     8  H    0.093366
     9  H    0.123974
    10  H    0.239719
    11  H    0.239016
    12  H    0.112127
    13  H    0.093366
    14  H    0.123973
    15  H    0.239718
    16  H    0.239016
 Sum of Mulliken charges =  -0.00000

 Dipole moment (field-independent basis, Debye):
    X=             -0.0000    Y=              0.0000    Z=              0.0000  Tot=              0.0001
 Quadrupole moment (field-independent basis, Debye-Ang):
   XX=            -36.6108   YY=            -33.7992   ZZ=            -40.1793
   XY=             -0.6980   XZ=             -4.9296   YZ=             -4.0587

  Exact polarizability:  80.669   2.947  60.268  -3.043  -0.732  37.996
 Approx polarizability: 118.342  11.285  81.266  -2.688   0.536  54.396

                      1                      2                      3
                      A                      A                      A
 Frequencies --     62.6020                92.0728               130.9013
 Red. masses --      1.1206                 1.0683                 1.7810
 Frc consts  --      0.0026                 0.0053                 0.0180
 IR Inten    --      3.8101                 0.0000                12.5801

                      4                      5                      6
                      A                      A                      A
 Frequencies --    252.5880               257.3952               315.2916
 Red. masses --      1.2090                 1.0394                 2.6786
 Frc consts  --      0.0454                 0.0406                 0.1569
 IR Inten    --    108.8717                 0.0008                 0.9557

                      7                      8                      9
                      A                      A                      A
 Frequencies --    341.0809               411.6699               456.7301
 Red. masses --      2.8719                 2.6819                 2.4729
 Frc consts  --      0.1969                 0.2678                 0.3039
 IR Inten    --     29.8404                 0.0000                17.5970

                     10                     11                     12
                      A                      A                      A
 Frequencies --    522.0353               539.3823               723.4248
 Red. masses --      3.4619                 2.8017                 4.1084
 Frc consts  --      0.5559                 0.4802                 1.2668
 IR Inten    --      0.0000                 0.0000                 0.0000

                     13                     14                     15
                      A                      A                      A
 Frequencies --    783.3912               793.4285               930.5176
 Red. masses --      1.4271                 1.3458                 2.2555
 Frc consts  --      0.5160                 0.4992                 1.1506
 IR Inten    --    510.8944                 0.0000                 2.8180

                     16                     17                     18
                      A                      A                      A
 Frequencies --   1005.6161              1041.8992              1046.7121
 Red. masses --      1.3563                 1.3602                 1.4781
 Frc consts  --      0.8081                 0.8699                 0.9541
 IR Inten    --      0.0000                 1.7287                 0.0000

                     19                     20                     21
                      A                      A                      A
 Frequencies --   1075.6354              1139.3927              1234.8251
 Red. masses --      1.4833                 1.3497                 4.3140
 Frc consts  --      1.0111                 1.0324                 3.8756
 IR Inten    --      6.3641                 0.0000                79.0861

                     22                     23                     24
                      A                      A                      A
 Frequencies --   1299.4121              1340.7925              1420.9463
 Red. masses --      1.6844                 2.6825                 1.2530
 Frc consts  --      1.6757                 2.8413                 1.4906
 IR Inten    --     26.3564                 0.0000                 5.7868

                     25                     26                     27
                      A                      A                      A
 Frequencies --   1439.1249              1489.2898              1490.7535
 Red. masses --      1.4869                 1.0402                 1.0539
 Frc consts  --      1.8143                 1.3594                 1.3799
 IR Inten    --      0.0000                 8.6550                 0.0000

                     28                     29                     30
                      A                      A                      A
 Frequencies --   1509.4336              1516.7353              1655.2773
 Red. masses --      1.0721                 1.0516                 1.1185
 Frc consts  --      1.4391                 1.4254                 1.8056
 IR Inten    --      0.0000                 8.4535                 0.0001

                     31                     32                     33
                      A                      A                      A
 Frequencies --   1656.4231              1763.9878              3016.3306
 Red. masses --      1.1184                 6.0883                 1.0460
 Frc consts  --      1.8079                11.1618                 5.6073
 IR Inten    --     75.4472                 0.0000                99.7321

                     34                     35                     36
                      A                      A                      A
 Frequencies --   3018.4786              3079.3807              3080.4868
 Red. masses --      1.0472                 1.0904                 1.0893
 Frc consts  --      5.6214                 6.0921                 6.0901
 IR Inten    --      0.0006                55.9200                 0.0001

                     37                     38                     39
                      A                      A                      A
 Frequencies --   3116.7557              3117.8445              3491.2471
 Red. masses --      1.1005                 1.1002                 1.0532
 Frc consts  --      6.2988                 6.3015                 7.5635
 IR Inten    --      0.0010                52.9012                 0.0419

                     40                     41                     42
                      A                      A                      A
 Frequencies --   3491.3019              3616.4193              3616.8885
 Red. masses --      1.0529                 1.0892                 1.0891
 Frc consts  --      7.5614                 8.3931                 8.3946
 IR Inten    --      8.6903                 0.2726                 0.0001

 - Thermochemistry -
 -------------------
 Temperature   298.150 Kelvin.  Pressure   1.00000 Atm.
 Atom     1 has atomic number  6 and mass  12.00000

 Molecular mass:    86.08440 amu.
 Principal axes and moments of inertia in atomic units:
                           1         2         3
     Eigenvalues --   383.24659 585.81631 939.90138
           X            0.99584  -0.09009  -0.01358
           Y            0.08984   0.99580  -0.01785
           Z            0.01513   0.01656   0.99975
 This molecule is an asymmetric top.
 Rotational symmetry number  1.
 Rotational temperatures (Kelvin)      0.22600     0.14785     0.09215
 Rotational constants (GHZ):           4.70909     3.08073     1.92014
 Zero-point vibrational energy     373138.6 (Joules/Mol)
                                   89.18226 (Kcal/Mol)
 Warning -- explicit consideration of  11 degrees of freedom as
           vibrations may cause significant error
 Vibrational temperatures:     90.07   132.47   188.34   363.42   370.33
          (Kelvin)            453.63   490.74   592.30   657.13   751.09
                              776.05  1040.85  1127.12  1141.57  1338.81
                             1446.86  1499.06  1505.98  1547.60  1639.33
                             1776.64  1869.56  1929.10  2044.42  2070.58
                             2142.75  2144.86  2171.74  2182.24  2381.57
                             2383.22  2537.98  4339.82  4342.91  4430.54
                             4432.13  4484.31  4485.88  5023.12  5023.20
                             5203.21  5203.89

 Zero-point correction=                           0.142121 (Hartree/Particle)
 Thermal correction to Energy=                    0.150419
 Thermal correction to Enthalpy=                  0.151363
 Thermal correction to Gibbs Free Energy=         0.109917
 Sum of electronic and zero-point Energies=           -267.802241
 Sum of electronic and thermal Energies=              -267.793943
 Sum of electronic and thermal Enthalpies=            -267.792999
 Sum of electronic and thermal Free Energies=         -267.834445

                     E (Thermal)             CV                S
                      KCal/Mol        Cal/Mol-Kelvin    Cal/Mol-Kelvin
 Total                   94.389             28.946             87.230
 Electronic               0.000              0.000              0.000
 Translational            0.889              2.981             39.271
 Rotational               0.889              2.981             26.848
 Vibrational             92.612             22.985             21.111
 Vibration     1          0.597              1.972              4.373
 Vibration     2          0.602              1.955              3.616
 Vibration     3          0.612              1.922              2.933
 Vibration     4          0.664              1.758              1.712
 Vibration     5          0.667              1.750              1.679
 Vibration     6          0.703              1.644              1.334
 Vibration     7          0.721              1.593              1.207
 Vibration     8          0.776              1.445              0.921
 Vibration     9          0.815              1.346              0.776
 Vibration    10          0.877              1.201              0.605
 Vibration    11          0.894              1.163              0.567

 Optimization completed.
    -- Stationary point found.
 Normal termination of Gaussian 09 at Fri Sep 10 21:02:40 2021.
