 Gaussian 09, Revision E.01,
 Gaussian 09:  ES64L-G09RevE.01 30-Nov-2015

 ----------------------------
 #P OPT Freq B3LYP/6-31G(d,p)
 ----------------------------

 --------
 Frag_538
 --------
 Symbolic Z-matrix:
 Charge =  0 Multiplicity = 1

 SCF Done:  E(RB3LYP) =  -253.133364892     A.U. after   12 cycles
 SCF Done:  E(RB3LYP) =  -253.133375268     A.U. after    8 cycles
 SCF Done:  E(RB3LYP) =  -253.133376124     A.U. after    7 cycles
 SCF Done:  E(RB3LYP) =  -253.133376363     A.U. after    7 cycles
 Optimization completed.
    -- Stationary point found.
 Normal termination of Gaussian 09 at Thu Sep  8 14:55:28 2022.

 ----------------------------------------------------------------------
 #P Geom=AllCheck Guess=TCheck SCRF=Check GenChk RB3LYP/6-31G(d,p) Freq
 ----------------------------------------------------------------------

 Structure from the checkpoint file:  "B3LYP6-31Gdp.Frag_538.chk"
 --------
 Frag_538
 --------
 Charge =  0 Multiplicity = 1

                         Standard orientation:
 ---------------------------------------------------------------------
 Center     Atomic      Atomic             Coordinates (Angstroms)
 Number     Number       Type             X           Y           Z
 ---------------------------------------------------------------------
      1          6           0       -1.607427   -0.658411   -0.726675
      2          6           0       -0.425175    0.000915    0.006070
      3          6           0       -0.529256   -0.272771    1.516825
      4          6           0       -0.449447    1.520220   -0.248947
      5          6           0        0.885934   -0.606647   -0.549336
      6          7           0        2.086422   -0.026445    0.065346
      7          1           0       -2.562726   -0.271210   -0.355644
      8          1           0       -1.609669   -1.744625   -0.578092
      9          1           0       -1.567870   -0.468062   -1.805655
     10          1           0       -0.593078   -1.349071    1.716095
     11          1           0        0.350965    0.113131    2.036812
     12          1           0       -1.423921    0.197751    1.940181
     13          1           0       -0.342366    1.747779   -1.316833
     14          1           0       -1.396114    1.956326    0.088503
     15          1           0        0.355422    2.027704    0.292900
     16          1           0        0.870277   -0.515703   -1.650883
     17          1           0        0.887824   -1.680993   -0.327085
     18          1           0        2.893483   -0.609421   -0.138899
     19          1           0        2.285043    0.881675   -0.346448
 ---------------------------------------------------------------------

 SCF Done:  E(RB3LYP) =  -253.133376363     A.U. after    1 cycles

 The electronic state is 1-A.
 Alpha  occ. eigenvalues --  -14.30854 -10.19919 -10.18703 -10.16675 -10.16672
 Alpha  occ. eigenvalues --  -10.15706  -0.87618  -0.79585  -0.67782  -0.67129
 Alpha  occ. eigenvalues --   -0.64909  -0.52440  -0.48285  -0.45407  -0.43954
 Alpha  occ. eigenvalues --   -0.42391  -0.40610  -0.38273  -0.36910  -0.35555
 Alpha  occ. eigenvalues --   -0.35307  -0.31643  -0.31337  -0.30979  -0.22990
 Alpha virt. eigenvalues --    0.07355   0.10432   0.12986   0.14170   0.14537
 Alpha virt. eigenvalues --    0.16120   0.16758   0.17600   0.18933   0.19801
 Alpha virt. eigenvalues --    0.20581   0.22221   0.22650   0.23409   0.25193

 Mulliken charges:
               1
     1  C   -0.301367
     2  C    0.051487
     3  C   -0.296213
     4  C   -0.312250
     5  C   -0.039764
     6  N   -0.605315
     7  H    0.096683
     8  H    0.094073
     9  H    0.092311
    10  H    0.086479
    11  H    0.123301
    12  H    0.087027
    13  H    0.088714
    14  H    0.098221
    15  H    0.103761
    16  H    0.067440
    17  H    0.090906
    18  H    0.237149
    19  H    0.237356
 Sum of Mulliken charges =  -0.00000

 Dipole moment (field-independent basis, Debye):
    X=              0.5641    Y=             -0.0380    Z=             -1.2067  Tot=              1.3326
 Quadrupole moment (field-independent basis, Debye-Ang):
   XX=            -37.8201   YY=            -39.4736   ZZ=            -42.0647
   XY=             -0.3691   XZ=             -2.8662   YZ=             -0.2139

  Exact polarizability:  65.782  -0.049  60.679   0.009  -0.234  58.526
 Approx polarizability:  85.299  -0.290  84.161   0.410  -0.359  80.559

                      1                      2                      3
                      A                      A                      A
 Frequencies --    130.5811               215.0690               238.0347
 Red. masses --      2.2710                 1.0318                 1.1743
 Frc consts  --      0.0228                 0.0281                 0.0392
 IR Inten    --      3.5874                25.7851                17.4952

                      4                      5                      6
                      A                      A                      A
 Frequencies --    253.7493               273.6733               295.0166
 Red. masses --      1.9883                 1.1130                 1.0429
 Frc consts  --      0.0754                 0.0491                 0.0535
 IR Inten    --      1.5352                 0.1165                 8.0658

                      7                      8                      9
                      A                      A                      A
 Frequencies --    330.8430               352.0715               403.7711
 Red. masses --      2.0758                 2.3947                 2.2161
 Frc consts  --      0.1339                 0.1749                 0.2129
 IR Inten    --      0.3391                 1.0645                 0.0418

                     10                     11                     12
                      A                      A                      A
 Frequencies --    416.3937               519.3299               727.5081
 Red. masses --      2.0497                 2.8451                 3.0557
 Frc consts  --      0.2094                 0.4521                 0.9529
 IR Inten    --      1.0249                 7.4297                 5.3745

                     13                     14                     15
                      A                      A                      A
 Frequencies --    845.2436               888.3218               929.6363
 Red. masses --      1.2999                 1.8755                 2.0816
 Frc consts  --      0.5472                 0.8720                 1.0599
 IR Inten    --     99.1024                 2.1180                14.7333

                     16                     17                     18
                      A                      A                      A
 Frequencies --    942.7258               954.4168               964.9956
 Red. masses --      1.6530                 1.3506                 1.2096
 Frc consts  --      0.8656                 0.7249                 0.6636
 IR Inten    --      1.9485                11.2301                 1.0660

                     19                     20                     21
                      A                      A                      A
 Frequencies --   1035.5672              1070.8382              1087.1849
 Red. masses --      1.3736                 1.4054                 2.6026
 Frc consts  --      0.8679                 0.9495                 1.8124
 IR Inten    --      0.6441                 6.6458                11.6294

                     22                     23                     24
                      A                      A                      A
 Frequencies --   1153.8738              1245.1180              1279.2377
 Red. masses --      1.3063                 2.3505                 2.4972
 Frc consts  --      1.0247                 2.1470                 2.4077
 IR Inten    --      1.3956                 8.1390                 2.2612

                     25                     26                     27
                      A                      A                      A
 Frequencies --   1297.3609              1357.3696              1407.1007
 Red. masses --      2.2439                 1.2439                 1.2685
 Frc consts  --      2.2253                 1.3503                 1.4798
 IR Inten    --      2.3969                 2.9911                 7.3395

                     28                     29                     30
                      A                      A                      A
 Frequencies --   1408.8027              1417.4073              1446.8447
 Red. masses --      1.2498                 1.3420                 1.2710
 Frc consts  --      1.4615                 1.5885                 1.5676
 IR Inten    --      5.0846                 0.8725                10.7671

                     31                     32                     33
                      A                      A                      A
 Frequencies --   1493.6491              1502.3110              1507.1977
 Red. masses --      1.0491                 1.0570                 1.0453
 Frc consts  --      1.3790                 1.4056                 1.3990
 IR Inten    --      0.3184                 0.9751                 0.0271

                     34                     35                     36
                      A                      A                      A
 Frequencies --   1507.6536              1519.8802              1527.0340
 Red. masses --      1.0630                 1.0613                 1.0615
 Frc consts  --      1.4236                 1.4444                 1.4584
 IR Inten    --      1.6421                 2.9777                 3.4206

                     37                     38                     39
                      A                      A                      A
 Frequencies --   1537.3539              1670.5056              2942.0077
 Red. masses --      1.0633                 1.0893                 1.0724
 Frc consts  --      1.4806                 1.7911                 5.4689
 IR Inten    --     12.9910                25.6454                81.6223

                     40                     41                     42
                      A                      A                      A
 Frequencies --   3028.1070              3030.8565              3038.1632
 Red. masses --      1.0357                 1.0360                 1.0386
 Frc consts  --      5.5953                 5.6070                 5.6485
 IR Inten    --     33.1028                37.2384                13.6244

                     43                     44                     45
                      A                      A                      A
 Frequencies --   3057.9753              3095.0644              3097.7517
 Red. masses --      1.0888                 1.1021                 1.1010
 Frc consts  --      5.9989                 6.2200                 6.2250
 IR Inten    --     30.2493                 1.1260                20.5173

                     46                     47                     48
                      A                      A                      A
 Frequencies --   3100.3332              3105.8430              3110.3237
 Red. masses --      1.1016                 1.1014                 1.1016
 Frc consts  --      6.2388                 6.2596                 6.2789
 IR Inten    --     59.4047                57.9455                35.9716

                     49                     50                     51
                      A                      A                      A
 Frequencies --   3136.0351              3500.8931              3582.4602
 Red. masses --      1.0998                 1.0498                 1.0926
 Frc consts  --      6.3726                 7.5811                 8.2614
 IR Inten    --     18.8097                 1.0614                 0.0604

 - Thermochemistry -
 -------------------
 Temperature   298.150 Kelvin.  Pressure   1.00000 Atm.
 Atom     1 has atomic number  6 and mass  12.00000

 Molecular mass:    87.10480 amu.
 Principal axes and moments of inertia in atomic units:
                           1         2         3
     Eigenvalues --   416.89261 710.22742 713.75419
           X            0.99993   0.00470  -0.01101
           Y           -0.00591   0.99361  -0.11274
           Z            0.01041   0.11279   0.99356
 This molecule is an asymmetric top.
 Rotational symmetry number  1.
 Rotational temperatures (Kelvin)      0.20776     0.12195     0.12135
 Rotational constants (GHZ):           4.32903     2.54108     2.52852
 Zero-point vibrational energy     466420.9 (Joules/Mol)
                                  111.47727 (Kcal/Mol)
 Warning -- explicit consideration of  11 degrees of freedom as
           vibrations may cause significant error
 Vibrational temperatures:    187.88   309.44   342.48   365.09   393.75
          (Kelvin)            424.46   476.01   506.55   580.94   599.10
                              747.20  1046.72  1216.12  1278.10  1337.54
                             1356.37  1373.19  1388.41  1489.95  1540.70
                             1564.21  1660.16  1791.44  1840.54  1866.61
                             1952.95  2024.50  2026.95  2039.33  2081.68
                             2149.03  2161.49  2168.52  2169.17  2186.77
                             2197.06  2211.91  2403.48  4232.89  4356.77
                             4360.72  4371.23  4399.74  4453.10  4456.97
                             4460.68  4468.61  4475.06  4512.05  5037.00
                             5154.35

 Zero-point correction=                           0.177650 (Hartree/Particle)
 Thermal correction to Energy=                    0.185735
 Thermal correction to Enthalpy=                  0.186679
 Thermal correction to Gibbs Free Energy=         0.146722
 Sum of electronic and zero-point Energies=           -252.955726
 Sum of electronic and thermal Energies=              -252.947641
 Sum of electronic and thermal Enthalpies=            -252.946697
 Sum of electronic and thermal Free Energies=         -252.986654

                     E (Thermal)             CV                S
                      KCal/Mol        Cal/Mol-Kelvin    Cal/Mol-Kelvin
 Total                  116.551             30.280             84.098
 Electronic               0.000              0.000              0.000
 Translational            0.889              2.981             39.307
 Rotational               0.889              2.981             26.849
 Vibrational            114.773             24.318             17.942
 Vibration     1          0.612              1.923              2.937
 Vibration     2          0.645              1.818              2.000
 Vibration     3          0.656              1.782              1.818
 Vibration     4          0.665              1.756              1.704
 Vibration     5          0.676              1.722              1.573
 Vibration     6          0.689              1.683              1.445
 Vibration     7          0.713              1.614              1.256
 Vibration     8          0.729              1.571              1.157
 Vibration     9          0.769              1.462              0.949
 Vibration    10          0.780              1.435              0.904
 Vibration    11          0.874              1.207              0.612

 Normal termination of Gaussian 09 at Thu Sep  8 14:55:45 2022.
