 Gaussian 09, Revision E.01,
 Gaussian 09:  ES64L-G09RevE.01 30-Nov-2015

 --------------------------------
 #P OPT=calcfc Freq B3LYP/6-31G**
 --------------------------------

 --------
 Frag_407
 --------
 Symbolic Z-matrix:
 Charge =  0 Multiplicity = 1

 SCF Done:  E(RB3LYP) =  -264.445923071     A.U. after   13 cycles
 SCF Done:  E(RB3LYP) =  -264.469563097     A.U. after   13 cycles
 SCF Done:  E(RB3LYP) =  -264.469536313     A.U. after   13 cycles
 SCF Done:  E(RB3LYP) =  -264.470850425     A.U. after   11 cycles
 SCF Done:  E(RB3LYP) =  -264.472067172     A.U. after   15 cycles
 SCF Done:  E(RB3LYP) =  -264.471061597     A.U. after   14 cycles
 SCF Done:  E(RB3LYP) =  -264.472463377     A.U. after   12 cycles
 SCF Done:  E(RB3LYP) =  -264.427467972     A.U. after   15 cycles
 SCF Done:  E(RB3LYP) =  -264.472656774     A.U. after   10 cycles
 SCF Done:  E(RB3LYP) =  -264.472810906     A.U. after   10 cycles
 SCF Done:  E(RB3LYP) =  -264.472840762     A.U. after   11 cycles
 SCF Done:  E(RB3LYP) =  -264.472851873     A.U. after   10 cycles
 SCF Done:  E(RB3LYP) =  -264.472855795     A.U. after    8 cycles
 SCF Done:  E(RB3LYP) =  -264.472858855     A.U. after    8 cycles
 SCF Done:  E(RB3LYP) =  -264.472863283     A.U. after   10 cycles
 SCF Done:  E(RB3LYP) =  -264.472872447     A.U. after   10 cycles
 SCF Done:  E(RB3LYP) =  -264.472881258     A.U. after   10 cycles
 SCF Done:  E(RB3LYP) =  -264.472882384     A.U. after    7 cycles
 SCF Done:  E(RB3LYP) =  -264.472882414     A.U. after    7 cycles
 Optimization completed.
    -- Stationary point found.
 Normal termination of Gaussian 09 at Fri Sep 10 21:24:07 2021.

 ----------------------------------------------------------------------
 #P Geom=AllCheck Guess=TCheck SCRF=Check GenChk RB3LYP/6-31G(d,p) Freq
 ----------------------------------------------------------------------

 Structure from the checkpoint file:  "/public/home/users/caep010/.cache/gau_scr/Gau-83771.chk"
 --------
 Frag_407
 --------
 Charge =  0 Multiplicity = 1

                         Standard orientation:
 ---------------------------------------------------------------------
 Center     Atomic      Atomic             Coordinates (Angstroms)
 Number     Number       Type             X           Y           Z
 ---------------------------------------------------------------------
      1          6           0       -0.519922    1.438865   -0.018617
      2          6           0       -0.504474    0.100989    0.008524
      3          7           0       -1.615552   -0.743879    0.092481
      4          8           0        0.613956   -0.709623    0.020308
      5          7           0        1.844153    0.034863   -0.020302
      6          1           0       -1.467613    1.962472   -0.040980
      7          1           0        0.398039    2.004122    0.007140
      8          1           0       -2.474709   -0.281597   -0.173922
      9          1           0       -1.486791   -1.605415   -0.426452
     10          1           0        2.323765   -0.278284    0.825135
     11          1           0        2.341825   -0.400324   -0.798075
 ---------------------------------------------------------------------

 SCF Done:  E(RB3LYP) =  -264.472882414     A.U. after    1 cycles

 The electronic state is 1-A.
 Alpha  occ. eigenvalues --  -19.19411 -14.38185 -14.33245 -10.25746 -10.13643
 Alpha  occ. eigenvalues --   -1.08466  -0.90922  -0.81863  -0.70711  -0.57455
 Alpha  occ. eigenvalues --   -0.51548  -0.50963  -0.47920  -0.44773  -0.40317
 Alpha  occ. eigenvalues --   -0.37913  -0.36429  -0.27724  -0.26729  -0.18880
 Alpha virt. eigenvalues --    0.06731   0.07371   0.08881   0.11807   0.13999
 Alpha virt. eigenvalues --    0.14584   0.18437   0.19325   0.26614   0.33425
 Alpha virt. eigenvalues --    0.39553   0.55647   0.56901   0.58446   0.60699

 Mulliken charges:
               1
     1  C   -0.335890
     2  C    0.539617
     3  N   -0.635635
     4  O   -0.461127
     5  N   -0.339324
     6  H    0.068583
     7  H    0.109323
     8  H    0.259215
     9  H    0.258161
    10  H    0.269931
    11  H    0.267145
 Sum of Mulliken charges =  -0.00000

 Dipole moment (field-independent basis, Debye):
    X=              0.7155    Y=             -1.4339    Z=             -1.0959  Tot=              1.9414
 Quadrupole moment (field-independent basis, Debye-Ang):
   XX=            -20.1139   YY=            -30.9138   ZZ=            -30.9076
   XY=             -1.5536   XZ=              2.6199   YZ=              1.9216

  Exact polarizability:  48.371   0.040  47.298   0.496   0.878  22.382
 Approx polarizability:  59.848   2.062  75.130  -0.002   0.268  31.069

                      1                      2                      3
                      A                      A                      A
 Frequencies --    109.4621               122.8539               246.6458
 Red. masses --      1.4554                 2.0449                 1.0922
 Frc consts  --      0.0103                 0.0182                 0.0391
 IR Inten    --     43.3014                12.3859                41.6704

                      4                      5                      6
                      A                      A                      A
 Frequencies --    337.3106               449.0873               563.0083
 Red. masses --      3.4535                 2.4973                 3.7637
 Frc consts  --      0.2315                 0.2967                 0.7029
 IR Inten    --      3.5556                 6.2950                 4.0921

                      7                      8                      9
                      A                      A                      A
 Frequencies --    593.7154               691.9103               747.9496
 Red. masses --      1.9554                 1.2286                 1.2087
 Frc consts  --      0.4061                 0.3465                 0.3984
 IR Inten    --     95.6834                17.4315                25.4083

                     10                     11                     12
                      A                      A                      A
 Frequencies --    753.3979               876.4920               952.7188
 Red. masses --      1.9539                 4.5364                 1.8662
 Frc consts  --      0.6534                 2.0533                 0.9980
 IR Inten    --    239.6554                47.9861                24.1766

                     13                     14                     15
                      A                      A                      A
 Frequencies --    986.0210              1126.6734              1237.5989
 Red. masses --      3.1741                 1.4548                 1.5071
 Frc consts  --      1.8182                 1.0880                 1.3600
 IR Inten    --     16.3182                16.9256                48.0691

                     16                     17                     18
                      A                      A                      A
 Frequencies --   1338.7234              1373.6717              1431.3749
 Red. masses --      1.1103                 3.2427                 1.1732
 Frc consts  --      1.1724                 3.6052                 1.4162
 IR Inten    --      1.0176               160.7750                 1.6416

                     19                     20                     21
                      A                      A                      A
 Frequencies --   1641.1748              1656.9955              1755.1416
 Red. masses --      1.1554                 1.1023                 5.0408
 Frc consts  --      1.8335                 1.7832                 9.1491
 IR Inten    --     55.6625                27.6438               229.3079

                     22                     23                     24
                      A                      A                      A
 Frequencies --   3199.1815              3310.9395              3439.2590
 Red. masses --      1.0626                 1.1132                 1.0478
 Frc consts  --      6.4073                 7.1898                 7.3021
 IR Inten    --      6.9156                 2.7014                 0.4335

                     25                     26                     27
                      A                      A                      A
 Frequencies --   3532.8023              3545.8455              3661.0083
 Red. masses --      1.0960                 1.0493                 1.0953
 Frc consts  --      8.0596                 7.7728                 8.6495
 IR Inten    --      0.1370                 7.6825                10.3155

 - Thermochemistry -
 -------------------
 Temperature   298.150 Kelvin.  Pressure   1.00000 Atm.
 Atom     1 has atomic number  6 and mass  12.00000

 Molecular mass:    74.04801 amu.
 Principal axes and moments of inertia in atomic units:
                           1         2         3
     Eigenvalues --   190.21503 428.05041 606.45728
           X            0.99991  -0.00913   0.00997
           Y            0.00899   0.99985   0.01470
           Z           -0.01010  -0.01461   0.99984
 This molecule is an asymmetric top.
 Rotational symmetry number  1.
 Rotational temperatures (Kelvin)      0.45535     0.20234     0.14282
 Rotational constants (GHZ):           9.48790     4.21619     2.97588
 Zero-point vibrational energy     237344.9 (Joules/Mol)
                                   56.72678 (Kcal/Mol)
 Warning -- explicit consideration of   7 degrees of freedom as
           vibrations may cause significant error
 Vibrational temperatures:    157.49   176.76   354.87   485.31   646.14
          (Kelvin)            810.04   854.22   995.50  1076.13  1083.97
                             1261.07  1370.75  1418.66  1621.03  1780.63
                             1926.12  1976.40  2059.43  2361.28  2384.04
                             2525.25  4602.90  4763.70  4948.32  5082.91
                             5101.67  5267.37

 Zero-point correction=                           0.090400 (Hartree/Particle)
 Thermal correction to Energy=                    0.096631
 Thermal correction to Enthalpy=                  0.097575
 Thermal correction to Gibbs Free Energy=         0.061148
 Sum of electronic and zero-point Energies=           -264.382483
 Sum of electronic and thermal Energies=              -264.376251
 Sum of electronic and thermal Enthalpies=            -264.375307
 Sum of electronic and thermal Free Energies=         -264.411734

                     E (Thermal)             CV                S
                      KCal/Mol        Cal/Mol-Kelvin    Cal/Mol-Kelvin
 Total                   60.637             21.294             76.668
 Electronic               0.000              0.000              0.000
 Translational            0.889              2.981             38.822
 Rotational               0.889              2.981             25.405
 Vibrational             58.860             15.332             12.440
 Vibration     1          0.606              1.942              3.278
 Vibration     2          0.610              1.930              3.055
 Vibration     3          0.661              1.768              1.754
 Vibration     4          0.718              1.601              1.225
 Vibration     5          0.808              1.363              0.799
 Vibration     6          0.919              1.111              0.518
 Vibration     7          0.951              1.045              0.461

 Optimization completed.
    -- Stationary point found.
 Normal termination of Gaussian 09 at Fri Sep 10 21:24:15 2021.
