 Gaussian 09, Revision E.01,
 Gaussian 09:  ES64L-G09RevE.01 30-Nov-2015

 ----------------------------
 #P OPT Freq B3LYP/6-31G(d,p)
 ----------------------------

 --------
 Frag_638
 --------
 Symbolic Z-matrix:
 Charge =  0 Multiplicity = 1

 SCF Done:  E(RB3LYP) =  -269.157637754     A.U. after   12 cycles
 SCF Done:  E(RB3LYP) =  -269.157657691     A.U. after    8 cycles
 SCF Done:  E(RB3LYP) =  -269.157660292     A.U. after    7 cycles
 SCF Done:  E(RB3LYP) =  -269.157660899     A.U. after    7 cycles
 SCF Done:  E(RB3LYP) =  -269.157662144     A.U. after    7 cycles
 SCF Done:  E(RB3LYP) =  -269.157662840     A.U. after    7 cycles
 SCF Done:  E(RB3LYP) =  -269.157664587     A.U. after    7 cycles
 SCF Done:  E(RB3LYP) =  -269.157665313     A.U. after    7 cycles
 SCF Done:  E(RB3LYP) =  -269.157665461     A.U. after    7 cycles
 Optimization completed.
    -- Stationary point found.
 Normal termination of Gaussian 09 at Thu Sep  8 15:02:29 2022.

 ----------------------------------------------------------------------
 #P Geom=AllCheck Guess=TCheck SCRF=Check GenChk RB3LYP/6-31G(d,p) Freq
 ----------------------------------------------------------------------

 Structure from the checkpoint file:  "B3LYP6-31Gdp.Frag_638.chk"
 --------
 Frag_638
 --------
 Charge =  0 Multiplicity = 1

                         Standard orientation:
 ---------------------------------------------------------------------
 Center     Atomic      Atomic             Coordinates (Angstroms)
 Number     Number       Type             X           Y           Z
 ---------------------------------------------------------------------
      1          6           0        2.102798    0.037943   -0.031761
      2          7           0        0.856071    0.072394   -0.781004
      3          6           0       -0.415395   -0.000410   -0.031991
      4          6           0       -0.368469   -0.972194    1.171161
      5          6           0       -0.778920    1.415357    0.441280
      6          7           0       -1.423683   -0.425564   -1.018137
      7          1           0        2.145034    0.882398    0.665379
      8          1           0        2.291143   -0.879869    0.552354
      9          1           0        2.935210    0.162084   -0.731706
     10          1           0        0.846109   -0.636574   -1.506899
     11          1           0        0.358159   -0.665462    1.930239
     12          1           0       -0.098260   -1.982512    0.839791
     13          1           0       -1.349914   -1.025183    1.654398
     14          1           0        0.014112    1.830912    1.069320
     15          1           0       -1.702980    1.413162    1.031297
     16          1           0       -0.905376    2.064180   -0.428307
     17          1           0       -1.452532   -1.443243   -1.062036
     18          1           0       -2.347498   -0.131884   -0.711974
 ---------------------------------------------------------------------

 SCF Done:  E(RB3LYP) =  -269.157665461     A.U. after    1 cycles

 The electronic state is 1-A.
 Alpha  occ. eigenvalues --  -14.30916 -14.30144 -10.24004 -10.19471 -10.17163
 Alpha  occ. eigenvalues --  -10.16611  -0.91705  -0.84311  -0.73473  -0.68502
 Alpha  occ. eigenvalues --   -0.66063  -0.55173  -0.48625  -0.48162  -0.44694
 Alpha  occ. eigenvalues --   -0.42703  -0.41064  -0.38751  -0.38104  -0.37471
 Alpha  occ. eigenvalues --   -0.35880  -0.34646  -0.33141  -0.23966  -0.20356
 Alpha virt. eigenvalues --    0.06896   0.11711   0.12356   0.12895   0.14487
 Alpha virt. eigenvalues --    0.15074   0.17038   0.17376   0.18735   0.19869
 Alpha virt. eigenvalues --    0.20703   0.21586   0.21915   0.23827   0.26182

 Mulliken charges:
               1
     1  C   -0.170888
     2  N   -0.475516
     3  C    0.265576
     4  C   -0.310268
     5  C   -0.296000
     6  N   -0.593912
     7  H    0.106425
     8  H    0.079196
     9  H    0.105266
    10  H    0.231920
    11  H    0.101737
    12  H    0.089310
    13  H    0.092056
    14  H    0.100904
    15  H    0.083795
    16  H    0.125288
    17  H    0.228317
    18  H    0.236795
 Sum of Mulliken charges =  -0.00000

 Dipole moment (field-independent basis, Debye):
    X=             -0.4513    Y=             -1.3840    Z=              1.2714  Tot=              1.9328
 Quadrupole moment (field-independent basis, Debye-Ang):
   XX=            -36.0993   YY=            -38.4868   ZZ=            -42.7031
   XY=              0.3781   XZ=             -0.9581   YZ=              2.7722

  Exact polarizability:  65.206  -0.594  55.597   0.094   1.838  54.160
 Approx polarizability:  83.850  -0.693  75.178   0.954   3.718  76.646

                      1                      2                      3
                      A                      A                      A
 Frequencies --     90.2684               152.9641               218.7583
 Red. masses --      2.0803                 1.0586                 1.1425
 Frc consts  --      0.0100                 0.0146                 0.0322
 IR Inten    --      3.3443                42.6721                 0.6180

                      4                      5                      6
                      A                      A                      A
 Frequencies --    239.1899               281.8213               312.0731
 Red. masses --      1.1101                 1.5905                 1.2242
 Frc consts  --      0.0374                 0.0744                 0.0702
 IR Inten    --      1.8547                 2.9459                 0.4087

                      7                      8                      9
                      A                      A                      A
 Frequencies --    360.0257               361.4400               448.9343
 Red. masses --      2.4111                 2.2655                 2.4056
 Frc consts  --      0.1841                 0.1744                 0.2856
 IR Inten    --      1.2385                 1.3225                12.2072

                     10                     11                     12
                      A                      A                      A
 Frequencies --    473.2572               509.2799               653.9385
 Red. masses --      2.3506                 3.0594                 1.5466
 Frc consts  --      0.3102                 0.4675                 0.3897
 IR Inten    --     13.0813                 3.5802                77.1225

                     13                     14                     15
                      A                      A                      A
 Frequencies --    746.8173               844.3181               913.9561
 Red. masses --      2.7911                 1.6659                 1.5899
 Frc consts  --      0.9172                 0.6997                 0.7825
 IR Inten    --      2.8242               135.1176                 0.8199

                     16                     17                     18
                      A                      A                      A
 Frequencies --    939.1430               970.1686              1014.2628
 Red. masses --      1.4672                 1.7432                 1.2936
 Frc consts  --      0.7625                 0.9667                 0.7841
 IR Inten    --     38.0287                 1.0142                 9.6727

                     19                     20                     21
                      A                      A                      A
 Frequencies --   1079.5851              1129.3142              1146.3310
 Red. masses --      1.5577                 1.8731                 2.2462
 Frc consts  --      1.0697                 1.4075                 1.7391
 IR Inten    --      5.0233                17.0696                17.1799

                     22                     23                     24
                      A                      A                      A
 Frequencies --   1160.9287              1226.4899              1264.0830
 Red. masses --      1.3878                 2.4822                 2.5715
 Frc consts  --      1.1020                 2.1999                 2.4209
 IR Inten    --      4.5528                62.5750                28.1460

                     25                     26                     27
                      A                      A                      A
 Frequencies --   1349.6406              1404.3205              1420.0802
 Red. masses --      1.8544                 1.2918                 1.2521
 Frc consts  --      1.9901                 1.5010                 1.4877
 IR Inten    --     23.4033                13.1309                11.0511

                     28                     29                     30
                      A                      A                      A
 Frequencies --   1466.8671              1476.3889              1493.0815
 Red. masses --      1.1528                 1.2275                 1.0529
 Frc consts  --      1.4615                 1.5764                 1.3829
 IR Inten    --      1.0477                12.0491                 1.6839

                     31                     32                     33
                      A                      A                      A
 Frequencies --   1500.8982              1505.6636              1518.1983
 Red. masses --      1.0630                 1.0575                 1.0908
 Frc consts  --      1.4109                 1.4125                 1.4813
 IR Inten    --      0.0190                 4.7198                 1.9333

                     34                     35                     36
                      A                      A                      A
 Frequencies --   1523.6031              1538.4712              1666.7236
 Red. masses --      1.0788                 1.0479                 1.0965
 Frc consts  --      1.4755                 1.4614                 1.7947
 IR Inten    --     10.5555                 5.8679                24.8878

                     37                     38                     39
                      A                      A                      A
 Frequencies --   2957.7471              3030.7440              3044.6359
 Red. masses --      1.0590                 1.0365                 1.0400
 Frc consts  --      5.4587                 5.6095                 5.6799
 IR Inten    --     88.2954                23.8560                17.8549

                     40                     41                     42
                      A                      A                      A
 Frequencies --   3063.5070              3101.1757              3105.7137
 Red. masses --      1.0745                 1.1009                 1.1018
 Frc consts  --      5.9416                 6.2382                 6.2616
 IR Inten    --     40.1884                23.5097                51.0321

                     43                     44                     45
                      A                      A                      A
 Frequencies --   3111.4319              3118.6524              3146.4923
 Red. masses --      1.1004                 1.0988                 1.1029
 Frc consts  --      6.2765                 6.2964                 6.4335
 IR Inten    --      7.1096                53.7702                18.8856

                     46                     47                     48
                      A                      A                      A
 Frequencies --   3481.3537              3550.4645              3574.5988
 Red. masses --      1.0516                 1.0751                 1.0902
 Frc consts  --      7.5093                 7.9851                 8.2074
 IR Inten    --      1.6108                 0.2679                 0.1347

 - Thermochemistry -
 -------------------
 Temperature   298.150 Kelvin.  Pressure   1.00000 Atm.
 Atom     1 has atomic number  6 and mass  12.00000

 Molecular mass:    88.10005 amu.
 Principal axes and moments of inertia in atomic units:
                           1         2         3
     Eigenvalues --   406.68505 685.00598 688.90858
           X            0.99994  -0.00523  -0.00918
           Y            0.00879   0.89362   0.44874
           Z            0.00585  -0.44880   0.89361
 This molecule is an asymmetric top.
 Rotational symmetry number  1.
 Rotational temperatures (Kelvin)      0.21298     0.12644     0.12573
 Rotational constants (GHZ):           4.43769     2.63464     2.61971
 Zero-point vibrational energy     434769.6 (Joules/Mol)
                                  103.91243 (Kcal/Mol)
 Warning -- explicit consideration of  11 degrees of freedom as
           vibrations may cause significant error
 Vibrational temperatures:    129.88   220.08   314.74   344.14   405.48
          (Kelvin)            449.00   518.00   520.03   645.92   680.91
                              732.74   940.87  1074.50  1214.78  1314.98
                             1351.22  1395.85  1459.30  1553.28  1624.83
                             1649.31  1670.32  1764.64  1818.73  1941.83
                             2020.50  2043.18  2110.49  2124.19  2148.21
                             2159.45  2166.31  2184.35  2192.12  2213.51
                             2398.04  4255.53  4360.56  4380.55  4407.70
                             4461.89  4468.42  4476.65  4487.04  4527.09
                             5008.89  5108.32  5143.04

 Zero-point correction=                           0.165595 (Hartree/Particle)
 Thermal correction to Energy=                    0.173778
 Thermal correction to Enthalpy=                  0.174722
 Thermal correction to Gibbs Free Energy=         0.134277
 Sum of electronic and zero-point Energies=           -268.992070
 Sum of electronic and thermal Energies=              -268.983887
 Sum of electronic and thermal Enthalpies=            -268.982943
 Sum of electronic and thermal Free Energies=         -269.023388

                     E (Thermal)             CV                S
                      KCal/Mol        Cal/Mol-Kelvin    Cal/Mol-Kelvin
 Total                  109.047             30.071             85.124
 Electronic               0.000              0.000              0.000
 Translational            0.889              2.981             39.340
 Rotational               0.889              2.981             26.753
 Vibrational            107.270             24.110             19.030
 Vibration     1          0.602              1.956              3.654
 Vibration     2          0.619              1.899              2.635
 Vibration     3          0.647              1.813              1.969
 Vibration     4          0.657              1.781              1.809
 Vibration     5          0.681              1.707              1.523
 Vibration     6          0.700              1.651              1.351
 Vibration     7          0.735              1.555              1.122
 Vibration     8          0.736              1.552              1.116
 Vibration     9          0.808              1.363              0.799
 Vibration    10          0.830              1.309              0.728
 Vibration    11          0.864              1.229              0.635

 Normal termination of Gaussian 09 at Thu Sep  8 15:02:45 2022.
