 Gaussian 09, Revision E.01,
 Gaussian 09:  ES64L-G09RevE.01 30-Nov-2015

 ----------------------------
 #P OPT Freq B3LYP/6-31G(d,p)
 ----------------------------

 --------
 Frag_577
 --------
 Symbolic Z-matrix:
 Charge =  0 Multiplicity = 1

 SCF Done:  E(RB3LYP) =  -286.586220953     A.U. after   14 cycles
 SCF Done:  E(RB3LYP) =  -286.586291544     A.U. after    9 cycles
 SCF Done:  E(RB3LYP) =  -286.586294814     A.U. after    9 cycles
 SCF Done:  E(RB3LYP) =  -286.586295328     A.U. after    8 cycles
 SCF Done:  E(RB3LYP) =  -286.586295540     A.U. after    7 cycles
 Optimization completed.
    -- Stationary point found.
 Normal termination of Gaussian 09 at Thu Sep  8 14:57:05 2022.

 ----------------------------------------------------------------------
 #P Geom=AllCheck Guess=TCheck SCRF=Check GenChk RB3LYP/6-31G(d,p) Freq
 ----------------------------------------------------------------------

 Structure from the checkpoint file:  "B3LYP6-31Gdp.Frag_577.chk"
 --------
 Frag_577
 --------
 Charge =  0 Multiplicity = 1

                         Standard orientation:
 ---------------------------------------------------------------------
 Center     Atomic      Atomic             Coordinates (Angstroms)
 Number     Number       Type             X           Y           Z
 ---------------------------------------------------------------------
      1          6           0       -1.673483    0.889779    0.321393
      2          6           0       -0.749660   -0.023749   -0.008410
      3          8           0       -1.028908   -1.324863   -0.326648
      4          6           0        0.724713    0.253469   -0.032413
      5          6           0        1.634331   -0.902705    0.298597
      6          7           0        1.235450    1.392980   -0.307013
      7          1           0       -1.383591    1.890013    0.615455
      8          1           0       -2.734151    0.656836    0.329565
      9          1           0       -1.981609   -1.471475   -0.246082
     10          1           0        2.668116   -0.556153    0.294645
     11          1           0        1.389170   -1.326250    1.278803
     12          1           0        1.511433   -1.707811   -0.432530
     13          1           0        0.498343    2.062115   -0.552593
 ---------------------------------------------------------------------

 SCF Done:  E(RB3LYP) =  -286.586295540     A.U. after    1 cycles

 The electronic state is 1-A.
 Alpha  occ. eigenvalues --  -19.19016 -14.31537 -10.26026 -10.24010 -10.18633
 Alpha  occ. eigenvalues --  -10.17825  -1.07014  -0.90489  -0.76154  -0.72994
 Alpha  occ. eigenvalues --   -0.64008  -0.54718  -0.51253  -0.49976  -0.43310
 Alpha  occ. eigenvalues --   -0.42640  -0.39729  -0.39311  -0.37570  -0.37216
 Alpha  occ. eigenvalues --   -0.30732  -0.26341  -0.23759
 Alpha virt. eigenvalues --   -0.02988   0.05849   0.07283   0.11312   0.12925
 Alpha virt. eigenvalues --    0.14184   0.17292   0.18165   0.19075   0.24460
 Alpha virt. eigenvalues --    0.25594   0.33409   0.35724   0.42913   0.52010

 Mulliken charges:
               1
     1  C   -0.323543
     2  C    0.340231
     3  O   -0.534879
     4  C    0.244662
     5  C   -0.347051
     6  N   -0.512009
     7  H    0.111379
     8  H    0.090554
     9  H    0.319627
    10  H    0.131985
    11  H    0.121355
    12  H    0.136978
    13  H    0.220711
 Sum of Mulliken charges =  -0.00000

 Dipole moment (field-independent basis, Debye):
    X=             -2.8591    Y=             -1.0228    Z=              0.4035  Tot=              3.0633
 Quadrupole moment (field-independent basis, Debye-Ang):
   XX=            -33.6520   YY=            -35.5446   ZZ=            -37.3621
   XY=             -1.7499   XZ=              0.8045   YZ=             -0.1461

  Exact polarizability:  62.975  -3.089  60.383  -3.307   0.293  30.378
 Approx polarizability:  88.188  -3.296  96.591  -8.303   1.579  44.780

                      1                      2                      3
                      A                      A                      A
 Frequencies --     70.7733               177.8214               268.1871
 Red. masses --      3.6483                 1.0490                 3.2601
 Frc consts  --      0.0108                 0.0195                 0.1382
 IR Inten    --      1.2190                 0.1176                 1.5324

                      4                      5                      6
                      A                      A                      A
 Frequencies --    327.1413               399.5168               434.1659
 Red. masses --      2.7994                 2.8672                 1.1811
 Frc consts  --      0.1765                 0.2696                 0.1312
 IR Inten    --      7.2871                14.0559               103.7269

                      7                      8                      9
                      A                      A                      A
 Frequencies --    515.8528               547.0113               650.5620
 Red. masses --      2.5997                 3.3110                 2.3024
 Frc consts  --      0.4076                 0.5837                 0.5741
 IR Inten    --      7.3330                 6.7100                 6.4109

                     10                     11                     12
                      A                      A                      A
 Frequencies --    716.5419               744.4149               822.3968
 Red. masses --      1.2114                 3.2400                 1.3769
 Frc consts  --      0.3665                 1.0578                 0.5487
 IR Inten    --      4.9358                 3.3025                63.6182

                     13                     14                     15
                      A                      A                      A
 Frequencies --    938.5888               973.4763              1005.0935
 Red. masses --      1.4593                 1.9314                 1.8035
 Frc consts  --      0.7574                 1.0784                 1.0735
 IR Inten    --     50.3823                14.3758                34.6045

                     16                     17                     18
                      A                      A                      A
 Frequencies --   1084.2379              1104.5376              1188.1547
 Red. masses --      1.4301                 1.6438                 1.6341
 Frc consts  --      0.9906                 1.1816                 1.3591
 IR Inten    --      1.9131                10.7902               223.1585

                     19                     20                     21
                      A                      A                      A
 Frequencies --   1337.4149              1400.4401              1420.3293
 Red. masses --      1.5567                 1.8497                 1.4786
 Frc consts  --      1.6405                 2.1374                 1.7575
 IR Inten    --     56.1421                 7.7344                28.9912

                     22                     23                     24
                      A                      A                      A
 Frequencies --   1458.3035              1484.6010              1489.8919
 Red. masses --      1.2953                 1.0697                 1.0491
 Frc consts  --      1.6230                 1.3891                 1.3721
 IR Inten    --     29.2377                10.1577                 6.8196

                     25                     26                     27
                      A                      A                      A
 Frequencies --   1693.7730              1729.9979              3054.2523
 Red. masses --      6.5396                 7.0324                 1.0376
 Frc consts  --     11.0538                12.4006                 5.7029
 IR Inten    --    103.6663                20.4225                 7.9324

                     28                     29                     30
                      A                      A                      A
 Frequencies --   3115.0860              3167.4893              3170.8036
 Red. masses --      1.0987                 1.1031                 1.0636
 Frc consts  --      6.2816                 6.5205                 6.3001
 IR Inten    --     10.7281                 8.0708                 4.8944

                     31                     32                     33
                      A                      A                      A
 Frequencies --   3267.5722              3433.7957              3806.3023
 Red. masses --      1.1133                 1.0737                 1.0658
 Frc consts  --      7.0035                 7.4591                 9.0975
 IR Inten    --      4.8212                 5.9505                24.7842

 - Thermochemistry -
 -------------------
 Temperature   298.150 Kelvin.  Pressure   1.00000 Atm.
 Atom     1 has atomic number  6 and mass  12.00000

 Molecular mass:    85.05276 amu.
 Principal axes and moments of inertia in atomic units:
                           1         2         3
     Eigenvalues --   350.58226 539.17210 831.83215
           X            0.99270  -0.12056   0.00305
           Y            0.12058   0.99268  -0.00650
           Z           -0.00225   0.00682   0.99997
 This molecule is an asymmetric top.
 Rotational symmetry number  1.
 Rotational temperatures (Kelvin)      0.24706     0.16064     0.10412
 Rotational constants (GHZ):           5.14784     3.34725     2.16960
 Zero-point vibrational energy     281113.6 (Joules/Mol)
                                   67.18777 (Kcal/Mol)
 Warning -- explicit consideration of   8 degrees of freedom as
           vibrations may cause significant error
 Vibrational temperatures:    101.83   255.85   385.86   470.68   574.81
          (Kelvin)            624.67   742.20   787.03   936.01  1030.94
                             1071.05  1183.24  1350.42  1400.61  1446.10
                             1559.97  1589.18  1709.49  1924.24  2014.92
                             2043.53  2098.17  2136.01  2143.62  2436.96
                             2489.08  4394.38  4481.91  4557.30  4562.07
                             4701.30  4940.46  5476.41

 Zero-point correction=                           0.107071 (Hartree/Particle)
 Thermal correction to Energy=                    0.113777
 Thermal correction to Enthalpy=                  0.114721
 Thermal correction to Gibbs Free Energy=         0.076790
 Sum of electronic and zero-point Energies=           -286.479225
 Sum of electronic and thermal Energies=              -286.472519
 Sum of electronic and thermal Enthalpies=            -286.471575
 Sum of electronic and thermal Free Energies=         -286.509506

                     E (Thermal)             CV                S
                      KCal/Mol        Cal/Mol-Kelvin    Cal/Mol-Kelvin
 Total                   71.396             24.126             79.833
 Electronic               0.000              0.000              0.000
 Translational            0.889              2.981             39.235
 Rotational               0.889              2.981             26.555
 Vibrational             69.619             18.164             14.042
 Vibration     1          0.598              1.968              4.132
 Vibration     2          0.628              1.870              2.351
 Vibration     3          0.673              1.732              1.608
 Vibration     4          0.711              1.621              1.274
 Vibration     5          0.766              1.471              0.964
 Vibration     6          0.795              1.396              0.845
 Vibration     7          0.871              1.215              0.620
 Vibration     8          0.902              1.146              0.550

 Optimization completed.
    -- Stationary point found.
 Normal termination of Gaussian 09 at Thu Sep  8 14:57:16 2022.
