 Gaussian 09, Revision E.01,
 Gaussian 09:  ES64L-G09RevE.01 30-Nov-2015

 --------------------------------
 #P OPT=calcfc Freq B3LYP/6-31G**
 --------------------------------

 --------
 Frag_373
 --------
 Symbolic Z-matrix:
 Charge =  0 Multiplicity = 1

 SCF Done:  E(RB3LYP) =  -264.475652120     A.U. after   14 cycles
 SCF Done:  E(RB3LYP) =  -264.501794627     A.U. after   13 cycles
 SCF Done:  E(RB3LYP) =  -264.503178531     A.U. after   14 cycles
 SCF Done:  E(RB3LYP) =  -264.505980290     A.U. after   14 cycles
 SCF Done:  E(RB3LYP) =  -264.506151708     A.U. after   14 cycles
 SCF Done:  E(RB3LYP) =  -264.506025580     A.U. after   14 cycles
 SCF Done:  E(RB3LYP) =  -264.506409901     A.U. after   11 cycles
 SCF Done:  E(RB3LYP) =  -264.506448460     A.U. after   11 cycles
 SCF Done:  E(RB3LYP) =  -264.506459750     A.U. after   12 cycles
 SCF Done:  E(RB3LYP) =  -264.506492357     A.U. after   11 cycles
 SCF Done:  E(RB3LYP) =  -264.506499889     A.U. after   10 cycles
 SCF Done:  E(RB3LYP) =  -264.506501706     A.U. after    9 cycles
 SCF Done:  E(RB3LYP) =  -264.506502068     A.U. after    7 cycles
 SCF Done:  E(RB3LYP) =  -264.506502226     A.U. after    7 cycles
 Optimization completed.
    -- Stationary point found.
 Normal termination of Gaussian 09 at Fri Sep 10 20:44:07 2021.

 ----------------------------------------------------------------------
 #P Geom=AllCheck Guess=TCheck SCRF=Check GenChk RB3LYP/6-31G(d,p) Freq
 ----------------------------------------------------------------------

 Structure from the checkpoint file:  "/public/home/users/caep010/.cache/gau_scr/Gau-194582.chk"
 --------
 Frag_373
 --------
 Charge =  0 Multiplicity = 1

                         Standard orientation:
 ---------------------------------------------------------------------
 Center     Atomic      Atomic             Coordinates (Angstroms)
 Number     Number       Type             X           Y           Z
 ---------------------------------------------------------------------
      1          6           0        0.412600    1.433095   -0.000790
      2          6           0        0.406446   -0.070178   -0.014122
      3          7           0        1.643205   -0.704310    0.100090
      4          7           0       -0.640306   -0.817995   -0.038338
      5          8           0       -1.826097   -0.030478    0.022241
      6          1           0       -0.446099    1.818139   -0.551252
      7          1           0        0.343494    1.800140    1.028871
      8          1           0        1.337293    1.826112   -0.433849
      9          1           0        1.574265   -1.709216   -0.015824
     10          1           0        2.372300   -0.304232   -0.477849
     11          1           0       -2.507045   -0.708487   -0.070827
 ---------------------------------------------------------------------

 SCF Done:  E(RB3LYP) =  -264.506502226     A.U. after    1 cycles

 The electronic state is 1-A.
 Alpha  occ. eigenvalues --  -19.16499 -14.34782 -14.34118 -10.24583 -10.18667
 Alpha  occ. eigenvalues --   -1.05005  -0.92630  -0.80808  -0.72277  -0.56617
 Alpha  occ. eigenvalues --   -0.52166  -0.47112  -0.46154  -0.42665  -0.40606
 Alpha  occ. eigenvalues --   -0.38710  -0.36484  -0.31086  -0.26190  -0.20523
 Alpha virt. eigenvalues --    0.03631   0.07671   0.08990   0.13198   0.14567
 Alpha virt. eigenvalues --    0.16694   0.18189   0.18901   0.24782   0.35316
 Alpha virt. eigenvalues --    0.37394   0.53681   0.54676   0.58176   0.63403

 Mulliken charges:
               1
     1  C   -0.353731
     2  C    0.446145
     3  N   -0.609492
     4  N   -0.278845
     5  O   -0.444576
     6  H    0.149163
     7  H    0.146071
     8  H    0.098989
     9  H    0.264128
    10  H    0.255292
    11  H    0.326857
 Sum of Mulliken charges =  -0.00000

 Dipole moment (field-independent basis, Debye):
    X=              1.2089    Y=              0.1522    Z=             -1.1091  Tot=              1.6477
 Quadrupole moment (field-independent basis, Debye-Ang):
   XX=            -23.7817   YY=            -28.1972   ZZ=            -31.1551
   XY=              1.1069   XZ=             -2.2368   YZ=              0.6361

  Exact polarizability:  56.523   2.708  39.825  -0.585   0.148  23.702
 Approx polarizability:  86.122   6.804  54.274   0.319   0.210  33.388

                      1                      2                      3
                      A                      A                      A
 Frequencies --     59.2714               274.2328               302.3705
 Red. masses --      1.0641                 3.2432                 2.2152
 Frc consts  --      0.0022                 0.1437                 0.1193
 IR Inten    --      0.1103                20.4898                16.2321

                      4                      5                      6
                      A                      A                      A
 Frequencies --    339.1634               376.8265               436.3612
 Red. masses --      1.4681                 1.2094                 2.2402
 Frc consts  --      0.0995                 0.1012                 0.2513
 IR Inten    --     92.3952                73.2932                 4.7460

                      7                      8                      9
                      A                      A                      A
 Frequencies --    519.9889               610.1631               725.7613
 Red. masses --      2.6397                 5.2603                 1.4157
 Frc consts  --      0.4205                 1.1539                 0.4393
 IR Inten    --     15.6756                11.5274               269.3729

                     10                     11                     12
                      A                      A                      A
 Frequencies --    843.4976               976.4201              1021.0413
 Red. masses --      4.0799                 5.1153                 1.3716
 Frc consts  --      1.7103                 2.8734                 0.8425
 IR Inten    --      2.4387               102.8044                 0.6542

                     13                     14                     15
                      A                      A                      A
 Frequencies --   1058.1612              1174.3428              1339.7323
 Red. masses --      1.5583                 1.5275                 1.5742
 Frc consts  --      1.0280                 1.2412                 1.6647
 IR Inten    --     11.6852                43.2675                98.2822

                     16                     17                     18
                      A                      A                      A
 Frequencies --   1405.6309              1430.7584              1484.0228
 Red. masses --      1.3818                 1.7316                 1.0492
 Frc consts  --      1.6086                 2.0885                 1.3615
 IR Inten    --      7.2244                20.2910                 6.8537

                     19                     20                     21
                      A                      A                      A
 Frequencies --   1507.3683              1643.2221              1740.0694
 Red. masses --      1.1362                 1.1818                 6.2482
 Frc consts  --      1.5210                 1.8801                11.1465
 IR Inten    --      6.5876                54.5664                79.1607

                     22                     23                     24
                      A                      A                      A
 Frequencies --   3056.4300              3116.9908              3165.9114
 Red. masses --      1.0383                 1.1012                 1.1002
 Frc consts  --      5.7146                 6.3036                 6.4971
 IR Inten    --     15.1678                15.3698                 4.2877

                     25                     26                     27
                      A                      A                      A
 Frequencies --   3537.3163              3649.0180              3831.5214
 Red. masses --      1.0470                 1.0979                 1.0678
 Frc consts  --      7.7187                 8.6129                 9.2359
 IR Inten    --      6.7678                 8.6041                58.3199

 - Thermochemistry -
 -------------------
 Temperature   298.150 Kelvin.  Pressure   1.00000 Atm.
 Atom     1 has atomic number  6 and mass  12.00000

 Molecular mass:    74.04801 amu.
 Principal axes and moments of inertia in atomic units:
                           1         2         3
     Eigenvalues --   201.36295 426.44840 613.83854
           X            0.99990   0.01129  -0.00840
           Y           -0.01125   0.99993   0.00483
           Z            0.00845  -0.00473   0.99995
 This molecule is an asymmetric top.
 Rotational symmetry number  1.
 Rotational temperatures (Kelvin)      0.43014     0.20311     0.14110
 Rotational constants (GHZ):           8.96263     4.23203     2.94009
 Zero-point vibrational energy     237013.7 (Joules/Mol)
                                   56.64763 (Kcal/Mol)
 Warning -- explicit consideration of   8 degrees of freedom as
           vibrations may cause significant error
 Vibrational temperatures:     85.28   394.56   435.04   487.98   542.17
          (Kelvin)            627.83   748.15   877.89  1044.21  1213.60
                             1404.85  1469.05  1522.46  1689.62  1927.57
                             2022.39  2058.54  2135.18  2168.76  2364.23
                             2503.57  4397.52  4484.65  4555.03  5089.40
                             5250.12  5512.70

 Zero-point correction=                           0.090274 (Hartree/Particle)
 Thermal correction to Energy=                    0.096468
 Thermal correction to Enthalpy=                  0.097412
 Thermal correction to Gibbs Free Energy=         0.060947
 Sum of electronic and zero-point Energies=           -264.416228
 Sum of electronic and thermal Energies=              -264.410034
 Sum of electronic and thermal Enthalpies=            -264.409090
 Sum of electronic and thermal Free Energies=         -264.445555

                     E (Thermal)             CV                S
                      KCal/Mol        Cal/Mol-Kelvin    Cal/Mol-Kelvin
 Total                   60.535             21.268             76.746
 Electronic               0.000              0.000              0.000
 Translational            0.889              2.981             38.822
 Rotational               0.889              2.981             25.470
 Vibrational             58.757             15.307             12.454
 Vibration     1          0.597              1.974              4.481
 Vibration     2          0.677              1.721              1.569
 Vibration     3          0.694              1.669              1.404
 Vibration     4          0.719              1.597              1.216
 Vibration     5          0.747              1.520              1.052
 Vibration     6          0.797              1.391              0.838
 Vibration     7          0.875              1.206              0.610
 Vibration     8          0.969              1.010              0.433

 Optimization completed.
    -- Stationary point found.
 Normal termination of Gaussian 09 at Fri Sep 10 20:44:15 2021.
