 Gaussian 09, Revision E.01,
 Gaussian 09:  ES64L-G09RevE.01 30-Nov-2015

 ----------------------------
 #P OPT Freq B3LYP/6-31G(d,p)
 ----------------------------

 ---------
 Frag_1063
 ---------
 Symbolic Z-matrix:
 Charge =  0 Multiplicity = 1

 SCF Done:  E(RB3LYP) =  -172.016331232     A.U. after   13 cycles
 SCF Done:  E(RB3LYP) =  -172.016410289     A.U. after   10 cycles
 SCF Done:  E(RB3LYP) =  -172.016304649     A.U. after   12 cycles
 SCF Done:  E(RB3LYP) =  -172.016410660     A.U. after   11 cycles
 SCF Done:  E(RB3LYP) =  -172.016397991     A.U. after    9 cycles
 SCF Done:  E(RB3LYP) =  -172.016414250     A.U. after    8 cycles
 SCF Done:  E(RB3LYP) =  -172.016414456     A.U. after    7 cycles
 Optimization completed.
    -- Stationary point found.
 Normal termination of Gaussian 09 at Thu Sep  8 14:53:07 2022.

 ----------------------------------------------------------------------
 #P Geom=AllCheck Guess=TCheck SCRF=Check GenChk RB3LYP/6-31G(d,p) Freq
 ----------------------------------------------------------------------

 Structure from the checkpoint file:  "B3LYP6-31Gdp.Frag_1063.chk"
 ---------
 Frag_1063
 ---------
 Charge =  0 Multiplicity = 1

                         Standard orientation:
 ---------------------------------------------------------------------
 Center     Atomic      Atomic             Coordinates (Angstroms)
 Number     Number       Type             X           Y           Z
 ---------------------------------------------------------------------
      1          6           0       -1.924352   -0.181946    0.007870
      2          6           0       -0.661523    0.159735    0.016326
      3          6           0        0.604286    0.511131   -0.011623
      4          7           0        1.717355   -0.353633   -0.092624
      5          1           0       -2.498454   -0.295451    0.927680
      6          1           0       -2.466938   -0.367963   -0.919462
      7          1           0        0.862666    1.568566   -0.049497
      8          1           0        1.481350   -1.315234    0.124535
      9          1           0        2.489425   -0.048007    0.489680
 ---------------------------------------------------------------------

 SCF Done:  E(RB3LYP) =  -172.016414456     A.U. after    1 cycles

 The electronic state is 1-A.
 Alpha  occ. eigenvalues --  -14.33718 -10.21947 -10.18575 -10.17874  -0.90125
 Alpha  occ. eigenvalues --   -0.76071  -0.67557  -0.54164  -0.49620  -0.45847
 Alpha  occ. eigenvalues --   -0.42705  -0.41450  -0.32849  -0.25888  -0.20221
 Alpha virt. eigenvalues --    0.01528   0.04591   0.10387   0.13325   0.13836
 Alpha virt. eigenvalues --    0.17382   0.22304   0.31369   0.33717   0.37403
 Alpha virt. eigenvalues --    0.45164   0.54550   0.55277   0.61832   0.66135

 Mulliken charges:
               1
     1  C   -0.397058
     2  C    0.238465
     3  C   -0.107373
     4  N   -0.584784
     5  H    0.110345
     6  H    0.113845
     7  H    0.118029
     8  H    0.253731
     9  H    0.254800
 Sum of Mulliken charges =  -0.00000

 Dipole moment (field-independent basis, Debye):
    X=              0.8099    Y=             -0.3009    Z=              1.1877  Tot=              1.4687
 Quadrupole moment (field-independent basis, Debye-Ang):
   XX=            -20.8940   YY=            -22.6708   ZZ=            -25.4114
   XY=              0.6009   XZ=              3.0561   YZ=             -0.4790

  Exact polarizability:  71.650   6.799  27.098   0.763   0.223  22.006
 Approx polarizability: 112.590  14.324  37.412  -0.526   0.501  29.106

                      1                      2                      3
                      A                      A                      A
 Frequencies --    213.5440               272.8441               327.7264
 Red. masses --      2.8615                 2.0057                 1.3020
 Frc consts  --      0.0769                 0.0880                 0.0824
 IR Inten    --      6.5579                18.2217                45.5914

                      4                      5                      6
                      A                      A                      A
 Frequencies --    599.4054               620.0683               749.9969
 Red. masses --      1.6497                 2.5791                 1.5665
 Frc consts  --      0.3492                 0.5842                 0.5192
 IR Inten    --     24.7657                26.8841               285.8938

                      7                      8                      9
                      A                      A                      A
 Frequencies --    901.5097               904.1230               978.0862
 Red. masses --      1.1575                 1.3084                 2.5353
 Frc consts  --      0.5543                 0.6302                 1.4290
 IR Inten    --     22.6140                39.0936                 3.2531

                     10                     11                     12
                      A                      A                      A
 Frequencies --   1039.5064              1190.3595              1238.1200
 Red. masses --      1.4134                 1.2539                 2.1870
 Frc consts  --      0.8999                 1.0468                 1.9752
 IR Inten    --      0.3134                 0.7983                57.3331

                     13                     14                     15
                      A                      A                      A
 Frequencies --   1424.8223              1524.8587              1657.4171
 Red. masses --      1.2397                 1.6467                 1.1260
 Frc consts  --      1.4828                 2.2559                 1.8224
 IR Inten    --     20.9104                22.2961                39.2989

                     16                     17                     18
                      A                      A                      A
 Frequencies --   2074.1854              3103.6796              3155.2160
 Red. masses --     10.0868                 1.0569                 1.0876
 Frc consts  --     25.5680                 5.9987                 6.3795
 IR Inten    --     19.6559                29.9451                 9.5587

                     19                     20                     21
                      A                      A                      A
 Frequencies --   3168.8330              3526.7135              3632.5057
 Red. masses --      1.1151                 1.0482                 1.0965
 Frc consts  --      6.5970                 7.6812                 8.5242
 IR Inten    --     15.1407                 2.7330                 4.3196

 - Thermochemistry -
 -------------------
 Temperature   298.150 Kelvin.  Pressure   1.00000 Atm.
 Atom     1 has atomic number  6 and mass  12.00000

 Molecular mass:    55.04220 amu.
 Principal axes and moments of inertia in atomic units:
                           1         2         3
     Eigenvalues --    43.25225 425.32832 453.72838
           X            0.99990   0.00896   0.01111
           Y           -0.00868   0.99967  -0.02433
           Z           -0.01133   0.02423   0.99964
 This molecule is an asymmetric top.
 Rotational symmetry number  1.
 Rotational temperatures (Kelvin)      2.00253     0.20364     0.19089
 Rotational constants (GHZ):          41.72595     4.24317     3.97758
 Zero-point vibrational energy     193218.0 (Joules/Mol)
                                   46.18020 (Kcal/Mol)
 Warning -- explicit consideration of   5 degrees of freedom as
           vibrations may cause significant error
 Vibrational temperatures:    307.24   392.56   471.52   862.41   892.14
          (Kelvin)           1079.08  1297.07  1300.83  1407.25  1495.62
                             1712.66  1781.38  2050.00  2193.93  2384.65
                             2984.29  4465.50  4539.65  4559.24  5074.15
                             5226.36

 Zero-point correction=                           0.073593 (Hartree/Particle)
 Thermal correction to Energy=                    0.078435
 Thermal correction to Enthalpy=                  0.079379
 Thermal correction to Gibbs Free Energy=         0.047009
 Sum of electronic and zero-point Energies=           -171.942822
 Sum of electronic and thermal Energies=              -171.937979
 Sum of electronic and thermal Enthalpies=            -171.937035
 Sum of electronic and thermal Free Energies=         -171.969405

                     E (Thermal)             CV                S
                      KCal/Mol        Cal/Mol-Kelvin    Cal/Mol-Kelvin
 Total                   49.219             16.225             68.129
 Electronic               0.000              0.000              0.000
 Translational            0.889              2.981             37.938
 Rotational               0.889              2.981             23.638
 Vibrational             47.441             10.264              6.552
 Vibration     1          0.644              1.820              2.013
 Vibration     2          0.676              1.723              1.578
 Vibration     3          0.711              1.620              1.271
 Vibration     4          0.957              1.033              0.451
 Vibration     5          0.980              0.990              0.416

 Optimization completed.
    -- Stationary point found.
 Normal termination of Gaussian 09 at Thu Sep  8 14:53:13 2022.
