 Gaussian 09, Revision E.01,
 Gaussian 09:  ES64L-G09RevE.01 30-Nov-2015

 --------------------------------
 #P OPT=calcfc Freq B3LYP/6-31G**
 --------------------------------

 --------
 Frag_394
 --------
 Symbolic Z-matrix:
 Charge =  0 Multiplicity = 1

 SCF Done:  E(RB3LYP) =  -305.061563471     A.U. after   13 cycles
 SCF Done:  E(RB3LYP) =  -305.072019343     A.U. after   13 cycles
 SCF Done:  E(RB3LYP) =  -305.065922226     A.U. after   13 cycles
 SCF Done:  E(RB3LYP) =  -305.072157234     A.U. after   10 cycles
 SCF Done:  E(RB3LYP) =  -305.072740442     A.U. after   10 cycles
 SCF Done:  E(RB3LYP) =  -305.072781140     A.U. after   10 cycles
 SCF Done:  E(RB3LYP) =  -305.072783689     A.U. after    8 cycles
 SCF Done:  E(RB3LYP) =  -305.072783995     A.U. after    7 cycles
 Optimization completed.
    -- Stationary point found.
 Normal termination of Gaussian 09 at Fri Sep 10 21:05:03 2021.

 ----------------------------------------------------------------------
 #P Geom=AllCheck Guess=TCheck SCRF=Check GenChk RB3LYP/6-31G(d,p) Freq
 ----------------------------------------------------------------------

 Structure from the checkpoint file:  "/public/home/users/caep010/.cache/gau_scr/Gau-27154.chk"
 --------
 Frag_394
 --------
 Charge =  0 Multiplicity = 1

                         Standard orientation:
 ---------------------------------------------------------------------
 Center     Atomic      Atomic             Coordinates (Angstroms)
 Number     Number       Type             X           Y           Z
 ---------------------------------------------------------------------
      1          6           0       -1.686768   -0.823638    0.002503
      2          6           0       -0.402832    0.011622   -0.027086
      3          7           0       -0.400724    0.843643   -1.218022
      4          7           0       -0.216416    0.835773    1.204721
      5          6           0        0.851863   -0.884638   -0.089879
      6          8           0        2.024403   -0.093412   -0.049604
      7          1           0       -2.568608   -0.173229    0.037276
      8          1           0       -1.714514   -1.474068    0.883581
      9          1           0       -1.763003   -1.445606   -0.893830
     10          1           0        0.503618    1.304099   -1.291688
     11          1           0       -1.120097    1.561199   -1.166395
     12          1           0       -0.872958    1.613421    1.200220
     13          1           0       -0.431026    0.283916    2.035302
     14          1           0        0.820126   -1.606276    0.744852
     15          1           0        0.857800   -1.445946   -1.028015
     16          1           0        1.839846    0.553797    0.655413
 ---------------------------------------------------------------------

 SCF Done:  E(RB3LYP) =  -305.072783995     A.U. after    1 cycles

 The electronic state is 1-A.
 Alpha  occ. eigenvalues --  -19.12803 -14.32538 -14.31068 -10.24561 -10.21918
 Alpha  occ. eigenvalues --  -10.17983  -1.00732  -0.91813  -0.83868  -0.73573
 Alpha  occ. eigenvalues --   -0.67210  -0.57484  -0.51360  -0.49073  -0.47107
 Alpha  occ. eigenvalues --   -0.46226  -0.41993  -0.40384  -0.39085  -0.38005
 Alpha  occ. eigenvalues --   -0.37073  -0.31187  -0.26565  -0.25324  -0.24040
 Alpha virt. eigenvalues --    0.05814   0.11394   0.11697   0.12297   0.14929
 Alpha virt. eigenvalues --    0.15788   0.16152   0.17811   0.18811   0.21002
 Alpha virt. eigenvalues --    0.23020   0.23915   0.24949   0.27179   0.27938

 Mulliken charges:
               1
     1  C   -0.298244
     2  C    0.192553
     3  N   -0.576073
     4  N   -0.611545
     5  C    0.106928
     6  O   -0.554209
     7  H    0.092063
     8  H    0.092755
     9  H    0.122315
    10  H    0.248895
    11  H    0.225658
    12  H    0.231369
    13  H    0.237485
    14  H    0.065170
    15  H    0.111356
    16  H    0.313525
 Sum of Mulliken charges =  -0.00000

 Dipole moment (field-independent basis, Debye):
    X=             -2.6274    Y=              0.8663    Z=              1.8626  Tot=              3.3351
 Quadrupole moment (field-independent basis, Debye-Ang):
   XX=            -41.6425   YY=            -34.1544   ZZ=            -38.3898
   XY=             -0.8888   XZ=             -0.7671   YZ=             -0.5835

  Exact polarizability:  52.145  -0.452  50.970  -0.661  -0.625  49.523
 Approx polarizability:  69.277  -1.039  69.442  -1.247  -0.930  70.221

                      1                      2                      3
                      A                      A                      A
 Frequencies --    169.6530               243.6435               245.4264
 Red. masses --      3.1421                 1.2880                 1.9371
 Frc consts  --      0.0533                 0.0450                 0.0687
 IR Inten    --     10.7395                 0.7316                 0.1792

                      4                      5                      6
                      A                      A                      A
 Frequencies --    275.8274               333.4725               363.5902
 Red. masses --      1.1246                 1.3096                 2.4286
 Frc consts  --      0.0504                 0.0858                 0.1892
 IR Inten    --     12.6084                29.1524                 3.9382

                      7                      8                      9
                      A                      A                      A
 Frequencies --    404.1694               446.6465               461.6255
 Red. masses --      1.8936                 2.1280                 2.5457
 Frc consts  --      0.1822                 0.2501                 0.3196
 IR Inten    --     23.1321                 1.0265                11.3463

                     10                     11                     12
                      A                      A                      A
 Frequencies --    572.8629               632.0971               777.1614
 Red. masses --      2.3259                 1.2829                 4.3534
 Frc consts  --      0.4497                 0.3020                 1.5492
 IR Inten    --     22.2854               165.3279                25.0376

                     13                     14                     15
                      A                      A                      A
 Frequencies --    865.9715               879.7737               922.4172
 Red. masses --      1.5430                 1.9034                 1.3545
 Frc consts  --      0.6817                 0.8680                 0.6790
 IR Inten    --    156.0890                78.9163                31.0836

                     16                     17                     18
                      A                      A                      A
 Frequencies --    944.9211              1000.3625              1076.3073
 Red. masses --      1.8054                 1.3562                 1.8740
 Frc consts  --      0.9497                 0.7996                 1.2790
 IR Inten    --     16.7671                 3.4657                28.8592

                     19                     20                     21
                      A                      A                      A
 Frequencies --   1086.3420              1096.1605              1174.3191
 Red. masses --      1.7258                 2.4363                 1.7311
 Frc consts  --      1.2000                 1.7247                 1.4065
 IR Inten    --     10.1909                83.8731                31.4009

                     22                     23                     24
                      A                      A                      A
 Frequencies --   1244.8076              1316.4654              1376.2802
 Red. masses --      1.4578                 1.6362                 1.9602
 Frc consts  --      1.3309                 1.6707                 2.1876
 IR Inten    --     51.5197                 5.5668                12.1624

                     25                     26                     27
                      A                      A                      A
 Frequencies --   1390.4380              1422.9706              1457.0941
 Red. masses --      1.3726                 1.3305                 1.2819
 Frc consts  --      1.5635                 1.5873                 1.6036
 IR Inten    --     26.9914                 7.8524                74.2289

                     28                     29                     30
                      A                      A                      A
 Frequencies --   1499.9545              1511.4135              1520.3018
 Red. masses --      1.0502                 1.0839                 1.0839
 Frc consts  --      1.3921                 1.4588                 1.4760
 IR Inten    --      0.7513                 2.8823                 3.8870

                     31                     32                     33
                      A                      A                      A
 Frequencies --   1646.7593              1655.8903              2969.1093
 Red. masses --      1.0995                 1.1047                 1.0725
 Frc consts  --      1.7567                 1.7846                 5.5703
 IR Inten    --     32.9380                32.6365                75.2867

                     34                     35                     36
                      A                      A                      A
 Frequencies --   3038.3918              3104.3403              3111.7229
 Red. masses --      1.0367                 1.1016                 1.0923
 Frc consts  --      5.6390                 6.2549                 6.2314
 IR Inten    --     20.8973                32.2894                17.6124

                     37                     38                     39
                      A                      A                      A
 Frequencies --   3128.8167              3467.8600              3488.5375
 Red. masses --      1.1015                 1.0502                 1.0483
 Frc consts  --      6.3530                 7.4415                 7.5168
 IR Inten    --     29.7458                 1.6807                 4.7113

                     40                     41                     42
                      A                      A                      A
 Frequencies --   3560.8076              3581.9738              3677.4562
 Red. masses --      1.0917                 1.0934                 1.0645
 Frc consts  --      8.1557                 8.2658                 8.4815
 IR Inten    --      0.3712                 1.7051                62.5745

 - Thermochemistry -
 -------------------
 Temperature   298.150 Kelvin.  Pressure   1.00000 Atm.
 Atom     1 has atomic number  6 and mass  12.00000

 Molecular mass:    90.07931 amu.
 Principal axes and moments of inertia in atomic units:
                           1         2         3
     Eigenvalues --   382.68360 665.37779 668.02788
           X            0.99983   0.00918  -0.01575
           Y           -0.01746   0.73087  -0.68229
           Z            0.00525   0.68245   0.73091
 This molecule is an asymmetric top.
 Rotational symmetry number  1.
 Rotational temperatures (Kelvin)      0.22633     0.13017     0.12966
 Rotational constants (GHZ):           4.71601     2.71236     2.70160
 Zero-point vibrational energy     377685.8 (Joules/Mol)
                                   90.26908 (Kcal/Mol)
 Warning -- explicit consideration of  10 degrees of freedom as
           vibrations may cause significant error
 Vibrational temperatures:    244.09   350.55   353.11   396.85   479.79
          (Kelvin)            523.12   581.51   642.62   664.18   824.22
                              909.45  1118.16  1245.94  1265.80  1327.15
                             1359.53  1439.30  1548.56  1563.00  1577.13
                             1689.58  1791.00  1894.10  1980.16  2000.53
                             2047.33  2096.43  2158.10  2174.58  2187.37
                             2369.32  2382.45  4271.88  4371.56  4466.45
                             4477.07  4501.66  4989.47  5019.22  5123.20
                             5153.65  5291.03

 Zero-point correction=                           0.143853 (Hartree/Particle)
 Thermal correction to Energy=                    0.151113
 Thermal correction to Enthalpy=                  0.152057
 Thermal correction to Gibbs Free Energy=         0.113745
 Sum of electronic and zero-point Energies=           -304.928931
 Sum of electronic and thermal Energies=              -304.921671
 Sum of electronic and thermal Enthalpies=            -304.920727
 Sum of electronic and thermal Free Energies=         -304.959039

                     E (Thermal)             CV                S
                      KCal/Mol        Cal/Mol-Kelvin    Cal/Mol-Kelvin
 Total                   94.825             27.662             80.634
 Electronic               0.000              0.000              0.000
 Translational            0.889              2.981             39.407
 Rotational               0.889              2.981             26.634
 Vibrational             93.047             21.700             14.594
 Vibration     1          0.625              1.880              2.439
 Vibration     2          0.659              1.773              1.776
 Vibration     3          0.660              1.770              1.763
 Vibration     4          0.677              1.718              1.559
 Vibration     5          0.715              1.609              1.243
 Vibration     6          0.737              1.547              1.107
 Vibration     7          0.769              1.461              0.947
 Vibration     8          0.806              1.368              0.806
 Vibration     9          0.819              1.335              0.761
 Vibration    10          0.929              1.090              0.499

 Optimization completed.
    -- Stationary point found.
 Normal termination of Gaussian 09 at Fri Sep 10 21:05:16 2021.
