 Gaussian 09, Revision E.01,
 Gaussian 09:  ES64L-G09RevE.01 30-Nov-2015

 ----------------------------
 #P OPT Freq B3LYP/6-31G(d,p)
 ----------------------------

 --------
 Frag_530
 --------
 Symbolic Z-matrix:
 Charge =  0 Multiplicity = 1

 SCF Done:  E(RB3LYP) =  -338.614938594     A.U. after   13 cycles
 SCF Done:  E(RB3LYP) =  -338.615103035     A.U. after    8 cycles
 SCF Done:  E(RB3LYP) =  -338.615110680     A.U. after    8 cycles
 SCF Done:  E(RB3LYP) =  -338.615107959     A.U. after    8 cycles
 SCF Done:  E(RB3LYP) =  -338.615112260     A.U. after    7 cycles
 Optimization completed.
    -- Stationary point found.
 Normal termination of Gaussian 09 at Thu Sep  8 15:01:49 2022.

 ----------------------------------------------------------------------
 #P Geom=AllCheck Guess=TCheck SCRF=Check GenChk RB3LYP/6-31G(d,p) Freq
 ----------------------------------------------------------------------

 Structure from the checkpoint file:  "B3LYP6-31Gdp.Frag_530.chk"
 --------
 Frag_530
 --------
 Charge =  0 Multiplicity = 1

                         Standard orientation:
 ---------------------------------------------------------------------
 Center     Atomic      Atomic             Coordinates (Angstroms)
 Number     Number       Type             X           Y           Z
 ---------------------------------------------------------------------
      1          7           0       -1.714324    0.385439    0.305086
      2          6           0       -0.659879   -0.072094   -0.397166
      3          8           0       -0.685420   -0.551633   -1.525164
      4          6           0        0.659879    0.072094    0.397166
      5          7           0        1.714324   -0.385439   -0.305086
      6          8           0        0.685420    0.551633    1.525164
      7          1           0       -2.639642    0.353102   -0.091395
      8          1           0       -1.545522    0.756190    1.229564
      9          1           0        1.545522   -0.756190   -1.229564
     10          1           0        2.639642   -0.353102    0.091395
 ---------------------------------------------------------------------

 SCF Done:  E(RB3LYP) =  -338.615112260     A.U. after    1 cycles

 The electronic state is 1-AG.
 Alpha  occ. eigenvalues --  -19.13011 -19.13010 -14.36842 -14.36842 -10.30054
 Alpha  occ. eigenvalues --  -10.30035  -1.05759  -1.03148  -0.92457  -0.91070
 Alpha  occ. eigenvalues --   -0.67584  -0.59250  -0.56869  -0.53961  -0.47511
 Alpha  occ. eigenvalues --   -0.44671  -0.44541  -0.40887  -0.38241  -0.31179
 Alpha  occ. eigenvalues --   -0.28785  -0.27389  -0.24401
 Alpha virt. eigenvalues --   -0.03448   0.08230   0.08654   0.10340   0.14151
 Alpha virt. eigenvalues --    0.14321   0.25189   0.28208   0.31469   0.36033
 Alpha virt. eigenvalues --    0.38423   0.52188   0.54226   0.60688   0.62876

 Mulliken charges:
               1
     1  N   -0.596067
     2  C    0.536082
     3  O   -0.524158
     4  C    0.536082
     5  N   -0.596067
     6  O   -0.524158
     7  H    0.282935
     8  H    0.301209
     9  H    0.301209
    10  H    0.282935
 Sum of Mulliken charges =   0.00000

 Dipole moment (field-independent basis, Debye):
    X=              0.0000    Y=              0.0000    Z=             -0.0000  Tot=              0.0000
 Quadrupole moment (field-independent basis, Debye-Ang):
   XX=            -21.7039   YY=            -34.6696   ZZ=            -40.1726
   XY=             -4.2447   XZ=             -5.4274   YZ=             -1.5713

  Exact polarizability:  46.455  -5.750  23.077  -3.399  10.885  41.788
 Approx polarizability:  59.430  -9.233  36.745  -9.743  23.308  76.409

                      1                      2                      3
                     AU                     AU                     AU
 Frequencies --     96.4343               280.2357               344.1430
 Red. masses --     10.0633                 4.0102                 1.1796
 Frc consts  --      0.0551                 0.1856                 0.0823
 IR Inten    --      2.1987                40.2313               302.9295

                      4                      5                      6
                     AG                     AG                     AU
 Frequencies --    357.3390               399.7141               484.4786
 Red. masses --      1.2316                 3.6479                 3.2482
 Frc consts  --      0.0927                 0.3434                 0.4492
 IR Inten    --      0.0000                 0.0000               220.1733

                      7                      8                      9
                     AG                     AU                     AG
 Frequencies --    532.4310               574.0234               667.8010
 Red. masses --      6.5847                 2.9894                 1.0536
 Frc consts  --      1.0998                 0.5804                 0.2768
 IR Inten    --      0.0000                22.9248                 0.0000

                     10                     11                     12
                     AU                     AG                     AG
 Frequencies --    684.3239               769.3742               813.3612
 Red. masses --      1.2003                 3.2272                 8.8707
 Frc consts  --      0.3312                 1.1255                 3.4576
 IR Inten    --      0.8019                 0.0000                 0.0000

                     13                     14                     15
                     AU                     AG                     AU
 Frequencies --   1098.6793              1106.7248              1317.9667
 Red. masses --      1.8712                 1.9556                 2.9215
 Frc consts  --      1.3308                 1.4113                 2.9899
 IR Inten    --     10.0796                 0.0000               120.1370

                     16                     17                     18
                     AG                     AU                     AG
 Frequencies --   1417.2057              1595.8075              1597.6924
 Red. masses --      2.5779                 1.3020                 1.6214
 Frc consts  --      3.0506                 1.9535                 2.4385
 IR Inten    --      0.0000               343.1026                 0.0000

                     19                     20                     21
                     AU                     AG                     AG
 Frequencies --   1797.5992              1825.3311              3591.6095
 Red. masses --     11.5599                 7.9115                 1.0445
 Frc consts  --     22.0084                15.5307                 7.9385
 IR Inten    --    564.5728                 0.0000                 0.0000

                     22                     23                     24
                     AU                     AG                     AU
 Frequencies --   3591.8059              3742.1123              3742.7027
 Red. masses --      1.0449                 1.1056                 1.1060
 Frc consts  --      7.9423                 9.1217                 9.1281
 IR Inten    --    115.9809                 0.0000               162.9581

 - Thermochemistry -
 -------------------
 Temperature   298.150 Kelvin.  Pressure   1.00000 Atm.
 Atom     1 has atomic number  7 and mass  14.00307

 Molecular mass:    88.02728 amu.
 Principal axes and moments of inertia in atomic units:
                           1         2         3
     Eigenvalues --   321.52683 485.31529 806.84212
           X            0.91331  -0.38413   0.13532
           Y            0.03803   0.41125   0.91073
           Z            0.40549   0.82663  -0.39020
 This molecule is an asymmetric top.
 Rotational symmetry number  1.
 Rotational temperatures (Kelvin)      0.26938     0.17847     0.10735
 Rotational constants (GHZ):           5.61303     3.71870     2.23680
 Zero-point vibrational energy     193967.9 (Joules/Mol)
                                   46.35943 (Kcal/Mol)
 Warning -- explicit consideration of   8 degrees of freedom as
           vibrations may cause significant error
 Vibrational temperatures:    138.75   403.20   495.14   514.13   575.10
          (Kelvin)            697.06   766.05   825.89   960.82   984.59
                             1106.96  1170.24  1580.75  1592.33  1896.26
                             2039.04  2296.01  2298.72  2586.34  2626.24
                             5167.52  5167.80  5384.06  5384.91

 Zero-point correction=                           0.073878 (Hartree/Particle)
 Thermal correction to Energy=                    0.080024
 Thermal correction to Enthalpy=                  0.080968
 Thermal correction to Gibbs Free Energy=         0.044342
 Sum of electronic and zero-point Energies=           -338.541234
 Sum of electronic and thermal Energies=              -338.535088
 Sum of electronic and thermal Enthalpies=            -338.534144
 Sum of electronic and thermal Free Energies=         -338.570770

                     E (Thermal)             CV                S
                      KCal/Mol        Cal/Mol-Kelvin    Cal/Mol-Kelvin
 Total                   50.216             21.825             77.086
 Electronic               0.000              0.000              0.000
 Translational            0.889              2.981             39.338
 Rotational               0.889              2.981             26.335
 Vibrational             48.438             15.863             11.413
 Vibration     1          0.603              1.952              3.525
 Vibration     2          0.680              1.710              1.532
 Vibration     3          0.723              1.587              1.193
 Vibration     4          0.733              1.560              1.134
 Vibration     5          0.766              1.471              0.964
 Vibration     6          0.841              1.284              0.698
 Vibration     7          0.887              1.178              0.582
 Vibration     8          0.930              1.087              0.497

 Optimization completed.
    -- Stationary point found.
 Normal termination of Gaussian 09 at Thu Sep  8 15:01:56 2022.
