 Gaussian 09, Revision E.01,
 Gaussian 09:  ES64L-G09RevE.01 30-Nov-2015

 ----------------------------
 #P OPT Freq B3LYP/6-31G(d,p)
 ----------------------------

 --------
 Frag_818
 --------
 Symbolic Z-matrix:
 Charge =  0 Multiplicity = 1

 SCF Done:  E(RB3LYP) =  -304.310307194     A.U. after   13 cycles
 SCF Done:  E(RB3LYP) =  -304.310417265     A.U. after    9 cycles
 SCF Done:  E(RB3LYP) =  -304.310423589     A.U. after    8 cycles
 Optimization completed.
    -- Stationary point found.
 Normal termination of Gaussian 09 at Thu Sep  8 14:59:53 2022.

 ----------------------------------------------------------------------
 #P Geom=AllCheck Guess=TCheck SCRF=Check GenChk RB3LYP/6-31G(d,p) Freq
 ----------------------------------------------------------------------

 Structure from the checkpoint file:  "B3LYP6-31Gdp.Frag_818.chk"
 --------
 Frag_818
 --------
 Charge =  0 Multiplicity = 1

                         Standard orientation:
 ---------------------------------------------------------------------
 Center     Atomic      Atomic             Coordinates (Angstroms)
 Number     Number       Type             X           Y           Z
 ---------------------------------------------------------------------
      1          6           0        1.834043   -0.032885    0.000042
      2          8           0        0.569921   -0.715249   -0.000037
      3          6           0       -0.495828    0.092007   -0.000129
      4          8           0       -0.481863    1.303447    0.000014
      5          8           0       -1.605063   -0.672109    0.000047
      6          1           0        1.933892    0.593331   -0.889693
      7          1           0        2.587251   -0.819986    0.000112
      8          1           0        1.933766    0.593367    0.889766
      9          1           0       -2.348157   -0.050151    0.000149
 ---------------------------------------------------------------------

 SCF Done:  E(RB3LYP) =  -304.310423589     A.U. after    1 cycles

 The electronic state is 1-A.
 Alpha  occ. eigenvalues --  -19.20318 -19.20268 -19.13886 -10.36490 -10.24822
 Alpha  occ. eigenvalues --   -1.14534  -1.05926  -1.01939  -0.74193  -0.61835
 Alpha  occ. eigenvalues --   -0.54429  -0.49966  -0.49104  -0.44815  -0.43027
 Alpha  occ. eigenvalues --   -0.42400  -0.36905  -0.32892  -0.30957  -0.28987
 Alpha virt. eigenvalues --    0.03863   0.06635   0.11021   0.13392   0.15201
 Alpha virt. eigenvalues --    0.16812   0.22951   0.32836   0.37663   0.50336
 Alpha virt. eigenvalues --    0.50779   0.53710   0.56880   0.57538   0.63413

 Mulliken charges:
               1
     1  C   -0.081372
     2  O   -0.437417
     3  C    0.753574
     4  O   -0.484009
     5  O   -0.481507
     6  H    0.134028
     7  H    0.127809
     8  H    0.134032
     9  H    0.334861
 Sum of Mulliken charges =  -0.00000

 Dipole moment (field-independent basis, Debye):
    X=              0.5004    Y=             -0.2015    Z=             -0.0000  Tot=              0.5395
 Quadrupole moment (field-independent basis, Debye-Ang):
   XX=            -19.2758   YY=            -34.2711   ZZ=            -27.7225
   XY=             -0.6032   XZ=             -0.0002   YZ=              0.0000

  Exact polarizability:  38.835  -0.837  30.044  -0.000   0.000  20.596
 Approx polarizability:  46.316  -0.721  50.322  -0.001   0.001  27.814

                      1                      2                      3
                      A                      A                      A
 Frequencies --    113.7760               176.7129               295.4274
 Red. masses --      1.1338                 3.3667                 3.7554
 Frc consts  --      0.0086                 0.0619                 0.1931
 IR Inten    --      0.3597                 6.8072                10.3425

                      4                      5                      6
                      A                      A                      A
 Frequencies --    525.1763               557.1018               667.6134
 Red. masses --      5.1915                 1.0997                 5.9031
 Frc consts  --      0.8436                 0.2011                 1.5502
 IR Inten    --     41.1084               107.5736                 2.1900

                      7                      8                      9
                      A                      A                      A
 Frequencies --    786.2993               917.5259              1109.9622
 Red. masses --     11.1128                 4.1916                 6.5336
 Frc consts  --      4.0481                 2.0791                 4.7426
 IR Inten    --     43.7199                15.4238                 5.6612

                     10                     11                     12
                      A                      A                      A
 Frequencies --   1183.7999              1217.8585              1228.2405
 Red. masses --      1.2682                 1.7255                 1.7597
 Frc consts  --      1.0471                 1.5079                 1.5640
 IR Inten    --      0.9607               305.4512               183.9786

                     13                     14                     15
                      A                      A                      A
 Frequencies --   1422.5920              1496.1673              1497.8035
 Red. masses --      2.0489                 1.3849                 1.0465
 Frc consts  --      2.4430                 1.8265                 1.3832
 IR Inten    --    198.9950                80.7719                 6.3917

                     16                     17                     18
                      A                      A                      A
 Frequencies --   1512.8593              1848.4854              3066.5367
 Red. masses --      1.0795                 9.7185                 1.0302
 Frc consts  --      1.4557                19.5651                 5.7077
 IR Inten    --      5.7528               364.0453                26.3388

                     19                     20                     21
                      A                      A                      A
 Frequencies --   3145.0744              3178.9334              3809.8358
 Red. masses --      1.1075                 1.1068                 1.0648
 Frc consts  --      6.4545                 6.5899                 9.1064
 IR Inten    --     20.6854                15.1098                82.1372

 - Thermochemistry -
 -------------------
 Temperature   298.150 Kelvin.  Pressure   1.00000 Atm.
 Atom     1 has atomic number  6 and mass  12.00000

 Molecular mass:    76.01604 amu.
 Principal axes and moments of inertia in atomic units:
                           1         2         3
     Eigenvalues --   163.12764 409.42625 561.15772
           X            0.99999   0.00443  -0.00000
           Y           -0.00443   0.99999  -0.00000
           Z            0.00000   0.00000   1.00000
 This molecule is an asymmetric top.
 Rotational symmetry number  1.
 Rotational temperatures (Kelvin)      0.53096     0.21155     0.15435
 Rotational constants (GHZ):          11.06337     4.40798     3.21610
 Zero-point vibrational energy     177991.1 (Joules/Mol)
                                   42.54088 (Kcal/Mol)
 Warning -- explicit consideration of   5 degrees of freedom as
           vibrations may cause significant error
 Vibrational temperatures:    163.70   254.25   425.05   755.61   801.54
          (Kelvin)            960.55  1131.31  1320.11  1596.99  1703.22
                             1752.22  1767.16  2046.79  2152.65  2155.00
                             2176.66  2659.55  4412.06  4525.05  4573.77
                             5481.50

 Zero-point correction=                           0.067793 (Hartree/Particle)
 Thermal correction to Energy=                    0.073104
 Thermal correction to Enthalpy=                  0.074048
 Thermal correction to Gibbs Free Energy=         0.039317
 Sum of electronic and zero-point Energies=           -304.242630
 Sum of electronic and thermal Energies=              -304.237320
 Sum of electronic and thermal Enthalpies=            -304.236375
 Sum of electronic and thermal Free Energies=         -304.271106

                     E (Thermal)             CV                S
                      KCal/Mol        Cal/Mol-Kelvin    Cal/Mol-Kelvin
 Total                   45.873             17.024             73.097
 Electronic               0.000              0.000              0.000
 Translational            0.889              2.981             38.901
 Rotational               0.889              2.981             25.131
 Vibrational             44.096             11.063              9.066
 Vibration     1          0.607              1.938              3.203
 Vibration     2          0.628              1.871              2.363
 Vibration     3          0.690              1.682              1.443
 Vibration     4          0.880              1.194              0.598
 Vibration     5          0.913              1.124              0.530

 Optimization completed.
    -- Stationary point found.
 Normal termination of Gaussian 09 at Thu Sep  8 15:00:00 2022.
