 Gaussian 09, Revision E.01,
 Gaussian 09:  ES64L-G09RevE.01 30-Nov-2015

 -------------------------
 #P OPT Freq B3LYP/6-31G**
 -------------------------

 --------
 Frag_153
 --------
 Symbolic Z-matrix:
 Charge =  0 Multiplicity = 1

 SCF Done:  E(RB3LYP) =  -292.426881375     A.U. after   14 cycles
 SCF Done:  E(RB3LYP) =  -292.431210794     A.U. after   12 cycles
 SCF Done:  E(RB3LYP) =  -292.431488947     A.U. after   10 cycles
 SCF Done:  E(RB3LYP) =  -292.431531513     A.U. after   10 cycles
 SCF Done:  E(RB3LYP) =  -292.431658394     A.U. after    9 cycles
 SCF Done:  E(RB3LYP) =  -292.431679684     A.U. after    9 cycles
 SCF Done:  E(RB3LYP) =  -292.431686942     A.U. after    9 cycles
 SCF Done:  E(RB3LYP) =  -292.431689188     A.U. after    8 cycles
 SCF Done:  E(RB3LYP) =  -292.431689600     A.U. after    7 cycles
 SCF Done:  E(RB3LYP) =  -292.431689669     A.U. after    6 cycles
 Optimization completed.
    -- Stationary point found.
 Normal termination of Gaussian 09 at Sat Aug 21 01:36:22 2021.

 ----------------------------------------------------------------------
 #P Geom=AllCheck Guess=TCheck SCRF=Check GenChk RB3LYP/6-31G(d,p) Freq
 ----------------------------------------------------------------------

 Structure from the checkpoint file:  "/public/home/users/caep010/.cache/gau_scr/Gau-6631.chk"
 --------
 Frag_153
 --------
 Charge =  0 Multiplicity = 1

                         Standard orientation:
 ---------------------------------------------------------------------
 Center     Atomic      Atomic             Coordinates (Angstroms)
 Number     Number       Type             X           Y           Z
 ---------------------------------------------------------------------
      1          6           0       -1.581935    1.191459   -0.048247
      2          7           0       -0.824021    0.000001   -0.415921
      3          6           0       -1.581932   -1.191450   -0.048219
      4          6           0        0.609902   -0.000017   -0.000154
      5          6           0        0.803841   -0.000646    1.534608
      6          6           0        1.300048    1.242929   -0.598793
      7          6           0        1.300283   -1.242283   -0.599930
      8          1           0       -1.100233    2.095935   -0.422705
      9          1           0       -2.571021    1.134456   -0.514893
     10          1           0       -1.741659    1.312476    1.039654
     11          1           0       -1.741979   -1.312210    1.039659
     12          1           0       -1.099988   -2.095952   -0.422295
     13          1           0       -2.570883   -1.134704   -0.515200
     14          1           0        1.869585   -0.000615    1.786927
     15          1           0        0.357415    0.884907    1.998076
     16          1           0        0.357658   -0.886697    1.997358
     17          1           0        2.383195    1.169083   -0.462767
     18          1           0        0.980100    2.172469   -0.120059
     19          1           0        1.090287    1.315468   -1.670381
     20          1           0        1.090472   -1.313829   -1.671571
     21          1           0        2.383430   -1.168419   -0.463891
     22          1           0        0.980523   -2.172328   -0.122049
 ---------------------------------------------------------------------

 SCF Done:  E(RB3LYP) =  -292.431689669     A.U. after    1 cycles

 The electronic state is 1-A.
 Alpha  occ. eigenvalues --  -14.31450 -10.21772 -10.19311 -10.19310 -10.16757
 Alpha  occ. eigenvalues --  -10.16756 -10.16736  -0.90820  -0.78157  -0.70269
 Alpha  occ. eigenvalues --   -0.68060  -0.66815  -0.63108  -0.52578  -0.47787
 Alpha  occ. eigenvalues --   -0.44905  -0.44870  -0.42709  -0.41719  -0.39778
 Alpha  occ. eigenvalues --   -0.37539  -0.37369  -0.37221  -0.36418  -0.34834
 Alpha  occ. eigenvalues --   -0.33891  -0.32527  -0.31494  -0.19933
 Alpha virt. eigenvalues --    0.07756   0.11836   0.12479   0.13121   0.14194
 Alpha virt. eigenvalues --    0.14968   0.15337   0.16764   0.17795   0.18826
 Alpha virt. eigenvalues --    0.19276   0.19961   0.21257   0.21993   0.22111

 Mulliken charges:
               1
     1  C   -0.157131
     2  N   -0.408859
     3  C   -0.157140
     4  C    0.181770
     5  C   -0.308396
     6  C   -0.310577
     7  C   -0.310532
     8  H    0.105426
     9  H    0.101140
    10  H    0.076958
    11  H    0.076969
    12  H    0.105412
    13  H    0.101147
    14  H    0.097163
    15  H    0.099086
    16  H    0.099085
    17  H    0.095578
    18  H    0.097853
    19  H    0.110820
    20  H    0.110822
    21  H    0.095569
    22  H    0.097837
 Sum of Mulliken charges =  -0.00000

 Dipole moment (field-independent basis, Debye):
    X=              0.0912    Y=              0.0001    Z=              0.5032  Tot=              0.5114
 Quadrupole moment (field-independent basis, Debye-Ang):
   XX=            -45.9433   YY=            -46.1071   ZZ=            -48.9679
   XY=              0.0001   XZ=             -0.2309   YZ=             -0.0002

  Exact polarizability:  78.392  -0.000  72.848  -0.252  -0.000  66.379
 Approx polarizability: 102.767  -0.001  99.262   0.218  -0.000  94.853

                      1                      2                      3
                      A                      A                      A
 Frequencies --     49.2802               194.1294               221.7839
 Red. masses --      2.2202                 1.0241                 1.0713
 Frc consts  --      0.0032                 0.0227                 0.0310
 IR Inten    --      0.2752                 0.0399                 0.7426

                      4                      5                      6
                      A                      A                      A
 Frequencies --    240.2648               252.4557               254.5487
 Red. masses --      1.3239                 1.5199                 1.0494
 Frc consts  --      0.0450                 0.0571                 0.0401
 IR Inten    --      0.1649                 1.4354                 0.0023

                      7                      8                      9
                      A                      A                      A
 Frequencies --    283.0927               332.1993               365.1535
 Red. masses --      1.5954                 1.8445                 2.2459
 Frc consts  --      0.0753                 0.1199                 0.1764
 IR Inten    --      1.3737                 0.0482                 2.9761

                     10                     11                     12
                      A                      A                      A
 Frequencies --    368.3729               432.3477               474.4807
 Red. masses --      2.1712                 2.1641                 2.2372
 Frc consts  --      0.1736                 0.2383                 0.2967
 IR Inten    --      0.0603                 0.1799                 4.0599

                     13                     14                     15
                      A                      A                      A
 Frequencies --    482.9405               493.2610               690.1769
 Red. masses --      2.7229                 2.2798                 3.4477
 Frc consts  --      0.3742                 0.3268                 0.9676
 IR Inten    --      0.0489                 3.4567                 3.9102

                     16                     17                     18
                      A                      A                      A
 Frequencies --    820.2206               912.1408               928.5402
 Red. masses --      2.5707                 1.7387                 1.6690
 Frc consts  --      1.0190                 0.8523                 0.8478
 IR Inten    --      5.8503                 0.6911                 0.2841

                     19                     20                     21
                      A                      A                      A
 Frequencies --    957.5724               996.0386              1041.3287
 Red. masses --      1.2112                 2.3353                 1.4280
 Frc consts  --      0.6544                 1.3651                 0.9123
 IR Inten    --      0.1487                34.5033                 1.9595

                     22                     23                     24
                      A                      A                      A
 Frequencies --   1043.0953              1071.6890              1121.3165
 Red. masses --      1.4082                 1.4824                 1.2467
 Frc consts  --      0.9027                 1.0031                 0.9236
 IR Inten    --      6.4706                 9.8665                 7.1822

                     25                     26                     27
                      A                      A                      A
 Frequencies --   1184.0430              1201.1628              1222.7098
 Red. masses --      1.4716                 2.8945                 2.0866
 Frc consts  --      1.2156                 2.4605                 1.8380
 IR Inten    --      5.3526                 4.1750                31.4751

                     28                     29                     30
                      A                      A                      A
 Frequencies --   1251.2427              1299.5906              1302.3432
 Red. masses --      2.5640                 3.3598                 2.3689
 Frc consts  --      2.3651                 3.3433                 2.3673
 IR Inten    --     22.1584                19.5555                24.7482

                     31                     32                     33
                      A                      A                      A
 Frequencies --   1405.0916              1406.7169              1436.0094
 Red. masses --      1.2436                 1.2766                 1.2292
 Frc consts  --      1.4465                 1.4884                 1.4934
 IR Inten    --     10.3317                 8.5087                 9.9640

                     34                     35                     36
                      A                      A                      A
 Frequencies --   1453.2007              1485.9921              1486.9272
 Red. masses --      1.1510                 1.0505                 1.1648
 Frc consts  --      1.4321                 1.3667                 1.5173
 IR Inten    --      1.8853                 2.9432                 1.3672

                     37                     38                     39
                      A                      A                      A
 Frequencies --   1498.4056              1501.6934              1506.0716
 Red. masses --      1.0464                 1.0496                 1.0449
 Frc consts  --      1.3842                 1.3946                 1.3965
 IR Inten    --      0.6861                 2.5503                 2.3739

                     40                     41                     42
                      A                      A                      A
 Frequencies --   1511.6515              1517.0903              1525.8460
 Red. masses --      1.0602                 1.0459                 1.0537
 Frc consts  --      1.4275                 1.4182                 1.4455
 IR Inten    --     11.9146                 7.4097                 0.0063

                     43                     44                     45
                      A                      A                      A
 Frequencies --   1528.3663              1532.5210              1540.4601
 Red. masses --      1.0583                 1.0509                 1.0585
 Frc consts  --      1.4566                 1.4541                 1.4799
 IR Inten    --      3.1592                 6.3699                 4.2830

                     46                     47                     48
                      A                      A                      A
 Frequencies --   2935.4639              2944.6173              3043.5963
 Red. masses --      1.0611                 1.0630                 1.0349
 Frc consts  --      5.3872                 5.4306                 5.6486
 IR Inten    --     37.0499               122.1826                24.5923

                     49                     50                     51
                      A                      A                      A
 Frequencies --   3047.6716              3054.4431              3073.1053
 Red. masses --      1.0350                 1.0367                 1.0772
 Frc consts  --      5.6641                 5.6987                 5.9938
 IR Inten    --     21.2140                11.2613                11.9010

                     52                     53                     54
                      A                      A                      A
 Frequencies --   3076.7438              3110.5243              3114.7168
 Red. masses --      1.0740                 1.1018                 1.1027
 Frc consts  --      5.9900                 6.2808                 6.3028
 IR Inten    --     72.6008                 8.2265                 0.5429

                     55                     56                     57
                      A                      A                      A
 Frequencies --   3119.0598              3122.3877              3125.2168
 Red. masses --      1.1021                 1.1013                 1.1033
 Frc consts  --      6.3171                 6.3261                 6.3492
 IR Inten    --     30.8785                79.1648                 0.7397

                     58                     59                     60
                      A                      A                      A
 Frequencies --   3130.3510              3141.7339              3142.4775
 Red. masses --      1.1025                 1.0958                 1.0965
 Frc consts  --      6.3654                 6.3729                 6.3799
 IR Inten    --     44.7690                57.4298                 8.8552

 - Thermochemistry -
 -------------------
 Temperature   298.150 Kelvin.  Pressure   1.00000 Atm.
 Atom     1 has atomic number  6 and mass  12.00000

 Molecular mass:   101.12045 amu.
 Principal axes and moments of inertia in atomic units:
                           1         2         3
     Eigenvalues --   582.53469 798.33934 954.15153
           X            0.99992   0.00000  -0.01293
           Y           -0.00000   1.00000  -0.00000
           Z            0.01293   0.00000   0.99992
 This molecule is an asymmetric top.
 Rotational symmetry number  1.
 Warning -- assumption of classical behavior for rotation
           may cause significant error
 Rotational temperatures (Kelvin)      0.14868     0.10849     0.09078
 Rotational constants (GHZ):           3.09808     2.26062     1.89146
 Zero-point vibrational energy     538353.5 (Joules/Mol)
                                  128.66957 (Kcal/Mol)
 Warning -- explicit consideration of  14 degrees of freedom as
           vibrations may cause significant error
 Vibrational temperatures:     70.90   279.31   319.10   345.69   363.23
          (Kelvin)            366.24   407.31   477.96   525.37   530.01
                              622.05   682.67   694.84   709.69   993.01
                             1180.11  1312.37  1335.96  1377.73  1433.08
                             1498.24  1500.78  1541.92  1613.32  1703.57
                             1728.20  1759.20  1800.26  1869.82  1873.78
                             2021.61  2023.95  2066.09  2090.83  2138.01
                             2139.35  2155.87  2160.60  2166.90  2174.93
                             2182.75  2195.35  2198.98  2204.95  2216.38
                             4223.47  4236.64  4379.05  4384.91  4394.66
                             4421.51  4426.74  4475.35  4481.38  4487.63
                             4492.41  4496.48  4503.87  4520.25  4521.32

 Zero-point correction=                           0.205048 (Hartree/Particle)
 Thermal correction to Energy=                    0.214424
 Thermal correction to Enthalpy=                  0.215368
 Thermal correction to Gibbs Free Energy=         0.172088
 Sum of electronic and zero-point Energies=           -292.226642
 Sum of electronic and thermal Energies=              -292.217266
 Sum of electronic and thermal Enthalpies=            -292.216321
 Sum of electronic and thermal Free Energies=         -292.259602

                     E (Thermal)             CV                S
                      KCal/Mol        Cal/Mol-Kelvin    Cal/Mol-Kelvin
 Total                  134.553             35.259             91.091
 Electronic               0.000              0.000              0.000
 Translational            0.889              2.981             39.751
 Rotational               0.889              2.981             27.586
 Vibrational            132.776             29.298             23.753
 Vibration     1          0.595              1.978              4.846
 Vibration     2          0.635              1.848              2.188
 Vibration     3          0.648              1.808              1.944
 Vibration     4          0.657              1.779              1.801
 Vibration     5          0.664              1.759              1.713
 Vibration     6          0.665              1.755              1.699
 Vibration     7          0.682              1.705              1.515
 Vibration     8          0.714              1.611              1.249
 Vibration     9          0.738              1.544              1.100
 Vibration    10          0.741              1.537              1.087
 Vibration    11          0.793              1.400              0.851
 Vibration    12          0.831              1.307              0.725
 Vibration    13          0.839              1.288              0.702
 Vibration    14          0.849              1.265              0.675

 Optimization completed.
    -- Stationary point found.
 Normal termination of Gaussian 09 at Sat Aug 21 01:36:45 2021.
