 Gaussian 09, Revision E.01,
 Gaussian 09:  ES64L-G09RevE.01 30-Nov-2015

 ----------------------------
 #P OPT Freq B3LYP/6-31G(d,p)
 ----------------------------

 --------
 Frag_716
 --------
 Symbolic Z-matrix:
 Charge =  0 Multiplicity = 1

 SCF Done:  E(RB3LYP) =  -342.408709535     A.U. after   15 cycles
 SCF Done:  E(RB3LYP) =  -342.408864312     A.U. after   11 cycles
 SCF Done:  E(RB3LYP) =  -342.408797800     A.U. after   12 cycles
 SCF Done:  E(RB3LYP) =  -342.408875256     A.U. after   12 cycles
 SCF Done:  E(RB3LYP) =  -342.408878722     A.U. after    9 cycles
 SCF Done:  E(RB3LYP) =  -342.408879577     A.U. after   10 cycles
 SCF Done:  E(RB3LYP) =  -342.408880106     A.U. after    9 cycles
 SCF Done:  E(RB3LYP) =  -342.408880280     A.U. after    8 cycles
 Optimization completed.
    -- Stationary point found.
 Normal termination of Gaussian 09 at Thu Sep  8 15:07:23 2022.

 ----------------------------------------------------------------------
 #P Geom=AllCheck Guess=TCheck SCRF=Check GenChk RB3LYP/6-31G(d,p) Freq
 ----------------------------------------------------------------------

 Structure from the checkpoint file:  "B3LYP6-31Gdp.Frag_716.chk"
 --------
 Frag_716
 --------
 Charge =  0 Multiplicity = 1

                         Standard orientation:
 ---------------------------------------------------------------------
 Center     Atomic      Atomic             Coordinates (Angstroms)
 Number     Number       Type             X           Y           Z
 ---------------------------------------------------------------------
      1          6           0        1.796531   -0.710676    0.000009
      2          6           0        0.674036    0.280436    0.000095
      3          8           0        0.804368    1.492780   -0.000079
      4          6           0       -0.768428   -0.284160    0.000074
      5          8           0       -1.012781   -1.466081   -0.000069
      6          8           0       -1.690877    0.683123    0.000006
      7          1           0        2.755650   -0.193179   -0.000105
      8          1           0        1.711101   -1.363754    0.874824
      9          1           0        1.710927   -1.363813   -0.874746
     10          1           0       -1.196180    1.528565    0.000091
 ---------------------------------------------------------------------

 SCF Done:  E(RB3LYP) =  -342.408880280     A.U. after    1 cycles

 The electronic state is 1-A.
 Alpha  occ. eigenvalues --  -19.20870 -19.19302 -19.15888 -10.33561 -10.31814
 Alpha  occ. eigenvalues --  -10.21495  -1.12516  -1.08065  -1.03921  -0.78063
 Alpha  occ. eigenvalues --   -0.66712  -0.61016  -0.52906  -0.48761  -0.48167
 Alpha  occ. eigenvalues --   -0.45296  -0.43975  -0.43871  -0.39243  -0.39119
 Alpha  occ. eigenvalues --   -0.34080  -0.33229  -0.27082
 Alpha virt. eigenvalues --   -0.09048   0.04851   0.08515   0.11014   0.13333
 Alpha virt. eigenvalues --    0.15825   0.18892   0.25607   0.26959   0.31916
 Alpha virt. eigenvalues --    0.36067   0.49374   0.52325   0.54658   0.56027

 Mulliken charges:
               1
     1  C   -0.378899
     2  C    0.367935
     3  O   -0.441208
     4  C    0.552232
     5  O   -0.432790
     6  O   -0.474223
     7  H    0.144101
     8  H    0.160312
     9  H    0.160329
    10  H    0.342211
 Sum of Mulliken charges =  -0.00000

 Dipole moment (field-independent basis, Debye):
    X=              2.2888    Y=              0.6072    Z=              0.0006  Tot=              2.3680
 Quadrupole moment (field-independent basis, Debye-Ang):
   XX=            -35.6387   YY=            -37.2516   ZZ=            -32.0403
   XY=             -6.0002   XZ=             -0.0003   YZ=              0.0004

  Exact polarizability:  40.378  -1.542  48.228  -0.000  -0.000  23.771
 Approx polarizability:  50.824   0.841  88.057  -0.000  -0.000  34.392

                      1                      2                      3
                      A                      A                      A
 Frequencies --     85.7058               120.9051               254.2899
 Red. masses --      1.6144                 2.0231                 4.0620
 Frc consts  --      0.0070                 0.0174                 0.1548
 IR Inten    --      5.8897                 1.6194                25.0493

                      4                      5                      6
                      A                      A                      A
 Frequencies --    390.7930               396.6879               527.9003
 Red. masses --      4.4918                 4.8248                 6.3258
 Frc consts  --      0.4042                 0.4473                 1.0386
 IR Inten    --     16.4755                12.6360                 2.8675

                      7                      8                      9
                      A                      A                      A
 Frequencies --    606.9578               689.2949               747.7379
 Red. masses --      4.3936                 2.2145                 1.3050
 Frc consts  --      0.9536                 0.6199                 0.4299
 IR Inten    --     16.3917                54.3532                53.6960

                     10                     11                     12
                      A                      A                      A
 Frequencies --    770.4857               983.4810              1030.5467
 Red. masses --      6.6032                 1.9585                 1.8802
 Frc consts  --      2.3096                 1.1161                 1.1765
 IR Inten    --      8.7185                13.5780                 2.6372

                     13                     14                     15
                      A                      A                      A
 Frequencies --   1169.7506              1256.2950              1394.4154
 Red. masses --      3.3089                 2.0134                 1.3812
 Frc consts  --      2.6676                 1.8723                 1.5823
 IR Inten    --     61.7929                96.5464               263.4973

                     16                     17                     18
                      A                      A                      A
 Frequencies --   1419.0447              1465.4091              1469.9478
 Red. masses --      2.1227                 1.0581                 1.0478
 Frc consts  --      2.5184                 1.3387                 1.3339
 IR Inten    --    119.1740                12.5885                10.6556

                     19                     20                     21
                      A                      A                      A
 Frequencies --   1801.8360              1873.1837              3060.3364
 Red. masses --     10.9442                10.3709                 1.0364
 Frc consts  --     20.9346                21.4402                 5.7192
 IR Inten    --    101.3083               190.5481                 0.2497

                     22                     23                     24
                      A                      A                      A
 Frequencies --   3121.5992              3179.1433              3618.6372
 Red. masses --      1.0981                 1.1051                 1.0642
 Frc consts  --      6.3042                 6.5807                 8.2102
 IR Inten    --      0.6639                 5.0708               103.2487

 - Thermochemistry -
 -------------------
 Temperature   298.150 Kelvin.  Pressure   1.00000 Atm.
 Atom     1 has atomic number  6 and mass  12.00000

 Molecular mass:    88.01604 amu.
 Principal axes and moments of inertia in atomic units:
                           1         2         3
     Eigenvalues --   328.85010 503.70019 821.53374
           X            0.98938  -0.14537  -0.00000
           Y            0.14537   0.98938   0.00000
           Z            0.00000  -0.00000   1.00000
 This molecule is an asymmetric top.
 Rotational symmetry number  1.
 Rotational temperatures (Kelvin)      0.26338     0.17196     0.10543
 Rotational constants (GHZ):           5.48804     3.58297     2.19679
 Zero-point vibrational energy     188019.4 (Joules/Mol)
                                   44.93771 (Kcal/Mol)
 Warning -- explicit consideration of   7 degrees of freedom as
           vibrations may cause significant error
 Vibrational temperatures:    123.31   173.96   365.87   562.26   570.74
          (Kelvin)            759.53   873.28   991.74  1075.83  1108.56
                             1415.01  1482.72  1683.01  1807.53  2006.25
                             2041.69  2108.39  2114.92  2592.44  2695.09
                             4403.14  4491.28  4574.07  5206.41

 Zero-point correction=                           0.071613 (Hartree/Particle)
 Thermal correction to Energy=                    0.077807
 Thermal correction to Enthalpy=                  0.078751
 Thermal correction to Gibbs Free Energy=         0.041487
 Sum of electronic and zero-point Energies=           -342.337267
 Sum of electronic and thermal Energies=              -342.331074
 Sum of electronic and thermal Enthalpies=            -342.330129
 Sum of electronic and thermal Free Energies=         -342.367394

                     E (Thermal)             CV                S
                      KCal/Mol        Cal/Mol-Kelvin    Cal/Mol-Kelvin
 Total                   48.824             20.628             78.429
 Electronic               0.000              0.000              0.000
 Translational            0.889              2.981             39.338
 Rotational               0.889              2.981             26.412
 Vibrational             47.047             14.667             12.680
 Vibration     1          0.601              1.959              3.756
 Vibration     2          0.609              1.932              3.086
 Vibration     3          0.665              1.756              1.701
 Vibration     4          0.758              1.490              0.997
 Vibration     5          0.763              1.477              0.975
 Vibration     6          0.883              1.188              0.592
 Vibration     7          0.966              1.017              0.438

 Optimization completed.
    -- Stationary point found.
 Normal termination of Gaussian 09 at Thu Sep  8 15:07:31 2022.
