 Gaussian 09, Revision D.01,
 Gaussian 09:  ES64L-G09RevD.01 24-Apr-2013

 --------------------------------
 #P OPT=calcfc Freq B3LYP/6-31G**
 --------------------------------

 --------------------
 B3LYP6-31Gxx.Frag_91
 --------------------
 Symbolic Z-matrix:
 Charge =  0 Multiplicity = 1

 SCF Done:  E(RB3LYP) =  -307.658303224     A.U. after   14 cycles
 SCF Done:  E(RB3LYP) =  -307.658985195     A.U. after   11 cycles
 SCF Done:  E(RB3LYP) =  -307.662966728     A.U. after   13 cycles
 SCF Done:  E(RB3LYP) =  -307.622259346     A.U. after   13 cycles
 SCF Done:  E(RB3LYP) =  -307.662978205     A.U. after    9 cycles
 SCF Done:  E(RB3LYP) =  -307.663282148     A.U. after   12 cycles
 SCF Done:  E(RB3LYP) =  -307.663375327     A.U. after   13 cycles
 SCF Done:  E(RB3LYP) =  -307.664467139     A.U. after   14 cycles
 SCF Done:  E(RB3LYP) =  -307.665036547     A.U. after   11 cycles
 SCF Done:  E(RB3LYP) =  -307.665345502     A.U. after   12 cycles
 SCF Done:  E(RB3LYP) =  -307.666145411     A.U. after   11 cycles
 SCF Done:  E(RB3LYP) =  -307.666367858     A.U. after   11 cycles
 SCF Done:  E(RB3LYP) =  -307.666633049     A.U. after   11 cycles
 SCF Done:  E(RB3LYP) =  -307.666876537     A.U. after   11 cycles
 SCF Done:  E(RB3LYP) =  -307.667068571     A.U. after   11 cycles
 SCF Done:  E(RB3LYP) =  -307.667114639     A.U. after   11 cycles
 SCF Done:  E(RB3LYP) =  -307.667119274     A.U. after    9 cycles
 SCF Done:  E(RB3LYP) =  -307.667119821     A.U. after    8 cycles
 SCF Done:  E(RB3LYP) =  -307.667119853     A.U. after    7 cycles
 Optimization completed.
    -- Stationary point found.
 Normal termination of Gaussian 09 at Wed Jul 28 01:49:46 2021.

 ----------------------------------------------------------------------
 #P Geom=AllCheck Guess=TCheck SCRF=Check GenChk RB3LYP/6-31G(d,p) Freq
 ----------------------------------------------------------------------

 Structure from the checkpoint file:  "/public3/home/sc52040/Isodesmic/Run/Gau-113028.chk"
 --------------------
 B3LYP6-31Gxx.Frag_91
 --------------------
 Charge =  0 Multiplicity = 1

                         Standard orientation:
 ---------------------------------------------------------------------
 Center     Atomic      Atomic             Coordinates (Angstroms)
 Number     Number       Type             X           Y           Z
 ---------------------------------------------------------------------
      1          6           0       -1.568991    1.164745   -0.008735
      2          6           0       -0.672238   -0.037092    0.006712
      3          8           0       -1.323383   -1.256584    0.072120
      4          6           0        0.672211   -0.037075   -0.006946
      5          6           0        1.568922    1.164772    0.008802
      6          8           0        1.323423   -1.256560   -0.071909
      7          1           0       -1.022298    2.106318   -0.062856
      8          1           0       -2.245541    1.134646   -0.876383
      9          1           0       -2.199837    1.189010    0.889515
     10          1           0       -2.212726   -1.143720   -0.286001
     11          1           0        2.245049    1.134774    0.876774
     12          1           0        1.022208    2.106356    0.062485
     13          1           0        2.200194    1.188914   -0.889165
     14          1           0        2.213204   -1.143242    0.284951
 ---------------------------------------------------------------------

 SCF Done:  E(RB3LYP) =  -307.667119853     A.U. after    1 cycles

 The electronic state is 1-A.
 Alpha  occ. eigenvalues --  -19.15043 -19.15041 -10.22047 -10.21967 -10.18917
 Alpha  occ. eigenvalues --  -10.18915  -1.03801  -1.01770  -0.77656  -0.72172
 Alpha  occ. eigenvalues --   -0.66968  -0.54902  -0.51226  -0.46809  -0.45422
 Alpha  occ. eigenvalues --   -0.43027  -0.41481  -0.39442  -0.39152  -0.35466
 Alpha  occ. eigenvalues --   -0.35234  -0.31844  -0.30864  -0.18140
 Alpha virt. eigenvalues --    0.05598   0.06703   0.09029   0.11629   0.13508
 Alpha virt. eigenvalues --    0.14902   0.16424   0.19452   0.21765   0.22866
 Alpha virt. eigenvalues --    0.24337   0.26252   0.37091   0.49394   0.49931

 Mulliken charges:
               1
     1  C   -0.387015
     2  C    0.272601
     3  O   -0.536211
     4  C    0.272717
     5  C   -0.387087
     6  O   -0.536208
     7  H    0.114623
     8  H    0.105897
     9  H    0.122662
    10  H    0.307384
    11  H    0.105955
    12  H    0.114652
    13  H    0.122632
    14  H    0.307399
 Sum of Mulliken charges =   0.00000

 Dipole moment (field-independent basis, Debye):
    X=              0.0012    Y=              2.3057    Z=             -0.0018  Tot=              2.3057
 Quadrupole moment (field-independent basis, Debye-Ang):
   XX=            -26.1887   YY=            -39.4150   ZZ=            -37.3582
   XY=              0.0010   XZ=              2.7723   YZ=              0.0032

  Exact polarizability:  74.465   0.001  48.374   1.840   0.001  34.015
 Approx polarizability: 106.663   0.001  66.418   2.197  -0.001  48.248

                      1                      2                      3
                      A                      A                      A
 Frequencies --    112.1648               131.7827               172.8524
 Red. masses --      1.1225                 2.6052                 1.0508
 Frc consts  --      0.0083                 0.0267                 0.0185
 IR Inten    --    205.0236                 5.8408                36.9637

                      4                      5                      6
                      A                      A                      A
 Frequencies --    193.1700               205.4336               276.6687
 Red. masses --      1.0854                 1.2323                 4.1200
 Frc consts  --      0.0239                 0.0306                 0.1858
 IR Inten    --      1.4455                 4.5013                 1.9903

                      7                      8                      9
                      A                      A                      A
 Frequencies --    350.4391               390.3371               429.3183
 Red. masses --      2.7745                 2.9619                 2.4950
 Frc consts  --      0.2008                 0.2659                 0.2709
 IR Inten    --     11.9113                 3.0288                 0.0389

                     10                     11                     12
                      A                      A                      A
 Frequencies --    550.8219               561.3651               723.6620
 Red. masses --      4.8096                 4.3129                 4.0401
 Frc consts  --      0.8598                 0.8008                 1.2466
 IR Inten    --     22.6092                 3.3361                 5.3987

                     13                     14                     15
                      A                      A                      A
 Frequencies --    952.0430              1019.5903              1057.9742
 Red. masses --      2.5353                 1.3668                 1.3825
 Frc consts  --      1.3539                 0.8371                 0.9117
 IR Inten    --     41.9033                 2.6510                 3.8827

                     16                     17                     18
                      A                      A                      A
 Frequencies --   1068.3716              1092.5858              1232.3168
 Red. masses --      1.4467                 1.6909                 1.3353
 Frc consts  --      0.9729                 1.1893                 1.1947
 IR Inten    --      1.1566                62.1194                85.4932

                     19                     20                     21
                      A                      A                      A
 Frequencies --   1254.3656              1295.5059              1361.9654
 Red. masses --      3.8940                 4.0174                 1.4874
 Frc consts  --      3.6099                 3.9726                 1.6256
 IR Inten    --    263.2079               105.8969                19.9729

                     22                     23                     24
                      A                      A                      A
 Frequencies --   1425.8692              1443.6413              1487.2922
 Red. masses --      1.4514                 1.2796                 1.0453
 Frc consts  --      1.7385                 1.5713                 1.3624
 IR Inten    --     10.0156                 7.3381                 1.1974

                     25                     26                     27
                      A                      A                      A
 Frequencies --   1493.2245              1506.6215              1513.8176
 Red. masses --      1.0426                 1.0496                 1.0632
 Frc consts  --      1.3696                 1.4037                 1.4355
 IR Inten    --     13.1558                 1.4313                 6.9382

                     28                     29                     30
                      A                      A                      A
 Frequencies --   1819.2931              3003.6249              3006.7567
 Red. masses --      6.3766                 1.0481                 1.0504
 Frc consts  --     12.4350                 5.5713                 5.5951
 IR Inten    --      3.2225               110.5795                 7.4356

                     31                     32                     33
                      A                      A                      A
 Frequencies --   3055.4614              3055.6301              3148.4751
 Red. masses --      1.0938                 1.0933                 1.0953
 Frc consts  --      6.0166                 6.0146                 6.3969
 IR Inten    --     56.6675                 4.7921                14.3180

                     34                     35                     36
                      A                      A                      A
 Frequencies --   3163.8979              3821.5793              3823.2656
 Red. masses --      1.0912                 1.0663                 1.0666
 Frc consts  --      6.4359                 9.1754                 9.1861
 IR Inten    --     22.6271                56.5878                 1.7527

 - Thermochemistry -
 -------------------
 Temperature   298.150 Kelvin.  Pressure   1.00000 Atm.
 Atom     1 has atomic number  6 and mass  12.00000

 Molecular mass:    88.05243 amu.
 Principal axes and moments of inertia in atomic units:
                           1         2         3
     Eigenvalues --   368.23808 576.12011 919.56544
           X            0.99996   0.00001   0.00909
           Y           -0.00001   1.00000   0.00002
           Z           -0.00909  -0.00002   0.99996
 This molecule is an asymmetric top.
 Rotational symmetry number  1.
 Rotational temperatures (Kelvin)      0.23521     0.15034     0.09419
 Rotational constants (GHZ):           4.90102     3.13258     1.96260
 Zero-point vibrational energy     306251.1 (Joules/Mol)
                                   73.19577 (Kcal/Mol)
 Warning -- explicit consideration of  11 degrees of freedom as
           vibrations may cause significant error
 Vibrational temperatures:    161.38   189.61   248.70   277.93   295.57
          (Kelvin)            398.06   504.20   561.61   617.69   792.51
                              807.68  1041.19  1369.78  1466.96  1522.19
                             1537.15  1571.99  1773.03  1804.75  1863.94
                             1959.56  2051.51  2077.08  2139.88  2148.41
                             2167.69  2178.04  2617.55  4321.54  4326.05
                             4396.12  4396.36  4529.95  4552.14  5498.39
                             5500.82

 Zero-point correction=                           0.116645 (Hartree/Particle)
 Thermal correction to Energy=                    0.124724
 Thermal correction to Enthalpy=                  0.125668
 Thermal correction to Gibbs Free Energy=         0.085056
 Sum of electronic and zero-point Energies=           -307.550475
 Sum of electronic and thermal Energies=              -307.542396
 Sum of electronic and thermal Enthalpies=            -307.541452
 Sum of electronic and thermal Free Energies=         -307.582063

                     E (Thermal)             CV                S
                      KCal/Mol        Cal/Mol-Kelvin    Cal/Mol-Kelvin
 Total                   78.265             27.446             85.474
 Electronic               0.000              0.000              0.000
 Translational            0.889              2.981             39.339
 Rotational               0.889              2.981             26.770
 Vibrational             76.488             21.485             19.366
 Vibration     1          0.607              1.939              3.231
 Vibration     2          0.612              1.922              2.920
 Vibration     3          0.626              1.876              2.404
 Vibration     4          0.635              1.849              2.197
 Vibration     5          0.640              1.832              2.084
 Vibration     6          0.678              1.717              1.554
 Vibration     7          0.727              1.574              1.164
 Vibration     8          0.758              1.491              0.999
 Vibration     9          0.791              1.406              0.861
 Vibration    10          0.906              1.138              0.542
 Vibration    11          0.917              1.115              0.521

 Optimization completed.
    -- Stationary point found.
 Normal termination of Gaussian 09 at Wed Jul 28 01:50:00 2021.
