 Gaussian 09, Revision E.01,
 Gaussian 09:  ES64L-G09RevE.01 30-Nov-2015

 --------------------------------
 #P OPT=calcfc Freq B3LYP/6-31G**
 --------------------------------

 --------
 Frag_298
 --------
 Symbolic Z-matrix:
 Charge =  0 Multiplicity = 1

 SCF Done:  E(RB3LYP) =  -253.132868936     A.U. after   12 cycles
 SCF Done:  E(RB3LYP) =  -253.136938293     A.U. after   11 cycles
 SCF Done:  E(RB3LYP) =  -253.137032543     A.U. after   10 cycles
 SCF Done:  E(RB3LYP) =  -253.137034319     A.U. after    7 cycles
 SCF Done:  E(RB3LYP) =  -253.137034250     A.U. after    6 cycles
 Optimization completed.
    -- Stationary point found.
 Normal termination of Gaussian 09 at Fri Sep 10 18:54:48 2021.

 ----------------------------------------------------------------------
 #P Geom=AllCheck Guess=TCheck SCRF=Check GenChk RB3LYP/6-31G(d,p) Freq
 ----------------------------------------------------------------------

 Structure from the checkpoint file:  "/public/home/users/caep010/.cache/gau_scr/Gau-95765.chk"
 --------
 Frag_298
 --------
 Charge =  0 Multiplicity = 1

                         Standard orientation:
 ---------------------------------------------------------------------
 Center     Atomic      Atomic             Coordinates (Angstroms)
 Number     Number       Type             X           Y           Z
 ---------------------------------------------------------------------
      1          6           0        2.177098   -0.016949   -0.016688
      2          6           0        0.873750   -0.678386   -0.473957
      3          6           0       -0.431086   -0.000071    0.011236
      4          6           0       -1.636518   -0.777439   -0.559161
      5          6           0       -0.505938    1.465342   -0.446082
      6          7           0       -0.419719   -0.002210    1.489653
      7          1           0        2.180819    0.114178    1.068254
      8          1           0        3.039469   -0.630920   -0.296746
      9          1           0        2.316323    0.967756   -0.474106
     10          1           0        0.846837   -0.734165   -1.569872
     11          1           0        0.857872   -1.720011   -0.121443
     12          1           0       -1.651078   -0.763502   -1.655286
     13          1           0       -2.579900   -0.343829   -0.207218
     14          1           0       -1.609353   -1.826371   -0.240410
     15          1           0       -0.433439    1.541679   -1.535931
     16          1           0        0.295966    2.057030    0.001322
     17          1           0       -1.460429    1.914090   -0.145762
     18          1           0       -0.462692   -0.964322    1.823975
     19          1           0       -1.266210    0.448876    1.833567
 ---------------------------------------------------------------------

 SCF Done:  E(RB3LYP) =  -253.137034250     A.U. after    1 cycles

 The electronic state is 1-A.
 Alpha  occ. eigenvalues --  -14.30490 -10.21460 -10.17368 -10.17006 -10.16769
 Alpha  occ. eigenvalues --  -10.16121  -0.88372  -0.76520  -0.72101  -0.68190
 Alpha  occ. eigenvalues --   -0.61846  -0.53845  -0.47861  -0.45510  -0.43971
 Alpha  occ. eigenvalues --   -0.40905  -0.40607  -0.38448  -0.37466  -0.35899
 Alpha  occ. eigenvalues --   -0.34941  -0.33222  -0.31838  -0.30902  -0.22987
 Alpha virt. eigenvalues --    0.06836   0.12631   0.12708   0.13342   0.14046
 Alpha virt. eigenvalues --    0.15571   0.16975   0.18115   0.18683   0.19325
 Alpha virt. eigenvalues --    0.20174   0.21875   0.22472   0.23176   0.25155

 Mulliken charges:
               1
     1  C   -0.318653
     2  C   -0.150652
     3  C    0.139102
     4  C   -0.302178
     5  C   -0.299568
     6  N   -0.582382
     7  H    0.127042
     8  H    0.091144
     9  H    0.098880
    10  H    0.085864
    11  H    0.078449
    12  H    0.096846
    13  H    0.088323
    14  H    0.089555
    15  H    0.097366
    16  H    0.117289
    17  H    0.088396
    18  H    0.227160
    19  H    0.228017
 Sum of Mulliken charges =  -0.00000

 Dipole moment (field-independent basis, Debye):
    X=             -1.0816    Y=             -0.5571    Z=             -0.2445  Tot=              1.2410
 Quadrupole moment (field-independent basis, Debye-Ang):
   XX=            -40.1243   YY=            -39.8217   ZZ=            -40.7361
   XY=             -0.5568   XZ=             -2.4009   YZ=             -1.5198

  Exact polarizability:  65.895  -1.064  60.295  -0.821  -0.542  59.489
 Approx polarizability:  82.520  -2.413  83.301  -1.509  -0.864  85.133

                      1                      2                      3
                      A                      A                      A
 Frequencies --    111.1918               214.6221               240.8139
 Red. masses --      1.8124                 1.0893                 1.5088
 Frc consts  --      0.0132                 0.0296                 0.0516
 IR Inten    --      0.5461                 0.8332                 3.7544

                      4                      5                      6
                      A                      A                      A
 Frequencies --    261.5113               276.1176               292.8512
 Red. masses --      1.3866                 1.1537                 1.0453
 Frc consts  --      0.0559                 0.0518                 0.0528
 IR Inten    --      0.2276                19.7411                17.8748

                      7                      8                      9
                      A                      A                      A
 Frequencies --    341.8878               369.3508               416.1611
 Red. masses --      2.1795                 2.4908                 2.1052
 Frc consts  --      0.1501                 0.2002                 0.2148
 IR Inten    --      3.6139                 2.2592                 0.4701

                     10                     11                     12
                      A                      A                      A
 Frequencies --    445.4828               510.2804               723.4380
 Red. masses --      2.3251                 2.5636                 3.1912
 Frc consts  --      0.2719                 0.3933                 0.9840
 IR Inten    --      5.6750                 5.7343                 1.2712

                     13                     14                     15
                      A                      A                      A
 Frequencies --    791.9420               869.5635               909.7482
 Red. masses --      1.2134                 1.9508                 1.4757
 Frc consts  --      0.4484                 0.8691                 0.7196
 IR Inten    --      2.6016                71.9673                63.6008

                     16                     17                     18
                      A                      A                      A
 Frequencies --    930.3501               963.8767              1007.1557
 Red. masses --      1.5872                 1.7370                 1.2656
 Frc consts  --      0.8094                 0.9508                 0.7564
 IR Inten    --      1.5749                 1.4566                 1.5054

                     19                     20                     21
                      A                      A                      A
 Frequencies --   1013.6878              1058.8204              1090.8871
 Red. masses --      1.4802                 2.1167                 1.4205
 Frc consts  --      0.8961                 1.3982                 0.9960
 IR Inten    --      5.6709                 3.9822                 5.5058

                     22                     23                     24
                      A                      A                      A
 Frequencies --   1136.8286              1208.8462              1252.1303
 Red. masses --      1.4899                 2.5212                 1.9916
 Frc consts  --      1.1345                 2.1707                 1.8397
 IR Inten    --      0.4392                35.4763                 8.0031

                     25                     26                     27
                      A                      A                      A
 Frequencies --   1317.3999              1367.8902              1382.0040
 Red. masses --      1.5486                 1.4878                 1.6105
 Frc consts  --      1.5835                 1.6402                 1.8123
 IR Inten    --      6.7527                 0.9113                 0.6281

                     28                     29                     30
                      A                      A                      A
 Frequencies --   1412.5425              1420.7673              1431.1583
 Red. masses --      1.3060                 1.2550                 1.2585
 Frc consts  --      1.5354                 1.4925                 1.5187
 IR Inten    --      7.7889                 4.0464                 5.4977

                     31                     32                     33
                      A                      A                      A
 Frequencies --   1492.6815              1496.5869              1504.6258
 Red. masses --      1.0642                 1.0469                 1.0608
 Frc consts  --      1.3970                 1.3816                 1.4149
 IR Inten    --      0.1847                 0.4425                 0.7362

                     34                     35                     36
                      A                      A                      A
 Frequencies --   1511.6378              1516.6060              1525.2226
 Red. masses --      1.0463                 1.0646                 1.0574
 Frc consts  --      1.4087                 1.4428                 1.4492
 IR Inten    --      4.8258                 2.2082                 9.4040

                     37                     38                     39
                      A                      A                      A
 Frequencies --   1531.2604              1664.0257              3013.8164
 Red. masses --      1.0576                 1.0955                 1.0628
 Frc consts  --      1.4610                 1.7872                 5.6876
 IR Inten    --      0.0829                26.8299                27.4937

                     40                     41                     42
                      A                      A                      A
 Frequencies --   3025.6840              3041.8028              3049.6262
 Red. masses --      1.0367                 1.0395                 1.0398
 Frc consts  --      5.5919                 5.6670                 5.6976
 IR Inten    --     36.5737                22.7336                25.0713

                     43                     44                     45
                      A                      A                      A
 Frequencies --   3058.2342              3096.9831              3097.1779
 Red. masses --      1.0946                 1.1023                 1.1018
 Frc consts  --      6.0319                 6.2290                 6.2273
 IR Inten    --     22.7091                32.8709                12.6784

                     46                     47                     48
                      A                      A                      A
 Frequencies --   3106.2803              3111.2483              3138.2005
 Red. masses --      1.0997                 1.1017                 1.1012
 Frc consts  --      6.2516                 6.2830                 6.3897
 IR Inten    --     63.5421                41.3466                30.3748

                     49                     50                     51
                      A                      A                      A
 Frequencies --   3141.0785              3464.2408              3549.0917
 Red. masses --      1.1008                 1.0493                 1.0920
 Frc consts  --      6.3990                 7.4195                 8.1042
 IR Inten    --     17.0314                 3.2543                 1.5040

 - Thermochemistry -
 -------------------
 Temperature   298.150 Kelvin.  Pressure   1.00000 Atm.
 Atom     1 has atomic number  6 and mass  12.00000

 Molecular mass:    87.10480 amu.
 Principal axes and moments of inertia in atomic units:
                           1         2         3
     Eigenvalues --   410.09949 710.63125 722.57801
           X            0.99997   0.00735   0.00176
           Y           -0.00692   0.98385  -0.17886
           Z           -0.00305   0.17884   0.98387
 This molecule is an asymmetric top.
 Rotational symmetry number  1.
 Rotational temperatures (Kelvin)      0.21120     0.12188     0.11987
 Rotational constants (GHZ):           4.40074     2.53963     2.49764
 Zero-point vibrational energy     465977.9 (Joules/Mol)
                                  111.37139 (Kcal/Mol)
 Warning -- explicit consideration of  11 degrees of freedom as
           vibrations may cause significant error
 Vibrational temperatures:    159.98   308.79   346.48   376.26   397.27
          (Kelvin)            421.35   491.90   531.41   598.76   640.95
                              734.18  1040.86  1139.43  1251.11  1308.92
                             1338.56  1386.80  1449.07  1458.47  1523.40
                             1569.54  1635.64  1739.26  1801.53  1895.44
                             1968.09  1988.39  2032.33  2044.16  2059.11
                             2147.63  2153.25  2164.82  2174.91  2182.06
                             2194.45  2203.14  2394.16  4336.20  4353.28
                             4376.47  4387.73  4400.11  4455.86  4456.14
                             4469.24  4476.39  4515.16  4519.31  4984.26
                             5106.34

 Zero-point correction=                           0.177482 (Hartree/Particle)
 Thermal correction to Energy=                    0.185552
 Thermal correction to Enthalpy=                  0.186496
 Thermal correction to Gibbs Free Energy=         0.146508
 Sum of electronic and zero-point Energies=           -252.959553
 Sum of electronic and thermal Energies=              -252.951482
 Sum of electronic and thermal Enthalpies=            -252.950538
 Sum of electronic and thermal Free Energies=         -252.990526

                     E (Thermal)             CV                S
                      KCal/Mol        Cal/Mol-Kelvin    Cal/Mol-Kelvin
 Total                  116.436             30.336             84.162
 Electronic               0.000              0.000              0.000
 Translational            0.889              2.981             39.307
 Rotational               0.889              2.981             26.846
 Vibrational            114.658             24.375             18.010
 Vibration     1          0.607              1.940              3.248
 Vibration     2          0.645              1.819              2.004
 Vibration     3          0.658              1.778              1.797
 Vibration     4          0.669              1.743              1.652
 Vibration     5          0.678              1.718              1.558
 Vibration     6          0.688              1.687              1.457
 Vibration     7          0.721              1.592              1.203
 Vibration     8          0.742              1.535              1.082
 Vibration     9          0.779              1.435              0.905
 Vibration    10          0.805              1.371              0.810
 Vibration    11          0.865              1.227              0.633

 Optimization completed.
    -- Stationary point found.
 Normal termination of Gaussian 09 at Fri Sep 10 18:55:05 2021.
