 Gaussian 09, Revision E.01,
 Gaussian 09:  ES64L-G09RevE.01 30-Nov-2015

 ----------------------------
 #P OPT Freq B3LYP/6-31G(d,p)
 ----------------------------

 --------
 Frag_985
 --------
 Symbolic Z-matrix:
 Charge =  0 Multiplicity = 1

 SCF Done:  E(RB3LYP) =  -205.285489030     A.U. after   13 cycles
 SCF Done:  E(RB3LYP) =  -205.285554414     A.U. after   11 cycles
 SCF Done:  E(RB3LYP) =  -205.285557507     A.U. after    8 cycles
 SCF Done:  E(RB3LYP) =  -205.285558152     A.U. after    7 cycles
 Optimization completed.
    -- Stationary point found.
 Normal termination of Gaussian 09 at Thu Sep  8 15:05:39 2022.

 ----------------------------------------------------------------------
 #P Geom=AllCheck Guess=TCheck SCRF=Check GenChk RB3LYP/6-31G(d,p) Freq
 ----------------------------------------------------------------------

 Structure from the checkpoint file:  "B3LYP6-31Gdp.Frag_985.chk"
 --------
 Frag_985
 --------
 Charge =  0 Multiplicity = 1

                         Standard orientation:
 ---------------------------------------------------------------------
 Center     Atomic      Atomic             Coordinates (Angstroms)
 Number     Number       Type             X           Y           Z
 ---------------------------------------------------------------------
      1          6           0       -1.329232   -0.180782   -0.000000
      2          7           0        0.145887    0.005083    0.000001
      3          7           0        0.662941    1.191738   -0.000000
      4          7           0        0.806000   -1.098175   -0.000001
      5          1           0       -1.734365    0.297420    0.893721
      6          1           0       -1.734368    0.297451   -0.893704
      7          1           0       -1.537911   -1.246963   -0.000019
      8          1           0       -0.115280    1.856637   -0.000003
      9          1           0        1.793526   -0.810368    0.000000
 ---------------------------------------------------------------------

 SCF Done:  E(RB3LYP) =  -205.285558152     A.U. after    1 cycles

 The electronic state is 1-A.
 Alpha  occ. eigenvalues --  -14.49284 -14.33542 -14.33387 -10.24460  -1.08842
 Alpha  occ. eigenvalues --   -0.87939  -0.78224  -0.61385  -0.54483  -0.49932
 Alpha  occ. eigenvalues --   -0.49347  -0.43559  -0.39761  -0.30027  -0.28670
 Alpha  occ. eigenvalues --   -0.22262
 Alpha virt. eigenvalues --   -0.02519   0.07390   0.11278   0.13950   0.14698
 Alpha virt. eigenvalues --    0.14775   0.16018   0.29336   0.35811   0.49601
 Alpha virt. eigenvalues --    0.51553   0.54569   0.62875   0.68990   0.69542

 Mulliken charges:
               1
     1  C   -0.190150
     2  N    0.021581
     3  N   -0.392693
     4  N   -0.375736
     5  H    0.149017
     6  H    0.149016
     7  H    0.167522
     8  H    0.226743
     9  H    0.244700
 Sum of Mulliken charges =  -0.00000

 Dipole moment (field-independent basis, Debye):
    X=             -2.8621    Y=              0.7965    Z=              0.0000  Tot=              2.9708
 Quadrupole moment (field-independent basis, Debye-Ang):
   XX=            -21.7491   YY=            -27.4187   ZZ=            -24.8807
   XY=             -2.3312   XZ=              0.0000   YZ=             -0.0000

  Exact polarizability:  36.454  -3.714  46.125  -0.000  -0.000  19.480
 Approx polarizability:  47.479  -7.608  98.500  -0.000   0.000  26.855

                      1                      2                      3
                      A                      A                      A
 Frequencies --     94.6561               486.6592               537.2951
 Red. masses --      1.0723                 2.7892                 2.6356
 Frc consts  --      0.0057                 0.3892                 0.4483
 IR Inten    --      0.0418                 0.7620                10.8881

                      4                      5                      6
                      A                      A                      A
 Frequencies --    604.3672               646.7410               892.4750
 Red. masses --      3.5547                 1.1084                 4.3905
 Frc consts  --      0.7650                 0.2732                 2.0604
 IR Inten    --     30.8180               122.1301                 6.4992

                      7                      8                      9
                      A                      A                      A
 Frequencies --    901.3083              1110.2477              1148.2116
 Red. masses --      1.3347                 1.3933                 1.3959
 Frc consts  --      0.6388                 1.0119                 1.0843
 IR Inten    --     35.3014                18.7409                 1.1166

                     10                     11                     12
                      A                      A                      A
 Frequencies --   1258.4794              1354.5203              1428.9898
 Red. masses --      3.1130                 1.4223                 1.1864
 Frc consts  --      2.9048                 1.5374                 1.4274
 IR Inten    --     26.6440               136.8741                 1.9269

                     13                     14                     15
                      A                      A                      A
 Frequencies --   1488.0612              1499.3103              1540.5624
 Red. masses --      1.0694                 1.0437                 1.9711
 Frc consts  --      1.3952                 1.3824                 2.7562
 IR Inten    --     15.5480                11.7897               144.1741

                     16                     17                     18
                      A                      A                      A
 Frequencies --   1645.0176              3081.0748              3164.0960
 Red. masses --      3.0010                 1.0326                 1.1062
 Frc consts  --      4.7847                 5.7754                 6.5250
 IR Inten    --     64.0205                 7.8177                 7.0629

                     19                     20                     21
                      A                      A                      A
 Frequencies --   3216.1232              3404.8209              3441.6325
 Red. masses --      1.1058                 1.0715                 1.0748
 Frc consts  --      6.7392                 7.3184                 7.5006
 IR Inten    --      0.5639                 2.8284                 0.6896

 - Thermochemistry -
 -------------------
 Temperature   298.150 Kelvin.  Pressure   1.00000 Atm.
 Atom     1 has atomic number  6 and mass  12.00000

 Molecular mass:    59.04835 amu.
 Principal axes and moments of inertia in atomic units:
                           1         2         3
     Eigenvalues --   159.04656 178.54312 326.09125
           X            0.98905  -0.14759   0.00000
           Y            0.14759   0.98905  -0.00000
           Z           -0.00000   0.00000   1.00000
 This molecule is an asymmetric top.
 Rotational symmetry number  1.
 Rotational temperatures (Kelvin)      0.54458     0.48511     0.26561
 Rotational constants (GHZ):          11.34725    10.10815     5.53447
 Zero-point vibrational energy     197052.8 (Joules/Mol)
                                   47.09674 (Kcal/Mol)
 Warning -- explicit consideration of   4 degrees of freedom as
           vibrations may cause significant error
 Vibrational temperatures:    136.19   700.19   773.05   869.55   930.51
          (Kelvin)           1284.07  1296.78  1597.40  1652.02  1810.67
                             1948.85  2056.00  2140.99  2157.17  2216.52
                             2366.81  4432.97  4552.42  4627.28  4898.77
                             4951.74

 Zero-point correction=                           0.075053 (Hartree/Particle)
 Thermal correction to Energy=                    0.079556
 Thermal correction to Enthalpy=                  0.080500
 Thermal correction to Gibbs Free Energy=         0.048174
 Sum of electronic and zero-point Energies=           -205.210505
 Sum of electronic and thermal Energies=              -205.206002
 Sum of electronic and thermal Enthalpies=            -205.205058
 Sum of electronic and thermal Free Energies=         -205.237384

                     E (Thermal)             CV                S
                      KCal/Mol        Cal/Mol-Kelvin    Cal/Mol-Kelvin
 Total                   49.922             14.492             68.037
 Electronic               0.000              0.000              0.000
 Translational            0.889              2.981             38.148
 Rotational               0.889              2.981             23.742
 Vibrational             48.145              8.531              6.147
 Vibration     1          0.603              1.953              3.561
 Vibration     2          0.843              1.280              0.692
 Vibration     3          0.892              1.168              0.571
 Vibration     4          0.963              1.023              0.442

 Optimization completed.
    -- Stationary point found.
 Normal termination of Gaussian 09 at Thu Sep  8 15:05:45 2022.
