 Gaussian 09, Revision E.01,
 Gaussian 09:  ES64L-G09RevE.01 30-Nov-2015

 ----------------------------
 #P OPT Freq B3LYP/6-31G(d,p)
 ----------------------------

 ---------
 Frag_1033
 ---------
 Symbolic Z-matrix:
 Charge =  0 Multiplicity = 1

 SCF Done:  E(RB3LYP) =  -319.817164035     A.U. after   14 cycles
 SCF Done:  E(RB3LYP) =  -319.817237605     A.U. after   12 cycles
 SCF Done:  E(RB3LYP) =  -319.817120858     A.U. after   13 cycles
 SCF Done:  E(RB3LYP) =  -319.817262033     A.U. after    8 cycles
 SCF Done:  E(RB3LYP) =  -319.817270452     A.U. after    9 cycles
 SCF Done:  E(RB3LYP) =  -319.817273576     A.U. after   10 cycles
 SCF Done:  E(RB3LYP) =  -319.817280522     A.U. after   11 cycles
 SCF Done:  E(RB3LYP) =  -319.817284372     A.U. after    9 cycles
 SCF Done:  E(RB3LYP) =  -319.817285489     A.U. after    8 cycles
 SCF Done:  E(RB3LYP) =  -319.817285522     A.U. after    8 cycles
 Optimization completed.
    -- Stationary point found.
 Normal termination of Gaussian 09 at Thu Sep  8 14:50:44 2022.

 ----------------------------------------------------------------------
 #P Geom=AllCheck Guess=TCheck SCRF=Check GenChk RB3LYP/6-31G(d,p) Freq
 ----------------------------------------------------------------------

 Structure from the checkpoint file:  "B3LYP6-31Gdp.Frag_1033.chk"
 ---------
 Frag_1033
 ---------
 Charge =  0 Multiplicity = 1

                         Standard orientation:
 ---------------------------------------------------------------------
 Center     Atomic      Atomic             Coordinates (Angstroms)
 Number     Number       Type             X           Y           Z
 ---------------------------------------------------------------------
      1          6           0       -1.276994    1.178985    0.409995
      2          6           0       -0.601008    0.125402   -0.469709
      3          7           0       -1.169456   -1.204959   -0.454247
      4          7           0        0.836202   -0.034783    0.027436
      5          7           0        1.840791    0.357441   -0.641995
      6          8           0        0.925621   -0.553877    1.155307
      7          1           0       -0.774255    2.148804    0.335573
      8          1           0       -1.260960    0.852525    1.452401
      9          1           0       -2.315524    1.305835    0.089586
     10          1           0       -0.537420    0.470695   -1.506527
     11          1           0       -1.137800   -1.555184    0.501539
     12          1           0       -2.141571   -1.165838   -0.748127
     13          1           0        1.477829    0.723964   -1.526972
 ---------------------------------------------------------------------

 SCF Done:  E(RB3LYP) =  -319.817285522     A.U. after    1 cycles

 The electronic state is 1-A.
 Alpha  occ. eigenvalues --  -19.15227 -14.52257 -14.36293 -14.33755 -10.28210
 Alpha  occ. eigenvalues --  -10.20269  -1.16006  -0.95846  -0.91940  -0.77456
 Alpha  occ. eigenvalues --   -0.69196  -0.60915  -0.56804  -0.51241  -0.48363
 Alpha  occ. eigenvalues --   -0.48290  -0.45076  -0.42880  -0.41408  -0.38864
 Alpha  occ. eigenvalues --   -0.30912  -0.27757  -0.26430  -0.25751
 Alpha virt. eigenvalues --   -0.04128   0.05579   0.07997   0.11698   0.12814
 Alpha virt. eigenvalues --    0.14097   0.15200   0.17251   0.17997   0.20047
 Alpha virt. eigenvalues --    0.25485   0.30813   0.35903   0.50188   0.52112

 Mulliken charges:
               1
     1  C   -0.313025
     2  C    0.129561
     3  N   -0.572680
     4  N    0.239884
     5  N   -0.299149
     6  O   -0.426983
     7  H    0.120090
     8  H    0.144633
     9  H    0.113233
    10  H    0.108558
    11  H    0.267095
    12  H    0.249168
    13  H    0.239615
 Sum of Mulliken charges =  -0.00000

 Dipole moment (field-independent basis, Debye):
    X=             -4.2130    Y=              1.8367    Z=             -1.8702  Tot=              4.9619
 Quadrupole moment (field-independent basis, Debye-Ang):
   XX=            -38.1107   YY=            -36.6850   ZZ=            -35.7665
   XY=              1.5831   XZ=             -2.2463   YZ=             -1.9457

  Exact polarizability:  51.662   3.620  41.298  -3.513  -6.642  47.618
 Approx polarizability:  72.592   9.938  60.864 -11.792 -21.114  87.922

                      1                      2                      3
                      A                      A                      A
 Frequencies --     61.0473               214.7139               245.2742
 Red. masses --      4.3876                 1.1255                 1.0740
 Frc consts  --      0.0096                 0.0306                 0.0381
 IR Inten    --      3.4379                60.2508                 0.6073

                      4                      5                      6
                      A                      A                      A
 Frequencies --    284.6669               338.5519               369.5246
 Red. masses --      2.9119                 4.2463                 2.9768
 Frc consts  --      0.1390                 0.2868                 0.2395
 IR Inten    --     13.8854                 3.1406                 4.9986

                      7                      8                      9
                      A                      A                      A
 Frequencies --    537.6253               645.1521               701.9579
 Red. masses --      3.3228                 2.8025                 3.6035
 Frc consts  --      0.5659                 0.6872                 1.0461
 IR Inten    --      3.6850                 8.9806                48.1962

                     10                     11                     12
                      A                      A                      A
 Frequencies --    814.2740               827.2853               864.6812
 Red. masses --      1.3076                 5.1436                 1.8078
 Frc consts  --      0.5108                 2.0741                 0.7964
 IR Inten    --     16.8963                 6.1817               137.0012

                     13                     14                     15
                      A                      A                      A
 Frequencies --    929.8819              1031.5841              1111.0505
 Red. masses --      1.4393                 1.4857                 2.5818
 Frc consts  --      0.7333                 0.9315                 1.8777
 IR Inten    --     44.8981                13.1518                30.8416

                     16                     17                     18
                      A                      A                      A
 Frequencies --   1156.5494              1260.9235              1282.6984
 Red. masses --      1.4829                 1.8193                 2.1805
 Frc consts  --      1.1686                 1.7043                 2.1138
 IR Inten    --      9.9129                14.5936               108.5783

                     19                     20                     21
                      A                      A                      A
 Frequencies --   1347.6593              1407.3886              1413.6839
 Red. masses --      1.3252                 1.2716                 1.2704
 Frc consts  --      1.4181                 1.4840                 1.4959
 IR Inten    --     15.4935                17.3736                12.3948

                     22                     23                     24
                      A                      A                      A
 Frequencies --   1477.9132              1496.1315              1513.1996
 Red. masses --      2.9299                 1.0493                 1.0672
 Frc consts  --      3.7705                 1.3839                 1.4398
 IR Inten    --    136.7498                 5.4391                 6.2386

                     25                     26                     27
                      A                      A                      A
 Frequencies --   1624.1067              1676.6458              3051.9586
 Red. masses --      1.3197                 2.5891                 1.0357
 Frc consts  --      2.0510                 4.2883                 5.6838
 IR Inten    --    113.0775                45.1687                11.5147

                     28                     29                     30
                      A                      A                      A
 Frequencies --   3076.5567              3125.0402              3151.6411
 Red. masses --      1.0870                 1.1029                 1.1029
 Frc consts  --      6.0620                 6.3461                 6.4547
 IR Inten    --     19.8181                19.2820                 8.5035

                     31                     32                     33
                      A                      A                      A
 Frequencies --   3441.9147              3496.7389              3593.2566
 Red. masses --      1.0736                 1.0491                 1.0929
 Frc consts  --      7.4936                 7.5579                 8.3140
 IR Inten    --      0.7214                 4.8941                 6.6910

 - Thermochemistry -
 -------------------
 Temperature   298.150 Kelvin.  Pressure   1.00000 Atm.
 Atom     1 has atomic number  6 and mass  12.00000

 Molecular mass:    89.05891 amu.
 Principal axes and moments of inertia in atomic units:
                           1         2         3
     Eigenvalues --   349.14354 613.87285 661.03812
           X            0.99949  -0.01111  -0.02983
           Y            0.01186   0.99962   0.02501
           Z            0.02954  -0.02535   0.99924
 This molecule is an asymmetric top.
 Rotational symmetry number  1.
 Rotational temperatures (Kelvin)      0.24808     0.14109     0.13103
 Rotational constants (GHZ):           5.16905     2.93993     2.73016
 Zero-point vibrational energy     284539.4 (Joules/Mol)
                                   68.00656 (Kcal/Mol)
 Warning -- explicit consideration of   7 degrees of freedom as
           vibrations may cause significant error
 Vibrational temperatures:     87.83   308.93   352.89   409.57   487.10
          (Kelvin)            531.66   773.52   928.23  1009.96  1171.56
                             1190.28  1244.08  1337.89  1484.22  1598.55
                             1664.01  1814.19  1845.51  1938.98  2024.92
                             2033.97  2126.38  2152.60  2177.15  2336.72
                             2412.32  4391.08  4426.47  4496.23  4534.50
                             4952.14  5031.02  5169.89

 Zero-point correction=                           0.108375 (Hartree/Particle)
 Thermal correction to Energy=                    0.115052
 Thermal correction to Enthalpy=                  0.115996
 Thermal correction to Gibbs Free Energy=         0.077939
 Sum of electronic and zero-point Energies=           -319.708910
 Sum of electronic and thermal Energies=              -319.702234
 Sum of electronic and thermal Enthalpies=            -319.701290
 Sum of electronic and thermal Free Energies=         -319.739347

                     E (Thermal)             CV                S
                      KCal/Mol        Cal/Mol-Kelvin    Cal/Mol-Kelvin
 Total                   72.196             23.356             80.099
 Electronic               0.000              0.000              0.000
 Translational            0.889              2.981             39.373
 Rotational               0.889              2.981             26.452
 Vibrational             70.419             17.395             14.274
 Vibration     1          0.597              1.973              4.423
 Vibration     2          0.645              1.819              2.003
 Vibration     3          0.660              1.771              1.764
 Vibration     4          0.683              1.702              1.505
 Vibration     5          0.719              1.598              1.219
 Vibration     6          0.742              1.535              1.082
 Vibration     7          0.893              1.167              0.570

 Optimization completed.
    -- Stationary point found.
 Normal termination of Gaussian 09 at Thu Sep  8 14:50:54 2022.
