 Gaussian 09, Revision D.01,
 Gaussian 09:  ES64L-G09RevD.01 24-Apr-2013

 -------------------------
 #P OPT Freq B3LYP/6-31G**
 -------------------------

 -------
 Frag_37
 -------
 Symbolic Z-matrix:
 Charge =  0 Multiplicity = 1

 SCF Done:  E(RB3LYP) =  -155.046672418     A.U. after   12 cycles
 Optimization completed.
    -- Stationary point found.

 1\1\GINC-FN13\FOpt\RB3LYP\6-31G(d,p)\C2H6O1\LIUJ201281\23-Jul-2021\0\\
 #P OPT Freq B3LYP/6-31G**\\Frag_37\\0,1\C,1.2158,-0.2395,-0.0217\C,-0.
 0848,0.5555,0.0468\O,-1.2404,-0.2604,-0.1093\H,1.2761,-0.7948,-0.9624\
 H,1.2813,-0.9598,0.8031\H,2.0855,0.4229,0.0485\H,-0.1277,1.1307,0.9859
 \H,-0.1273,1.2801,-0.7729\H,-1.2505,-0.892,0.6219\\Version=ES64L-G09Re
 vD.01\State=1-A\HF=-155.0466724\RMSD=4.086e-09\RMSF=3.166e-05\Dipole=0
 .4434675,-0.0886144,0.4640018\Quadrupole=-1.5746283,0.9939107,0.580717
 6,0.7224932,-1.3444598,-1.0504942\PG=C01 [X(C2H6O1)]\\@

 Normal termination of Gaussian 09 at Fri Jul 23 17:33:52 2021.

 ----------------------------------------------------------------------
 #P Geom=AllCheck Guess=TCheck SCRF=Check GenChk RB3LYP/6-31G(d,p) Freq
 ----------------------------------------------------------------------

 Structure from the checkpoint file:  "/vol2/users/liuj201281/HOFBenchmark/IsodesmicSplit/Sample60/Ring26/Running/Gau-324082.chk"
 -------
 Frag_37
 -------
 Charge =  0 Multiplicity = 1

                         Standard orientation:
 ---------------------------------------------------------------------
 Center     Atomic      Atomic             Coordinates (Angstroms)
 Number     Number       Type             X           Y           Z
 ---------------------------------------------------------------------
      1          6           0        1.215789   -0.239511   -0.021712
      2          6           0       -0.084801    0.555505    0.046788
      3          8           0       -1.240411   -0.260381   -0.109312
      4          1           0        1.276082   -0.794812   -0.962412
      5          1           0        1.281280   -0.959812    0.803088
      6          1           0        2.085498    0.422878    0.048488
      7          1           0       -0.127694    1.130705    0.985888
      8          1           0       -0.127292    1.280105   -0.772912
      9          1           0       -1.250519   -0.891980    0.621888
 ---------------------------------------------------------------------

 SCF Done:  E(RB3LYP) =  -155.046672418     A.U. after    1 cycles

 The electronic state is 1-A.
 Alpha  occ. eigenvalues --  -19.13801 -10.22847 -10.17789  -1.00986  -0.74319
 Alpha  occ. eigenvalues --   -0.61999  -0.49637  -0.44704  -0.42598  -0.37828
 Alpha  occ. eigenvalues --   -0.36695  -0.31985  -0.26354
 Alpha virt. eigenvalues --    0.07732   0.12377   0.14592   0.15658   0.16784
 Alpha virt. eigenvalues --    0.19026   0.22139   0.24684   0.52198   0.54579
 Alpha virt. eigenvalues --    0.55476   0.57678   0.65215   0.65975   0.78081

 Mulliken charges:
               1
     1  C   -0.333159
     2  C    0.057598
     3  O   -0.533595
     4  H    0.120350
     5  H    0.096090
     6  H    0.102625
     7  H    0.080762
     8  H    0.109332
     9  H    0.299997
 Sum of Mulliken charges =   0.00000

 Dipole moment (field-independent basis, Debye):
    X=              1.1272    Y=             -0.2252    Z=              1.1794  Tot=              1.6469
 Quadrupole moment (field-independent basis, Debye-Ang):
   XX=            -21.8608   YY=            -18.4061   ZZ=            -18.9618
   XY=              0.9718   XZ=             -1.8084   YZ=             -1.4129

  Exact polarizability:  27.790   1.095  26.931  -0.247  -1.146  25.524
 Approx polarizability:  34.406   2.596  34.828   0.588  -1.859  34.392

                      1                      2                      3
                      A                      A                      A
 Frequencies --    270.1749               316.6518               420.1371
 Red. masses --      1.0868                 1.1090                 2.7018
 Frc consts  --      0.0467                 0.0655                 0.2810
 IR Inten    --      4.2447               116.4198                17.1079

                      4                      5                      6
                      A                      A                      A
 Frequencies --    807.4474               892.8909              1066.4718
 Red. masses --      1.0828                 2.2533                 1.5957
 Frc consts  --      0.4159                 1.0584                 1.0693
 IR Inten    --      3.0630                 8.5610                 9.3263

                      7                      8                      9
                      A                      A                      A
 Frequencies --   1083.2166              1145.2635              1287.9949
 Red. masses --      2.5206                 1.8327                 1.2765
 Frc consts  --      1.7426                 1.4163                 1.2477
 IR Inten    --    113.7786                 8.6815                10.8686

                     10                     11                     12
                      A                      A                      A
 Frequencies --   1388.0004              1412.4618              1433.0587
 Red. masses --      1.2169                 1.2025                 1.3062
 Frc consts  --      1.3813                 1.4134                 1.5805
 IR Inten    --      2.6456                13.1078                41.5496

                     13                     14                     15
                      A                      A                      A
 Frequencies --   1504.0839              1508.1024              1532.8335
 Red. masses --      1.0461                 1.0458                 1.0905
 Frc consts  --      1.3943                 1.4014                 1.5096
 IR Inten    --      6.0954                 1.4588                 0.1278

                     16                     17                     18
                      A                      A                      A
 Frequencies --   2987.8929              3035.8625              3083.0875
 Red. masses --      1.0723                 1.0379                 1.0922
 Frc consts  --      5.6404                 5.6359                 6.1171
 IR Inten    --     75.1469                16.8434                10.5365

                     19                     20                     21
                      A                      A                      A
 Frequencies --   3107.2952              3127.3282              3809.9231
 Red. masses --      1.0995                 1.1029                 1.0662
 Frc consts  --      6.2546                 6.3551                 9.1185
 IR Inten    --     57.9026                33.6386                 9.2999

 - Thermochemistry -
 -------------------
 Temperature   298.150 Kelvin.  Pressure   1.00000 Atm.
 Atom     1 has atomic number  6 and mass  12.00000

 Molecular mass:    46.04186 amu.
 Principal axes and moments of inertia in atomic units:
                           1         2         3
     Eigenvalues --    52.52746 197.36071 223.23301
           X            0.99975  -0.01434  -0.01705
           Y            0.01338   0.99839  -0.05517
           Z            0.01782   0.05493   0.99833
 This molecule is an asymmetric top.
 Rotational symmetry number  1.
 Rotational temperatures (Kelvin)      1.64892     0.43886     0.38800
 Rotational constants (GHZ):          34.35805     9.14438     8.08456
 Zero-point vibrational energy     210663.5 (Joules/Mol)
                                   50.34977 (Kcal/Mol)
 Warning -- explicit consideration of   3 degrees of freedom as
           vibrations may cause significant error
 Vibrational temperatures:    388.72   455.59   604.48  1161.74  1284.67
          (Kelvin)           1534.41  1558.51  1647.78  1853.14  1997.02
                             2032.21  2061.85  2164.04  2169.82  2205.40
                             4298.91  4367.92  4435.87  4470.70  4499.52
                             5481.62

 Zero-point correction=                           0.080237 (Hartree/Particle)
 Thermal correction to Energy=                    0.084474
 Thermal correction to Enthalpy=                  0.085418
 Thermal correction to Gibbs Free Energy=         0.054899
 Sum of electronic and zero-point Energies=           -154.966435
 Sum of electronic and thermal Energies=              -154.962199
 Sum of electronic and thermal Enthalpies=            -154.961255
 Sum of electronic and thermal Free Energies=         -154.991774

                     E (Thermal)             CV                S
                      KCal/Mol        Cal/Mol-Kelvin    Cal/Mol-Kelvin
 Total                   53.008             13.429             64.232
 Electronic               0.000              0.000              0.000
 Translational            0.889              2.981             37.406
 Rotational               0.889              2.981             22.364
 Vibrational             51.230              7.467              4.462
 Vibration     1          0.674              1.728              1.595
 Vibration     2          0.704              1.642              1.327
 Vibration     3          0.783              1.426              0.892

 1\1\GINC-FN13\Freq\RB3LYP\6-31G(d,p)\C2H6O1\LIUJ201281\23-Jul-2021\0\\
 #P Geom=AllCheck Guess=TCheck SCRF=Check GenChk RB3LYP/6-31G(d,p) Freq
 \\Frag_37\\0,1\C,1.2158,-0.2395,-0.0217\C,-0.0848,0.5555,0.0468\O,-1.2
 404,-0.2604,-0.1093\H,1.2761,-0.7948,-0.9624\H,1.2813,-0.9598,0.8031\H
 ,2.0855,0.4229,0.0485\H,-0.1277,1.1307,0.9859\H,-0.1273,1.2801,-0.7729
 \H,-1.2505,-0.892,0.6219\\Version=ES64L-G09RevD.01\State=1-A\HF=-155.0
 466724\RMSD=1.283e-09\RMSF=3.165e-05\ZeroPoint=0.0802375\Thermal=0.084
 4735\Dipole=0.4434674,-0.0886146,0.4640019\DipoleDeriv=-0.0782738,0.03

 Normal termination of Gaussian 09 at Fri Jul 23 17:34:01 2021.
