 Gaussian 09, Revision E.01,
 Gaussian 09:  ES64L-G09RevE.01 30-Nov-2015

 ----------------------------
 #P OPT Freq B3LYP/6-31G(d,p)
 ----------------------------

 ---------
 Frag_1048
 ---------
 Symbolic Z-matrix:
 Charge =  0 Multiplicity = 1

 SCF Done:  E(RB3LYP) =  -396.233707151     A.U. after   13 cycles
 SCF Done:  E(RB3LYP) =  -396.233753602     A.U. after   10 cycles
 SCF Done:  E(RB3LYP) =  -396.233765918     A.U. after   11 cycles
 SCF Done:  E(RB3LYP) =  -396.233813783     A.U. after   10 cycles
 SCF Done:  E(RB3LYP) =  -396.233818638     A.U. after    8 cycles
 SCF Done:  E(RB3LYP) =  -396.233820138     A.U. after    8 cycles
 SCF Done:  E(RB3LYP) =  -396.233820967     A.U. after    8 cycles
 SCF Done:  E(RB3LYP) =  -396.233821320     A.U. after    7 cycles
 SCF Done:  E(RB3LYP) =  -396.233821444     A.U. after    7 cycles
 Optimization completed.
    -- Stationary point found.
 Normal termination of Gaussian 09 at Thu Sep  8 14:54:12 2022.

 ----------------------------------------------------------------------
 #P Geom=AllCheck Guess=TCheck SCRF=Check GenChk RB3LYP/6-31G(d,p) Freq
 ----------------------------------------------------------------------

 Structure from the checkpoint file:  "B3LYP6-31Gdp.Frag_1048.chk"
 ---------
 Frag_1048
 ---------
 Charge =  0 Multiplicity = 1

                         Standard orientation:
 ---------------------------------------------------------------------
 Center     Atomic      Atomic             Coordinates (Angstroms)
 Number     Number       Type             X           Y           Z
 ---------------------------------------------------------------------
      1          6           0       -1.388171   -1.075613   -0.670522
      2          6           0       -0.594931    0.047994    0.012894
      3          7           0       -1.103424    1.330131   -0.433287
      4          7           0       -0.557827   -0.036207    1.476996
      5          7           0        0.802233   -0.035390   -0.529181
      6          8           0        1.521197    1.081660    0.009323
      7          8           0        1.376101   -1.194885    0.091396
      8          1           0       -0.962510   -2.047344   -0.415618
      9          1           0       -2.428504   -1.052594   -0.326901
     10          1           0       -1.376067   -0.951094   -1.756267
     11          1           0       -0.732816    2.041164    0.192103
     12          1           0       -2.116405    1.341436   -0.355752
     13          1           0       -1.507061   -0.148370    1.825505
     14          1           0       -0.031806   -0.861140    1.758022
     15          1           0        1.910766    1.460926   -0.791217
     16          1           0        1.977760   -1.521209   -0.591549
 ---------------------------------------------------------------------

 SCF Done:  E(RB3LYP) =  -396.233821444     A.U. after    1 cycles

 The electronic state is 1-A.
 Alpha  occ. eigenvalues --  -19.17642 -19.16716 -14.42093 -14.30751 -14.30255
 Alpha  occ. eigenvalues --  -10.26740 -10.17429  -1.10086  -1.00049  -0.92147
 Alpha  occ. eigenvalues --   -0.83154  -0.76921  -0.70681  -0.57582  -0.52575
 Alpha  occ. eigenvalues --   -0.50693  -0.49890  -0.46996  -0.44303  -0.42230
 Alpha  occ. eigenvalues --   -0.40452  -0.39043  -0.38492  -0.36686  -0.31533
 Alpha  occ. eigenvalues --   -0.28541  -0.25229  -0.23965  -0.22905
 Alpha virt. eigenvalues --    0.06273   0.08348   0.09369   0.13157   0.13385
 Alpha virt. eigenvalues --    0.15086   0.15379   0.16610   0.17994   0.18504
 Alpha virt. eigenvalues --    0.20843   0.22623   0.23922   0.29643   0.30597

 Mulliken charges:
               1
     1  C   -0.316217
     2  C    0.397824
     3  N   -0.584927
     4  N   -0.582630
     5  N   -0.053196
     6  O   -0.398969
     7  O   -0.411570
     8  H    0.117125
     9  H    0.088707
    10  H    0.123610
    11  H    0.257051
    12  H    0.232788
    13  H    0.226016
    14  H    0.255295
    15  H    0.324460
    16  H    0.324633
 Sum of Mulliken charges =  -0.00000

 Dipole moment (field-independent basis, Debye):
    X=             -0.7680    Y=             -1.0616    Z=             -0.9053  Tot=              1.5926
 Quadrupole moment (field-independent basis, Debye-Ang):
   XX=            -34.2369   YY=            -39.2033   ZZ=            -44.1248
   XY=             -1.1099   XZ=             -6.6774   YZ=             -0.5261

  Exact polarizability:  56.382  -0.777  54.816  -1.588  -1.072  45.848
 Approx polarizability:  73.884  -1.849  77.643  -1.258  -2.820  65.395

                      1                      2                      3
                      A                      A                      A
 Frequencies --    123.5026               196.3266               234.8316
 Red. masses --      3.7959                 1.0930                 1.0600
 Frc consts  --      0.0341                 0.0248                 0.0344
 IR Inten    --      4.7822                 1.0594                14.1120

                      4                      5                      6
                      A                      A                      A
 Frequencies --    246.7971               262.8566               290.3516
 Red. masses --      1.1950                 1.8586                 1.9245
 Frc consts  --      0.0429                 0.0757                 0.0956
 IR Inten    --     70.1561                17.7131                98.2917

                      7                      8                      9
                      A                      A                      A
 Frequencies --    309.1917               377.8656               386.7131
 Red. masses --      1.9406                 2.2086                 2.8863
 Frc consts  --      0.1093                 0.1858                 0.2543
 IR Inten    --      8.0121                 2.9949                 4.2229

                     10                     11                     12
                      A                      A                      A
 Frequencies --    397.9917               454.5190               535.0115
 Red. masses --      1.5982                 3.4592                 3.3482
 Frc consts  --      0.1492                 0.4210                 0.5647
 IR Inten    --     67.9255                11.5089                22.6467

                     13                     14                     15
                      A                      A                      A
 Frequencies --    551.4775               619.0384               758.4587
 Red. masses --      3.4060                 4.8249                 3.7510
 Frc consts  --      0.6103                 1.0894                 1.2713
 IR Inten    --      9.0655                 7.7128                13.5029

                     16                     17                     18
                      A                      A                      A
 Frequencies --    822.9957               889.4827               901.6608
 Red. masses --      2.7081                 1.4622                 4.5292
 Frc consts  --      1.0807                 0.6816                 2.1695
 IR Inten    --     39.9430               208.7533               199.6709

                     19                     20                     21
                      A                      A                      A
 Frequencies --    925.6163               979.2202              1006.2051
 Red. masses --      1.7609                 1.6395                 4.6049
 Frc consts  --      0.8889                 0.9263                 2.7469
 IR Inten    --     25.2165                 1.7254                30.8617

                     22                     23                     24
                      A                      A                      A
 Frequencies --   1030.0354              1117.2475              1228.6989
 Red. masses --      1.7107                 1.5601                 2.4380
 Frc consts  --      1.0694                 1.1474                 2.1686
 IR Inten    --     31.8832                18.8110                85.2190

                     25                     26                     27
                      A                      A                      A
 Frequencies --   1316.9034              1347.9454              1373.3111
 Red. masses --      1.6964                 1.2766                 1.8315
 Frc consts  --      1.7334                 1.3667                 2.0351
 IR Inten    --     67.6475                18.8156                51.9548

                     28                     29                     30
                      A                      A                      A
 Frequencies --   1402.8414              1418.5471              1497.5417
 Red. masses --      1.2663                 1.3474                 1.0514
 Frc consts  --      1.4683                 1.5975                 1.3893
 IR Inten    --     35.3194                 3.6070                 1.1396

                     31                     32                     33
                      A                      A                      A
 Frequencies --   1517.7118              1644.7103              1654.3080
 Red. masses --      1.0620                 1.1043                 1.1071
 Frc consts  --      1.4413                 1.7600                 1.7851
 IR Inten    --      0.6324                48.2511                34.8331

                     34                     35                     36
                      A                      A                      A
 Frequencies --   3051.2412              3125.6764              3159.9769
 Red. masses --      1.0397                 1.0980                 1.1027
 Frc consts  --      5.7032                 6.3203                 6.4876
 IR Inten    --     18.8756                23.3131                13.7797

                     37                     38                     39
                      A                      A                      A
 Frequencies --   3488.9971              3508.1128              3579.7587
 Red. masses --      1.0488                 1.0487                 1.0928
 Frc consts  --      7.5223                 7.6044                 8.2505
 IR Inten    --      3.1394                 2.2082                 0.8389

                     40                     41                     42
                      A                      A                      A
 Frequencies --   3600.0051              3796.4053              3805.9304
 Red. masses --      1.0932                 1.0678                 1.0682
 Frc consts  --      8.3476                 9.0678                 9.1162
 IR Inten    --      2.9367                35.1548                38.1853

 - Thermochemistry -
 -------------------
 Temperature   298.150 Kelvin.  Pressure   1.00000 Atm.
 Atom     1 has atomic number  6 and mass  12.00000

 Molecular mass:   107.06948 amu.
 Principal axes and moments of inertia in atomic units:
                           1         2         3
     Eigenvalues --   540.42813 722.32646 879.84552
           X            0.99941   0.03204  -0.01268
           Y           -0.03183   0.99936   0.01635
           Z            0.01319  -0.01594   0.99979
 This molecule is an asymmetric top.
 Rotational symmetry number  1.
 Warning -- assumption of classical behavior for rotation
           may cause significant error
 Rotational temperatures (Kelvin)      0.16027     0.11991     0.09844
 Rotational constants (GHZ):           3.33947     2.49851     2.05120
 Zero-point vibrational energy     352515.7 (Joules/Mol)
                                   84.25327 (Kcal/Mol)
 Warning -- explicit consideration of  14 degrees of freedom as
           vibrations may cause significant error
 Vibrational temperatures:    177.69   282.47   337.87   355.09   378.19
          (Kelvin)            417.75   444.86   543.66   556.39   572.62
                              653.95   769.76   793.45   890.66  1091.25
                             1184.11  1279.77  1297.29  1331.75  1408.88
                             1447.70  1481.99  1607.47  1767.82  1894.73
                             1939.39  1975.89  2018.37  2040.97  2154.63
                             2183.65  2366.37  2380.18  4390.05  4497.15
                             4546.50  5019.88  5047.39  5150.47  5179.60
                             5462.17  5475.88

 Zero-point correction=                           0.134266 (Hartree/Particle)
 Thermal correction to Energy=                    0.142954
 Thermal correction to Enthalpy=                  0.143898
 Thermal correction to Gibbs Free Energy=         0.102447
 Sum of electronic and zero-point Energies=           -396.099555
 Sum of electronic and thermal Energies=              -396.090867
 Sum of electronic and thermal Enthalpies=            -396.089923
 Sum of electronic and thermal Free Energies=         -396.131375

                     E (Thermal)             CV                S
                      KCal/Mol        Cal/Mol-Kelvin    Cal/Mol-Kelvin
 Total                   89.705             32.725             87.242
 Electronic               0.000              0.000              0.000
 Translational            0.889              2.981             39.922
 Rotational               0.889              2.981             27.332
 Vibrational             87.928             26.764             19.988
 Vibration     1          0.610              1.929              3.045
 Vibration     2          0.636              1.845              2.167
 Vibration     3          0.655              1.788              1.842
 Vibration     4          0.661              1.768              1.753
 Vibration     5          0.670              1.741              1.643
 Vibration     6          0.686              1.692              1.472
 Vibration     7          0.699              1.656              1.367
 Vibration     8          0.748              1.517              1.048
 Vibration     9          0.755              1.499              1.013
 Vibration    10          0.764              1.474              0.970
 Vibration    11          0.813              1.351              0.782
 Vibration    12          0.890              1.173              0.576
 Vibration    13          0.907              1.136              0.541
 Vibration    14          0.979              0.992              0.418

 Normal termination of Gaussian 09 at Thu Sep  8 14:54:27 2022.
