 Gaussian 09, Revision E.01,
 Gaussian 09:  ES64L-G09RevE.01 30-Nov-2015

 ----------------------------
 #P OPT Freq B3LYP/6-31G(d,p)
 ----------------------------

 --------
 Frag_723
 --------
 Symbolic Z-matrix:
 Charge =  0 Multiplicity = 1

 SCF Done:  E(RB3LYP) =  -307.251274571     A.U. after   13 cycles
 SCF Done:  E(RB3LYP) =  -307.251318068     A.U. after   10 cycles
 SCF Done:  E(RB3LYP) =  -307.251321942     A.U. after    8 cycles
 SCF Done:  E(RB3LYP) =  -307.251322168     A.U. after    7 cycles
 SCF Done:  E(RB3LYP) =  -307.251322202     A.U. after    7 cycles
 Optimization completed.
    -- Stationary point found.
 Normal termination of Gaussian 09 at Thu Sep  8 14:59:48 2022.

 ----------------------------------------------------------------------
 #P Geom=AllCheck Guess=TCheck SCRF=Check GenChk RB3LYP/6-31G(d,p) Freq
 ----------------------------------------------------------------------

 Structure from the checkpoint file:  "B3LYP6-31Gdp.Frag_723.chk"
 --------
 Frag_723
 --------
 Charge =  0 Multiplicity = 1

                         Standard orientation:
 ---------------------------------------------------------------------
 Center     Atomic      Atomic             Coordinates (Angstroms)
 Number     Number       Type             X           Y           Z
 ---------------------------------------------------------------------
      1          6           0        1.397423    1.490856   -0.019262
      2          6           0        0.907838    0.247143   -0.040564
      3          6           0        1.846244   -0.939519   -0.048533
      4          6           0       -0.600209   -0.065699   -0.008922
      5          6           0       -1.475980    1.152312   -0.324481
      6          7           0       -1.019099   -0.554502    1.333987
      7          7           0       -0.888181   -1.082115   -1.023723
      8          1           0        2.468820    1.669015    0.012273
      9          1           0        0.767404    2.372598   -0.039082
     10          1           0        2.880946   -0.622392    0.101325
     11          1           0        1.796792   -1.472615   -1.005295
     12          1           0        1.607371   -1.665130    0.739733
     13          1           0       -2.525668    0.846008   -0.318517
     14          1           0       -1.228753    1.558054   -1.307100
     15          1           0       -1.359528    1.938500    0.426808
     16          1           0       -0.459546   -1.366276    1.592580
     17          1           0       -0.812898    0.157623    2.034329
     18          1           0       -0.365420   -1.932598   -0.825692
     19          1           0       -1.870459   -1.337018   -0.932641
 ---------------------------------------------------------------------

 SCF Done:  E(RB3LYP) =  -307.251322202     A.U. after    1 cycles

 The electronic state is 1-A.
 Alpha  occ. eigenvalues --  -14.31097 -14.30887 -10.24475 -10.19171 -10.18439
 Alpha  occ. eigenvalues --  -10.16981 -10.16839  -0.91930  -0.83089  -0.78496
 Alpha  occ. eigenvalues --   -0.72027  -0.67646  -0.60619  -0.52154  -0.49186
 Alpha  occ. eigenvalues --   -0.48028  -0.45950  -0.44396  -0.41628  -0.40685
 Alpha  occ. eigenvalues --   -0.38843  -0.37373  -0.36608  -0.35097  -0.33359
 Alpha  occ. eigenvalues --   -0.26009  -0.24376  -0.22949
 Alpha virt. eigenvalues --    0.02434   0.06654   0.11077   0.12139   0.13197
 Alpha virt. eigenvalues --    0.14060   0.14707   0.17074   0.17381   0.17538
 Alpha virt. eigenvalues --    0.20629   0.21423   0.22685   0.24648   0.25146

 Mulliken charges:
               1
     1  C   -0.296530
     2  C    0.210335
     3  C   -0.389319
     4  C    0.155936
     5  C   -0.293954
     6  N   -0.576611
     7  N   -0.573997
     8  H    0.084431
     9  H    0.091904
    10  H    0.113116
    11  H    0.131893
    12  H    0.095096
    13  H    0.105031
    14  H    0.121782
    15  H    0.095211
    16  H    0.222960
    17  H    0.231735
    18  H    0.229577
    19  H    0.241405
 Sum of Mulliken charges =  -0.00000

 Dipole moment (field-independent basis, Debye):
    X=              0.7919    Y=             -0.6403    Z=              1.1869  Tot=              1.5639
 Quadrupole moment (field-independent basis, Debye-Ang):
   XX=            -44.9663   YY=            -40.8282   ZZ=            -47.3756
   XY=             -1.1858   XZ=              1.5315   YZ=              0.2422

  Exact polarizability:  71.573   3.100  76.858   0.363   0.537  53.265
 Approx polarizability:  93.811   8.852 115.102  -0.616   1.359  77.329

                      1                      2                      3
                      A                      A                      A
 Frequencies --     69.6829               207.7193               240.2909
 Red. masses --      2.9468                 1.0358                 1.7784
 Frc consts  --      0.0084                 0.0263                 0.0605
 IR Inten    --      0.3465                 3.2964                20.5745

                      4                      5                      6
                      A                      A                      A
 Frequencies --    260.7444               292.5835               301.7475
 Red. masses --      1.6132                 1.2863                 1.4046
 Frc consts  --      0.0646                 0.0649                 0.0754
 IR Inten    --      4.8578                25.8573                 1.8377

                      7                      8                      9
                      A                      A                      A
 Frequencies --    333.1961               378.7939               403.5467
 Red. masses --      1.2607                 2.5785                 2.4755
 Frc consts  --      0.0825                 0.2180                 0.2375
 IR Inten    --     30.4854                 6.9842                 9.1503

                     10                     11                     12
                      A                      A                      A
 Frequencies --    405.5999               504.5641               519.8749
 Red. masses --      2.6118                 2.2108                 2.8483
 Frc consts  --      0.2532                 0.3316                 0.4536
 IR Inten    --     11.2684                10.5112                 8.9729

                     13                     14                     15
                      A                      A                      A
 Frequencies --    564.9436               698.8765               743.9948
 Red. masses --      2.1964                 3.3570                 1.1648
 Frc consts  --      0.4130                 0.9661                 0.3799
 IR Inten    --      2.7800                 8.6737                 2.6349

                     16                     17                     18
                      A                      A                      A
 Frequencies --    864.6152               887.5451               914.3654
 Red. masses --      2.4916                 1.6871                 1.6670
 Frc consts  --      1.0974                 0.7830                 0.8212
 IR Inten    --     36.3898               163.4784                95.8238

                     19                     20                     21
                      A                      A                      A
 Frequencies --    928.0429               959.9559               995.4876
 Red. masses --      1.3442                 1.6491                 1.3842
 Frc consts  --      0.6821                 0.8954                 0.8082
 IR Inten    --     42.6143                10.3029                24.5866

                     22                     23                     24
                      A                      A                      A
 Frequencies --   1011.5477              1043.2511              1071.6280
 Red. masses --      1.4633                 1.4572                 1.5021
 Frc consts  --      0.8822                 0.9344                 1.0163
 IR Inten    --      3.2498                14.0858                 1.7148

                     25                     26                     27
                      A                      A                      A
 Frequencies --   1116.3568              1166.0693              1246.7462
 Red. masses --      1.4468                 2.4500                 2.0683
 Frc consts  --      1.0623                 1.9627                 1.8942
 IR Inten    --     22.0653                56.5982                11.8326

                     28                     29                     30
                      A                      A                      A
 Frequencies --   1317.2198              1385.1421              1418.0623
 Red. masses --      2.1874                 1.7050                 1.2520
 Frc consts  --      2.2361                 1.9274                 1.4834
 IR Inten    --     24.1737                 6.7931                 7.9844

                     31                     32                     33
                      A                      A                      A
 Frequencies --   1423.2654              1461.9017              1499.9848
 Red. masses --      1.5091                 1.1989                 1.0520
 Frc consts  --      1.8011                 1.5096                 1.3946
 IR Inten    --     10.1217                 3.6873                 5.6570

                     34                     35                     36
                      A                      A                      A
 Frequencies --   1504.1515              1510.7835              1519.4192
 Red. masses --      1.0519                 1.0488                 1.0633
 Frc consts  --      1.4022                 1.4104                 1.4464
 IR Inten    --      2.3175                 9.4160                 5.7568

                     37                     38                     39
                      A                      A                      A
 Frequencies --   1659.6133              1675.9142              1724.0017
 Red. masses --      1.0987                 1.0925                 5.0223
 Frc consts  --      1.7829                 1.8078                 8.7948
 IR Inten    --     25.1163                29.6522                10.0179

                     40                     41                     42
                      A                      A                      A
 Frequencies --   3029.4147              3060.6379              3083.1374
 Red. masses --      1.0403                 1.0359                 1.0978
 Frc consts  --      5.6251                 5.7171                 6.1483
 IR Inten    --     28.5522                13.6670                21.3018

                     43                     44                     45
                      A                      A                      A
 Frequencies --   3128.0216              3129.5337              3155.2186
 Red. masses --      1.1017                 1.0994                 1.1031
 Frc consts  --      6.3512                 6.3443                 6.4704
 IR Inten    --      9.5760                33.7492                16.8930

                     46                     47                     48
                      A                      A                      A
 Frequencies --   3161.1896              3246.8898              3463.3939
 Red. masses --      1.0628                 1.1127                 1.0493
 Frc consts  --      6.2574                 6.9115                 7.4158
 IR Inten    --     11.8745                14.8638                 3.3945

                     49                     50                     51
                      A                      A                      A
 Frequencies --   3483.7726              3550.9507              3564.0442
 Red. masses --      1.0496                 1.0917                 1.0911
 Frc consts  --      7.5051                 8.1106                 8.1659
 IR Inten    --      1.0696                 1.8476                 0.6500

 - Thermochemistry -
 -------------------
 Temperature   298.150 Kelvin.  Pressure   1.00000 Atm.
 Atom     1 has atomic number  6 and mass  12.00000

 Molecular mass:   100.10005 amu.
 Principal axes and moments of inertia in atomic units:
                           1         2         3
     Eigenvalues --   555.19636 780.78060 959.05963
           X            0.99781  -0.06528   0.01061
           Y            0.06537   0.99783  -0.00835
           Z           -0.01004   0.00902   0.99991
 This molecule is an asymmetric top.
 Rotational symmetry number  1.
 Warning -- assumption of classical behavior for rotation
           may cause significant error
 Rotational temperatures (Kelvin)      0.15601     0.11093     0.09031
 Rotational constants (GHZ):           3.25064     2.31146     1.88178
 Zero-point vibrational energy     450318.9 (Joules/Mol)
                                  107.62879 (Kcal/Mol)
 Warning -- explicit consideration of  13 degrees of freedom as
           vibrations may cause significant error
 Vibrational temperatures:    100.26   298.86   345.72   375.15   420.96
          (Kelvin)            434.15   479.39   545.00   580.61   583.57
                              725.95   747.98   812.83  1005.53  1070.44
                             1243.99  1276.98  1315.57  1335.25  1381.16
                             1432.28  1455.39  1501.00  1541.83  1606.19
                             1677.71  1793.79  1895.18  1992.91  2040.27
                             2047.76  2103.35  2158.14  2164.14  2173.68
                             2186.10  2387.81  2411.26  2480.45  4358.65
                             4403.57  4435.94  4500.52  4502.70  4539.65
                             4548.24  4671.54  4983.05  5012.37  5109.02
                             5127.86

 Zero-point correction=                           0.171517 (Hartree/Particle)
 Thermal correction to Energy=                    0.180166
 Thermal correction to Enthalpy=                  0.181110
 Thermal correction to Gibbs Free Energy=         0.139484
 Sum of electronic and zero-point Energies=           -307.079805
 Sum of electronic and thermal Energies=              -307.071156
 Sum of electronic and thermal Enthalpies=            -307.070212
 Sum of electronic and thermal Free Energies=         -307.111838

                     E (Thermal)             CV                S
                      KCal/Mol        Cal/Mol-Kelvin    Cal/Mol-Kelvin
 Total                  113.056             33.248             87.609
 Electronic               0.000              0.000              0.000
 Translational            0.889              2.981             39.721
 Rotational               0.889              2.981             27.522
 Vibrational            111.278             27.286             20.367
 Vibration     1          0.598              1.969              4.162
 Vibration     2          0.641              1.829              2.064
 Vibration     3          0.657              1.779              1.801
 Vibration     4          0.669              1.745              1.657
 Vibration     5          0.688              1.688              1.459
 Vibration     6          0.694              1.670              1.407
 Vibration     7          0.715              1.609              1.245
 Vibration     8          0.749              1.515              1.044
 Vibration     9          0.769              1.462              0.950
 Vibration    10          0.771              1.458              0.942
 Vibration    11          0.860              1.240              0.647
 Vibration    12          0.875              1.206              0.610
 Vibration    13          0.921              1.107              0.514

 Optimization completed.
    -- Stationary point found.
 Normal termination of Gaussian 09 at Thu Sep  8 15:00:07 2022.
