 Gaussian 09, Revision E.01,
 Gaussian 09:  ES64L-G09RevE.01 30-Nov-2015

 -------------------------
 #P OPT Freq B3LYP/6-31G**
 -------------------------

 --------
 Frag_242
 --------
 Symbolic Z-matrix:
 Charge =  0 Multiplicity = 1

 SCF Done:  E(RB3LYP) =  -288.978404599     A.U. after   12 cycles
 SCF Done:  E(RB3LYP) =  -288.985740320     A.U. after   12 cycles
 SCF Done:  E(RB3LYP) =  -288.987039939     A.U. after   11 cycles
 SCF Done:  E(RB3LYP) =  -288.987293561     A.U. after   10 cycles
 SCF Done:  E(RB3LYP) =  -288.987306902     A.U. after    8 cycles
 SCF Done:  E(RB3LYP) =  -288.987307736     A.U. after    7 cycles
 Optimization completed.
    -- Stationary point found.
 Normal termination of Gaussian 09 at Sat Aug 21 01:37:30 2021.

 ----------------------------------------------------------------------
 #P Geom=AllCheck Guess=TCheck SCRF=Check GenChk RB3LYP/6-31G(d,p) Freq
 ----------------------------------------------------------------------

 Structure from the checkpoint file:  "/public/home/users/caep010/.cache/gau_scr/Gau-47323.chk"
 --------
 Frag_242
 --------
 Charge =  0 Multiplicity = 1

                         Standard orientation:
 ---------------------------------------------------------------------
 Center     Atomic      Atomic             Coordinates (Angstroms)
 Number     Number       Type             X           Y           Z
 ---------------------------------------------------------------------
      1          6           0        0.427323    1.266113    0.888850
      2          6           0        0.404030   -0.000001    0.024895
      3          6           0        1.553676    0.000103   -0.986592
      4          6           0        0.427283   -1.266338    0.888527
      5          8           0       -0.768491    0.000137   -0.831006
      6          7           0       -1.981611    0.000040   -0.048847
      7          1           0        1.333153    1.300763    1.502937
      8          1           0        0.407664    2.159676    0.256419
      9          1           0       -0.440167    1.288598    1.552988
     10          1           0        1.502866   -0.886473   -1.625551
     11          1           0        1.502864    0.886814   -1.625365
     12          1           0        2.517651    0.000051   -0.468919
     13          1           0        1.333154   -1.301210    1.502542
     14          1           0       -0.440152   -1.288934    1.552734
     15          1           0        0.407520   -2.159741    0.255873
     16          1           0       -2.489737    0.811438   -0.403996
     17          1           0       -2.489477   -0.811628   -0.403766
 ---------------------------------------------------------------------

 SCF Done:  E(RB3LYP) =  -288.987307736     A.U. after    1 cycles

 The electronic state is 1-A.
 Alpha  occ. eigenvalues --  -19.15742 -14.36271 -10.23171 -10.16768 -10.16319
 Alpha  occ. eigenvalues --  -10.16318  -1.04216  -0.82980  -0.74883  -0.68066
 Alpha  occ. eigenvalues --   -0.67920  -0.54046  -0.49502  -0.47314  -0.45198
 Alpha  occ. eigenvalues --   -0.43338  -0.40465  -0.37973  -0.37368  -0.35941
 Alpha  occ. eigenvalues --   -0.35640  -0.33631  -0.32278  -0.25192  -0.24603
 Alpha virt. eigenvalues --    0.07812   0.09143   0.12034   0.15018   0.15030
 Alpha virt. eigenvalues --    0.16027   0.16266   0.17215   0.17938   0.20411
 Alpha virt. eigenvalues --    0.20548   0.22281   0.23282   0.23637   0.26774

 Mulliken charges:
               1
     1  C   -0.315433
     2  C    0.304916
     3  C   -0.309967
     4  C   -0.315448
     5  O   -0.456034
     6  N   -0.361972
     7  H    0.094056
     8  H    0.097259
     9  H    0.120291
    10  H    0.107394
    11  H    0.107397
    12  H    0.099355
    13  H    0.094065
    14  H    0.120281
    15  H    0.097261
    16  H    0.258293
    17  H    0.258286
 Sum of Mulliken charges =  -0.00000

 Dipole moment (field-independent basis, Debye):
    X=             -0.6126    Y=             -0.0005    Z=             -0.0455  Tot=              0.6143
 Quadrupole moment (field-independent basis, Debye-Ang):
   XX=            -33.0757   YY=            -37.6529   ZZ=            -40.6959
   XY=              0.0005   XZ=              1.9696   YZ=             -0.0002

  Exact polarizability:  63.009   0.000  53.948  -0.141  -0.000  50.386
 Approx polarizability:  82.241   0.000  71.332  -0.025  -0.001  70.252

                      1                      2                      3
                      A                      A                      A
 Frequencies --    145.1667               196.1244               213.6710
 Red. masses --      2.4580                 1.1771                 1.0357
 Frc consts  --      0.0305                 0.0267                 0.0279
 IR Inten    --      3.3708                 3.3489                33.3806

                      4                      5                      6
                      A                      A                      A
 Frequencies --    255.6825               256.8642               269.5877
 Red. masses --      1.0699                 1.0330                 2.7817
 Frc consts  --      0.0412                 0.0402                 0.1191
 IR Inten    --      3.5763                 0.2232                 1.5383

                      7                      8                      9
                      A                      A                      A
 Frequencies --    339.5013               362.4351               406.6946
 Red. masses --      2.4382                 2.5618                 2.2804
 Frc consts  --      0.1656                 0.1983                 0.2222
 IR Inten    --      4.0738                 2.5965                 0.8903

                     10                     11                     12
                      A                      A                      A
 Frequencies --    460.1879               538.2036               743.4502
 Red. masses --      2.8087                 3.3061                 3.8659
 Frc consts  --      0.3504                 0.5642                 1.2589
 IR Inten    --      7.1661                 7.3395                 6.2842

                     13                     14                     15
                      A                      A                      A
 Frequencies --    863.8434               917.9415               918.3645
 Red. masses --      2.6713                 2.2857                 1.6502
 Frc consts  --      1.1745                 1.1348                 0.8200
 IR Inten    --     21.5706                 8.7722                 0.0149

                     16                     17                     18
                      A                      A                      A
 Frequencies --    938.0631               962.6717              1045.3540
 Red. masses --      2.6139                 1.2011                 1.4074
 Frc consts  --      1.3552                 0.6558                 0.9061
 IR Inten    --     11.4069                 0.0821                 0.5890

                     19                     20                     21
                      A                      A                      A
 Frequencies --   1055.9325              1202.2272              1243.0152
 Red. masses --      1.4489                 1.5236                 2.2167
 Frc consts  --      0.9518                 1.2975                 2.0179
 IR Inten    --      1.1425                53.3424                78.9874

                     22                     23                     24
                      A                      A                      A
 Frequencies --   1267.9096              1297.0503              1312.0611
 Red. masses --      2.5956                 2.6196                 1.1143
 Frc consts  --      2.4585                 2.5966                 1.1302
 IR Inten    --     20.6189                 3.8310                 1.0373

                     25                     26                     27
                      A                      A                      A
 Frequencies --   1404.4673              1407.3179              1431.1169
 Red. masses --      1.3154                 1.3136                 1.2415
 Frc consts  --      1.5287                 1.5328                 1.4981
 IR Inten    --     15.1294                12.3212                 8.4924

                     28                     29                     30
                      A                      A                      A
 Frequencies --   1483.2506              1501.5173              1502.8978
 Red. masses --      1.0480                 1.0493                 1.0451
 Frc consts  --      1.3584                 1.3938                 1.3908
 IR Inten    --      0.2236                 0.3682                 0.0128

                     31                     32                     33
                      A                      A                      A
 Frequencies --   1510.9431              1513.4728              1537.1102
 Red. masses --      1.0668                 1.0543                 1.0554
 Frc consts  --      1.4350                 1.4229                 1.4692
 IR Inten    --      3.0995                 0.7579                 5.8039

                     34                     35                     36
                      A                      A                      A
 Frequencies --   1661.3204              3045.4571              3047.2248
 Red. masses --      1.0669                 1.0356                 1.0351
 Frc consts  --      1.7349                 5.6594                 5.6630
 IR Inten    --     13.0567                29.0117                12.7298

                     37                     38                     39
                      A                      A                      A
 Frequencies --   3054.3910              3114.5029              3117.5973
 Red. masses --      1.0360                 1.1028                 1.1024
 Frc consts  --      5.6946                 6.3026                 6.3129
 IR Inten    --     12.8527                 9.0993                19.2342

                     40                     41                     42
                      A                      A                      A
 Frequencies --   3128.3426              3129.7591              3136.9542
 Red. masses --      1.1030                 1.1024                 1.1017
 Frc consts  --      6.3597                 6.3621                 6.3878
 IR Inten    --     31.2331                45.4806                 4.2074

                     43                     44                     45
                      A                      A                      A
 Frequencies --   3140.6493              3431.1092              3518.7734
 Red. masses --      1.1011                 1.0476                 1.0961
 Frc consts  --      6.3989                 7.2664                 7.9960
 IR Inten    --     32.3100                 3.1966                 0.2261

 - Thermochemistry -
 -------------------
 Temperature   298.150 Kelvin.  Pressure   1.00000 Atm.
 Atom     1 has atomic number  6 and mass  12.00000

 Molecular mass:    89.08406 amu.
 Principal axes and moments of inertia in atomic units:
                           1         2         3
     Eigenvalues --   409.34602 658.74340 660.44870
           X            0.99987   0.00002  -0.01595
           Y           -0.00001   1.00000   0.00054
           Z            0.01595  -0.00054   0.99987
 This molecule is an asymmetric top.
 Rotational symmetry number  1.
 Rotational temperatures (Kelvin)      0.21159     0.13148     0.13114
 Rotational constants (GHZ):           4.40884     2.73967     2.73260
 Zero-point vibrational energy     400929.5 (Joules/Mol)
                                   95.82445 (Kcal/Mol)
 Warning -- explicit consideration of  11 degrees of freedom as
           vibrations may cause significant error
 Vibrational temperatures:    208.86   282.18   307.42   367.87   369.57
          (Kelvin)            387.88   488.47   521.46   585.14   662.11
                              774.35  1069.66  1242.88  1320.71  1321.32
                             1349.66  1385.07  1504.03  1519.25  1729.73
                             1788.42  1824.24  1866.16  1887.76  2020.71
                             2024.81  2059.06  2134.06  2160.35  2162.33
                             2173.91  2177.55  2211.56  2390.27  4381.73
                             4384.27  4394.58  4481.07  4485.52  4500.98
                             4503.02  4513.37  4518.69  4936.59  5062.72

 Zero-point correction=                           0.152706 (Hartree/Particle)
 Thermal correction to Energy=                    0.160715
 Thermal correction to Enthalpy=                  0.161659
 Thermal correction to Gibbs Free Energy=         0.121801
 Sum of electronic and zero-point Energies=           -288.834602
 Sum of electronic and thermal Energies=              -288.826593
 Sum of electronic and thermal Enthalpies=            -288.825649
 Sum of electronic and thermal Free Energies=         -288.865506

                     E (Thermal)             CV                S
                      KCal/Mol        Cal/Mol-Kelvin    Cal/Mol-Kelvin
 Total                  100.850             29.267             83.887
 Electronic               0.000              0.000              0.000
 Translational            0.889              2.981             39.374
 Rotational               0.889              2.981             26.679
 Vibrational             99.072             23.305             17.834
 Vibration     1          0.617              1.908              2.735
 Vibration     2          0.636              1.845              2.169
 Vibration     3          0.644              1.820              2.012
 Vibration     4          0.666              1.753              1.691
 Vibration     5          0.666              1.751              1.683
 Vibration     6          0.674              1.729              1.599
 Vibration     7          0.719              1.597              1.214
 Vibration     8          0.736              1.550              1.112
 Vibration     9          0.771              1.456              0.938
 Vibration    10          0.818              1.338              0.766
 Vibration    11          0.893              1.166              0.569

 Optimization completed.
    -- Stationary point found.
 Normal termination of Gaussian 09 at Sat Aug 21 01:37:44 2021.
