 Gaussian 09, Revision E.01,
 Gaussian 09:  ES64L-G09RevE.01 30-Nov-2015

 --------------------------------
 #P OPT=calcfc Freq B3LYP/6-31G**
 --------------------------------

 --------
 Frag_393
 --------
 Symbolic Z-matrix:
 Charge =  0 Multiplicity = 1

 SCF Done:  E(RB3LYP) =  -248.468248861     A.U. after   13 cycles
 SCF Done:  E(RB3LYP) =  -248.482647252     A.U. after   14 cycles
 SCF Done:  E(RB3LYP) =  -248.482254913     A.U. after   13 cycles
 SCF Done:  E(RB3LYP) =  -248.484300290     A.U. after   11 cycles
 SCF Done:  E(RB3LYP) =  -248.486460891     A.U. after   13 cycles
 SCF Done:  E(RB3LYP) =  -248.487623524     A.U. after   11 cycles
 SCF Done:  E(RB3LYP) =  -248.487701588     A.U. after   11 cycles
 SCF Done:  E(RB3LYP) =  -248.487728843     A.U. after   11 cycles
 SCF Done:  E(RB3LYP) =  -248.487745054     A.U. after   10 cycles
 SCF Done:  E(RB3LYP) =  -248.487746487     A.U. after    8 cycles
 Optimization completed.
    -- Stationary point found.
 Normal termination of Gaussian 09 at Fri Sep 10 21:23:27 2021.

 ----------------------------------------------------------------------
 #P Geom=AllCheck Guess=TCheck SCRF=Check GenChk RB3LYP/6-31G(d,p) Freq
 ----------------------------------------------------------------------

 Structure from the checkpoint file:  "/public/home/users/caep010/.cache/gau_scr/Gau-159397.chk"
 --------
 Frag_393
 --------
 Charge =  0 Multiplicity = 1

                         Standard orientation:
 ---------------------------------------------------------------------
 Center     Atomic      Atomic             Coordinates (Angstroms)
 Number     Number       Type             X           Y           Z
 ---------------------------------------------------------------------
      1          6           0        0.637791    1.414179    0.016421
      2          6           0        0.541689    0.078355    0.016908
      3          8           0        1.668837   -0.706021    0.019699
      4          7           0       -0.630504   -0.686622   -0.008945
      5          6           0       -1.914931   -0.003725   -0.047385
      6          1           0        1.607051    1.879037   -0.100869
      7          1           0       -0.229748    2.046133    0.144824
      8          1           0        1.471182   -1.488334   -0.516899
      9          1           0       -0.600268   -1.427309    0.685482
     10          1           0       -2.102767    0.634183    0.829825
     11          1           0       -1.958326    0.626745   -0.939658
     12          1           0       -2.711590   -0.748791   -0.113351
 ---------------------------------------------------------------------

 SCF Done:  E(RB3LYP) =  -248.487746487     A.U. after    1 cycles

 The electronic state is 1-A.
 Alpha  occ. eigenvalues --  -19.16480 -14.34690 -10.26061 -10.21619 -10.14788
 Alpha  occ. eigenvalues --   -1.05311  -0.91469  -0.73083  -0.68731  -0.56637
 Alpha  occ. eigenvalues --   -0.54593  -0.47767  -0.44691  -0.43125  -0.40033
 Alpha  occ. eigenvalues --   -0.38867  -0.37130  -0.34033  -0.27139  -0.20080
 Alpha virt. eigenvalues --    0.05935   0.07578   0.10212   0.12358   0.15628
 Alpha virt. eigenvalues --    0.16755   0.17534   0.18935   0.20898   0.28198
 Alpha virt. eigenvalues --    0.32907   0.37397   0.51515   0.53868   0.55958

 Mulliken charges:
               1
     1  C   -0.325455
     2  C    0.512817
     3  O   -0.545575
     4  N   -0.556562
     5  C   -0.177664
     6  H    0.094810
     7  H    0.083301
     8  H    0.309339
     9  H    0.252996
    10  H    0.108046
    11  H    0.133145
    12  H    0.110802
 Sum of Mulliken charges =  -0.00000

 Dipole moment (field-independent basis, Debye):
    X=             -1.9362    Y=             -1.5459    Z=              0.0186  Tot=              2.4777
 Quadrupole moment (field-independent basis, Debye-Ang):
   XX=            -31.1422   YY=            -27.4507   ZZ=            -31.7198
   XY=             -0.9339   XZ=             -2.0129   YZ=             -0.2369

  Exact polarizability:  47.816   2.602  53.938  -1.263   0.145  26.512
 Approx polarizability:  59.780   2.928  84.408  -0.927   0.263  36.957

                      1                      2                      3
                      A                      A                      A
 Frequencies --    152.3447               232.5985               283.2642
 Red. masses --      2.7968                 1.0928                 2.5799
 Frc consts  --      0.0382                 0.0348                 0.1220
 IR Inten    --      3.1895                 0.5588                 4.5861

                      4                      5                      6
                      A                      A                      A
 Frequencies --    415.7240               468.2898               526.7892
 Red. masses --      1.1248                 2.9906                 2.7922
 Frc consts  --      0.1145                 0.3864                 0.4565
 IR Inten    --     99.4843                 9.7055                27.3483

                      7                      8                      9
                      A                      A                      A
 Frequencies --    587.5093               688.5306               736.2804
 Red. masses --      1.9856                 1.3753                 1.3436
 Frc consts  --      0.4038                 0.3841                 0.4291
 IR Inten    --     57.9353                74.2608                78.4768

                     10                     11                     12
                      A                      A                      A
 Frequencies --    771.4287               903.4289               977.9015
 Red. masses --      1.4028                 2.4385                 1.7832
 Frc consts  --      0.4919                 1.1727                 1.0047
 IR Inten    --     72.7939                 5.9939                25.4910

                     13                     14                     15
                      A                      A                      A
 Frequencies --   1115.0801              1156.3341              1182.4180
 Red. masses --      2.1802                 1.5425                 1.6206
 Frc consts  --      1.5972                 1.2152                 1.3350
 IR Inten    --      5.6650                20.0611                 0.2868

                     16                     17                     18
                      A                      A                      A
 Frequencies --   1253.8689              1324.5582              1436.3201
 Red. masses --      1.3593                 2.5611                 1.1846
 Frc consts  --      1.2591                 2.6474                 1.4399
 IR Inten    --     46.5656               204.9293                 8.7543

                     19                     20                     21
                      A                      A                      A
 Frequencies --   1471.3505              1490.2317              1504.4275
 Red. masses --      1.1484                 1.3934                 1.1434
 Frc consts  --      1.4648                 1.8232                 1.5247
 IR Inten    --      3.9266                72.2535                11.7784

                     22                     23                     24
                      A                      A                      A
 Frequencies --   1539.5955              1758.9395              2998.9900
 Red. masses --      1.0953                 5.3957                 1.0527
 Frc consts  --      1.5296                 9.8355                 5.5785
 IR Inten    --     36.1296               163.5961                56.4138

                     25                     26                     27
                      A                      A                      A
 Frequencies --   3094.0187              3136.8750              3203.8137
 Red. masses --      1.0817                 1.1043                 1.0593
 Frc consts  --      6.1013                 6.4023                 6.4061
 IR Inten    --     31.3271                18.9839                 0.4296

                     28                     29                     30
                      A                      A                      A
 Frequencies --   3295.9494              3537.1789              3772.0241
 Red. masses --      1.1180                 1.0744                 1.0648
 Frc consts  --      7.1557                 7.9198                 8.9262
 IR Inten    --      6.1368                 2.5770                20.5647

 - Thermochemistry -
 -------------------
 Temperature   298.150 Kelvin.  Pressure   1.00000 Atm.
 Atom     1 has atomic number  6 and mass  12.00000

 Molecular mass:    73.05276 amu.
 Principal axes and moments of inertia in atomic units:
                           1         2         3
     Eigenvalues --   194.42873 448.49999 625.75717
           X            0.99994   0.00815  -0.00793
           Y           -0.00816   0.99997  -0.00170
           Z            0.00791   0.00176   0.99997
 This molecule is an asymmetric top.
 Rotational symmetry number  1.
 Rotational temperatures (Kelvin)      0.44548     0.19312     0.13841
 Rotational constants (GHZ):           9.28228     4.02395     2.88409
 Zero-point vibrational energy     269255.9 (Joules/Mol)
                                   64.35369 (Kcal/Mol)
 Warning -- explicit consideration of   7 degrees of freedom as
           vibrations may cause significant error
 Vibrational temperatures:    219.19   334.66   407.55   598.13   673.76
          (Kelvin)            757.93   845.29   990.64  1059.34  1109.91
                             1299.83  1406.98  1604.35  1663.70  1701.23
                             1804.04  1905.74  2066.54  2116.94  2144.11
                             2164.53  2215.13  2530.72  4314.87  4451.60
                             4513.26  4609.57  4742.13  5089.21  5427.09

 Zero-point correction=                           0.102554 (Hartree/Particle)
 Thermal correction to Energy=                    0.108403
 Thermal correction to Enthalpy=                  0.109348
 Thermal correction to Gibbs Free Energy=         0.074021
 Sum of electronic and zero-point Energies=           -248.385192
 Sum of electronic and thermal Energies=              -248.379343
 Sum of electronic and thermal Enthalpies=            -248.378399
 Sum of electronic and thermal Free Energies=         -248.413725

                     E (Thermal)             CV                S
                      KCal/Mol        Cal/Mol-Kelvin    Cal/Mol-Kelvin
 Total                   68.024             21.023             74.351
 Electronic               0.000              0.000              0.000
 Translational            0.889              2.981             38.782
 Rotational               0.889              2.981             25.504
 Vibrational             66.247             15.061             10.065
 Vibration     1          0.619              1.900              2.643
 Vibration     2          0.653              1.791              1.859
 Vibration     3          0.682              1.705              1.514
 Vibration     4          0.779              1.436              0.907
 Vibration     5          0.825              1.320              0.742
 Vibration     6          0.882              1.191              0.594
 Vibration     7          0.945              1.058              0.472

 Normal termination of Gaussian 09 at Fri Sep 10 21:23:35 2021.
