 Gaussian 09, Revision D.01,
 Gaussian 09:  ES64L-G09RevD.01 24-Apr-2013

 -------------------------
 #P OPT Freq B3LYP/6-31G**
 -------------------------

 -------
 Frag_22
 -------
 Symbolic Z-matrix:
 Charge =  0 Multiplicity = 1

 SCF Done:  E(RB3LYP) =  -135.174023030     A.U. after   12 cycles
 Optimization completed.
    -- Stationary point found.
 Normal termination of Gaussian 09 at Fri Jul 23 09:05:46 2021.

 ----------------------------------------------------------------------
 #P Geom=AllCheck Guess=TCheck SCRF=Check GenChk RB3LYP/6-31G(d,p) Freq
 ----------------------------------------------------------------------

 Structure from the checkpoint file:  "/vol2/users/liuj201281/HOFBenchmark/IsodesmicSplit/Sample60/Ring26/Running/Gau-196346.chk"
 -------
 Frag_22
 -------
 Charge =  0 Multiplicity = 1

                         Standard orientation:
 ---------------------------------------------------------------------
 Center     Atomic      Atomic             Coordinates (Angstroms)
 Number     Number       Type             X           Y           Z
 ---------------------------------------------------------------------
      1          6           0        0.026930   -0.221692    1.213800
      2          7           0        0.026930    0.583893    0.000000
      3          6           0        0.026930   -0.221692   -1.213800
      4          1           0        0.968504   -0.779349    1.279900
      5          1           0       -0.796294   -0.958449    1.275600
      6          1           0       -0.032519    0.430572    2.090500
      7          1           0       -0.791061    1.187497    0.000000
      8          1           0       -0.796294   -0.958449   -1.275600
      9          1           0        0.968504   -0.779349   -1.279900
     10          1           0       -0.032519    0.430572   -2.090500
 ---------------------------------------------------------------------

 SCF Done:  E(RB3LYP) =  -135.174023030     A.U. after    1 cycles

 The electronic state is 1-A'.
 Alpha  occ. eigenvalues --  -14.31365 -10.19744 -10.19744  -0.89157  -0.69498
 Alpha  occ. eigenvalues --   -0.62242  -0.48246  -0.43509  -0.42992  -0.38153
 Alpha  occ. eigenvalues --   -0.35967  -0.35739  -0.21509
 Alpha virt. eigenvalues --    0.08720   0.13355   0.15133   0.15603   0.17125
 Alpha virt. eigenvalues --    0.18881   0.19287   0.21109   0.26772   0.51773
 Alpha virt. eigenvalues --    0.52882   0.57464   0.58020   0.58495   0.72199

 Mulliken charges:
               1
     1  C   -0.168947
     2  N   -0.484240
     3  C   -0.168947
     4  H    0.111130
     5  H    0.077153
     6  H    0.104690
     7  H    0.236187
     8  H    0.077153
     9  H    0.111130
    10  H    0.104690
 Sum of Mulliken charges =   0.00000

 Dipole moment (field-independent basis, Debye):
    X=             -0.9373    Y=             -0.3542    Z=              0.0000  Tot=              1.0020
 Quadrupole moment (field-independent basis, Debye-Ang):
   XX=            -20.6308   YY=            -21.0955   ZZ=            -19.5206
   XY=             -2.0798   XZ=              0.0000   YZ=              0.0000

  Exact polarizability:  27.691  -1.005  29.247   0.000   0.000  34.807
 Approx polarizability:  37.113  -1.142  39.558   0.000   0.000  40.757

                      1                      2                      3
                     A"                     A'                     A'
 Frequencies --    243.3856               269.4750               385.0863
 Red. masses --      1.0327                 1.2095                 2.1556
 Frc consts  --      0.0360                 0.0517                 0.1883
 IR Inten    --      0.1936                 2.6987                 6.1878

                      4                      5                      6
                     A'                     A'                     A"
 Frequencies --    785.1976               951.5694              1039.4958
 Red. masses --      1.3218                 2.1651                 1.1811
 Frc consts  --      0.4801                 1.1551                 0.7520
 IR Inten    --    123.1134                 1.5225                 9.7859

                      7                      8                      9
                     A"                     A"                     A'
 Frequencies --   1106.0786              1178.8097              1194.8763
 Red. masses --      1.3006                 3.6255                 1.4724
 Frc consts  --      0.9375                 2.9683                 1.2386
 IR Inten    --      0.1070                32.7184                 6.4122

                     10                     11                     12
                     A'                     A"                     A'
 Frequencies --   1275.3634              1453.6642              1483.0510
 Red. masses --      1.7062                 1.1614                 1.1727
 Frc consts  --      1.6351                 1.4460                 1.5196
 IR Inten    --      0.1681                 3.4575                 1.1741

                     13                     14                     15
                     A"                     A"                     A'
 Frequencies --   1484.8632              1497.1703              1510.1790
 Red. masses --      1.1929                 1.0524                 1.0680
 Frc consts  --      1.5496                 1.3899                 1.4351
 IR Inten    --      6.9969                 5.1453                 8.2998

                     16                     17                     18
                     A"                     A'                     A"
 Frequencies --   1529.4977              1532.9465              2934.6748
 Red. masses --      1.0581                 1.0412                 1.0601
 Frc consts  --      1.4584                 1.4416                 5.3792
 IR Inten    --     11.0708                 0.7022                47.5068

                     19                     20                     21
                     A'                     A"                     A'
 Frequencies --   2941.8557              3061.7439              3062.7188
 Red. masses --      1.0616                 1.0745                 1.0723
 Frc consts  --      5.4130                 5.9349                 5.9261
 IR Inten    --    154.5187                26.4304                55.9954

                     22                     23                     24
                     A"                     A'                     A'
 Frequencies --   3111.4807              3112.2500              3520.7265
 Red. masses --      1.1019                 1.1015                 1.0743
 Frc consts  --      6.2852                 6.2860                 7.8462
 IR Inten    --     27.5695                40.4468                 0.8144

 - Thermochemistry -
 -------------------
 Temperature   298.150 Kelvin.  Pressure   1.00000 Atm.
 Atom     1 has atomic number  6 and mass  12.00000

 Molecular mass:    45.05785 amu.
 Principal axes and moments of inertia in atomic units:
                           1         2         3
     Eigenvalues --    52.14900 194.47847 220.13308
           X            0.00000  -0.12587   0.99205
           Y            0.00000   0.99205   0.12587
           Z            1.00000   0.00000   0.00000
 This molecule is an asymmetric top.
 Rotational symmetry number  1.
 Rotational temperatures (Kelvin)      1.66089     0.44536     0.39346
 Rotational constants (GHZ):          34.60740     9.27990     8.19841
 Zero-point vibrational energy     243237.7 (Joules/Mol)
                                   58.13519 (Kcal/Mol)
 Warning -- explicit consideration of   3 degrees of freedom as
           vibrations may cause significant error
 Vibrational temperatures:    350.18   387.71   554.05  1129.72  1369.09
          (Kelvin)           1495.60  1591.40  1696.04  1719.16  1834.96
                             2091.50  2133.78  2136.38  2154.09  2172.81
                             2200.60  2205.57  4222.34  4232.67  4405.16
                             4406.56  4476.72  4477.83  5065.53

 Zero-point correction=                           0.092644 (Hartree/Particle)
 Thermal correction to Energy=                    0.097022
 Thermal correction to Enthalpy=                  0.097966
 Thermal correction to Gibbs Free Energy=         0.067206
 Sum of electronic and zero-point Energies=           -135.081379
 Sum of electronic and thermal Energies=              -135.077001
 Sum of electronic and thermal Enthalpies=            -135.076057
 Sum of electronic and thermal Free Energies=         -135.106817

                     E (Thermal)             CV                S
                      KCal/Mol        Cal/Mol-Kelvin    Cal/Mol-Kelvin
 Total                   60.882             13.804             64.741
 Electronic               0.000              0.000              0.000
 Translational            0.889              2.981             37.342
 Rotational               0.889              2.981             22.328
 Vibrational             59.105              7.842              5.072
 Vibration     1          0.659              1.774              1.778
 Vibration     2          0.674              1.729              1.600
 Vibration     3          0.754              1.502              1.019

 Normal termination of Gaussian 09 at Fri Jul 23 09:05:57 2021.
