 Gaussian 09, Revision E.01,
 Gaussian 09:  ES64L-G09RevE.01 30-Nov-2015

 -------------------------
 #P OPT Freq B3LYP/6-31G**
 -------------------------

 --------
 Frag_220
 --------
 Symbolic Z-matrix:
 Charge =  0 Multiplicity = 1

 SCF Done:  E(RB3LYP) =  -414.804535597     A.U. after   16 cycles
 SCF Done:  E(RB3LYP) =  -414.823904858     A.U. after   13 cycles
 SCF Done:  E(RB3LYP) =  -414.825823254     A.U. after   13 cycles
 SCF Done:  E(RB3LYP) =  -414.825865888     A.U. after   10 cycles
 SCF Done:  E(RB3LYP) =  -414.825870509     A.U. after    8 cycles
 Optimization completed.
    -- Stationary point found.
 Normal termination of Gaussian 09 at Sat Aug 21 01:33:56 2021.

 ----------------------------------------------------------------------
 #P Geom=AllCheck Guess=TCheck SCRF=Check GenChk RB3LYP/6-31G(d,p) Freq
 ----------------------------------------------------------------------

 Structure from the checkpoint file:  "/public/home/users/caep010/.cache/gau_scr/Gau-146789.chk"
 --------
 Frag_220
 --------
 Charge =  0 Multiplicity = 1

                         Standard orientation:
 ---------------------------------------------------------------------
 Center     Atomic      Atomic             Coordinates (Angstroms)
 Number     Number       Type             X           Y           Z
 ---------------------------------------------------------------------
      1          8           0       -2.319495   -1.007724   -0.000005
      2          6           0       -1.293369   -0.348905   -0.000002
      3          6           0       -1.204297    1.109280    0.000005
      4          6           0        0.004222    1.710259    0.000001
      5          7           0        1.174994    0.987405   -0.000007
      6          6           0        1.223803   -0.406428   -0.000003
      7          8           0        2.269281   -1.028889    0.000001
      8          7           0       -0.033582   -0.987294    0.000008
      9          1           0       -2.124793    1.675631    0.000010
     10          1           0        0.124670    2.787890    0.000001
     11          1           0        2.075524    1.443562    0.000008
     12          1           0       -0.045722   -2.000194    0.000002
 ---------------------------------------------------------------------

 SCF Done:  E(RB3LYP) =  -414.825870509     A.U. after    1 cycles

 The electronic state is 1-A.
 Alpha  occ. eigenvalues --  -19.13444 -19.12723 -14.41088 -14.39054 -10.34367
 Alpha  occ. eigenvalues --  -10.30851 -10.27480 -10.20957  -1.07891  -1.04357
 Alpha  occ. eigenvalues --   -0.98249  -0.92872  -0.80195  -0.69336  -0.66532
 Alpha  occ. eigenvalues --   -0.60092  -0.55964  -0.52458  -0.48043  -0.47409
 Alpha  occ. eigenvalues --   -0.45191  -0.42414  -0.41781  -0.40458  -0.37019
 Alpha  occ. eigenvalues --   -0.29640  -0.28632  -0.26452  -0.25298
 Alpha virt. eigenvalues --   -0.04348   0.00969   0.05165   0.10280   0.11251
 Alpha virt. eigenvalues --    0.11902   0.15151   0.19418   0.20805   0.25048
 Alpha virt. eigenvalues --    0.26192   0.31532   0.33762   0.37878   0.45885

 Mulliken charges:
               1
     1  O   -0.497143
     2  C    0.601302
     3  C   -0.184831
     4  C    0.156031
     5  N   -0.565551
     6  C    0.744737
     7  O   -0.494077
     8  N   -0.600843
     9  H    0.121457
    10  H    0.137129
    11  H    0.290269
    12  H    0.291520
 Sum of Mulliken charges =  -0.00000

 Dipole moment (field-independent basis, Debye):
    X=              1.3063    Y=              4.0424    Z=              0.0000  Tot=              4.2482
 Quadrupole moment (field-independent basis, Debye-Ang):
   XX=            -55.8991   YY=            -37.3714   ZZ=            -45.2199
   XY=              2.3444   XZ=              0.0000   YZ=              0.0001

  Exact polarizability:  80.355   2.363  63.318  -0.000   0.000  23.749
 Approx polarizability: 144.573  11.564  97.240  -0.000  -0.000  35.714

                      1                      2                      3
                      A                      A                      A
 Frequencies --    149.9887               170.7179               384.9446
 Red. masses --      9.4976                 6.0228                12.0027
 Frc consts  --      0.1259                 0.1034                 1.0479
 IR Inten    --      0.5852                 0.4132                20.8104

                      4                      5                      6
                      A                      A                      A
 Frequencies --    395.9409               518.9626               541.4787
 Red. masses --      3.0003                 7.4880                 6.2769
 Frc consts  --      0.2771                 1.1882                 1.0843
 IR Inten    --     25.0551                19.1948                 5.4218

                      7                      8                      9
                      A                      A                      A
 Frequencies --    558.3947               563.5215               688.3840
 Red. masses --      6.8516                 1.1432                 1.1617
 Frc consts  --      1.2587                 0.2139                 0.3244
 IR Inten    --      4.8526                49.7094                81.4450

                     10                     11                     12
                      A                      A                      A
 Frequencies --    729.5139               752.5471               772.1392
 Red. masses --      2.3688                 7.8483                 8.4320
 Frc consts  --      0.7428                 2.6188                 2.9619
 IR Inten    --     10.3155                58.5826                 2.3137

                     13                     14                     15
                      A                      A                      A
 Frequencies --    812.7816               964.9892               970.0039
 Red. masses --      2.0460                 2.5305                 1.2674
 Frc consts  --      0.7964                 1.3884                 0.7026
 IR Inten    --     55.6539                 6.7468                 0.3692

                     16                     17                     18
                      A                      A                      A
 Frequencies --    990.0648              1090.5659              1197.6540
 Red. masses --      5.8328                 1.8877                 2.0009
 Frc consts  --      3.3687                 1.3227                 1.6910
 IR Inten    --      5.5639                 7.8205                83.2338

                     19                     20                     21
                      A                      A                      A
 Frequencies --   1230.7734              1382.4135              1407.4728
 Red. masses --      1.4926                 1.7411                 3.1462
 Frc consts  --      1.3321                 1.9604                 3.6721
 IR Inten    --      6.0705                16.9548               114.3899

                     22                     23                     24
                      A                      A                      A
 Frequencies --   1421.7846              1505.4678              1689.8923
 Red. masses --      1.7935                 2.8694                 5.5398
 Frc consts  --      2.1361                 3.8317                 9.3210
 IR Inten    --     13.3704               103.3831                69.0176

                     25                     26                     27
                      A                      A                      A
 Frequencies --   1808.3467              1845.0747              3221.7506
 Red. masses --      9.0501                 8.7479                 1.0924
 Frc consts  --     17.4368                17.5461                 6.6805
 IR Inten    --    583.6819               539.7709                 4.3508

                     28                     29                     30
                      A                      A                      A
 Frequencies --   3264.9528              3618.4389              3656.8040
 Red. masses --      1.0960                 1.0775                 1.0788
 Frc consts  --      6.8837                 8.3121                 8.4998
 IR Inten    --      0.6054                62.6774                98.6163

 - Thermochemistry -
 -------------------
 Temperature   298.150 Kelvin.  Pressure   1.00000 Atm.
 Atom     1 has atomic number  8 and mass  15.99491

 Molecular mass:   112.02728 amu.
 Principal axes and moments of inertia in atomic units:
                           1         2         3
     Eigenvalues --   465.83796 900.371851366.20981
           X            1.00000  -0.00104  -0.00000
           Y            0.00104   1.00000   0.00000
           Z            0.00000  -0.00000   1.00000
 This molecule is an asymmetric top.
 Rotational symmetry number  1.
 Warning -- assumption of classical behavior for rotation
           may cause significant error
 Rotational temperatures (Kelvin)      0.18593     0.09620     0.06340
 Rotational constants (GHZ):           3.87418     2.00444     1.32098
 Zero-point vibrational energy     229119.4 (Joules/Mol)
                                   54.76084 (Kcal/Mol)
 Warning -- explicit consideration of   8 degrees of freedom as
           vibrations may cause significant error
 Vibrational temperatures:    215.80   245.62   553.85   569.67   746.67
          (Kelvin)            779.07   803.40   810.78   990.43  1049.61
                             1082.75  1110.93  1169.41  1388.40  1395.62
                             1424.48  1569.08  1723.15  1770.81  1988.98
                             2025.04  2045.63  2166.03  2431.38  2601.80
                             2654.65  4635.37  4697.53  5206.12  5261.32

 Zero-point correction=                           0.087267 (Hartree/Particle)
 Thermal correction to Energy=                    0.093444
 Thermal correction to Enthalpy=                  0.094388
 Thermal correction to Gibbs Free Energy=         0.056847
 Sum of electronic and zero-point Energies=           -414.738604
 Sum of electronic and thermal Energies=              -414.732426
 Sum of electronic and thermal Enthalpies=            -414.731482
 Sum of electronic and thermal Free Energies=         -414.769024

                     E (Thermal)             CV                S
                      KCal/Mol        Cal/Mol-Kelvin    Cal/Mol-Kelvin
 Total                   58.637             23.375             79.013
 Electronic               0.000              0.000              0.000
 Translational            0.889              2.981             40.057
 Rotational               0.889              2.981             27.840
 Vibrational             56.860             17.414             11.116
 Vibration     1          0.618              1.903              2.672
 Vibration     2          0.626              1.879              2.428
 Vibration     3          0.754              1.502              1.020
 Vibration     4          0.763              1.479              0.978
 Vibration     5          0.874              1.208              0.612
 Vibration     6          0.897              1.158              0.562
 Vibration     7          0.914              1.121              0.527
 Vibration     8          0.919              1.110              0.517

 Optimization completed.
    -- Stationary point found.
 Normal termination of Gaussian 09 at Sat Aug 21 01:34:08 2021.
