 Gaussian 09, Revision E.01,
 Gaussian 09:  ES64L-G09RevE.01 30-Nov-2015

 ----------------------------
 #P OPT Freq B3LYP/6-31G(d,p)
 ----------------------------

 ---------
 Frag_1092
 ---------
 Symbolic Z-matrix:
 Charge =  0 Multiplicity = 1

 SCF Done:  E(RB3LYP) =  -380.297401201     A.U. after   12 cycles
 SCF Done:  E(RB3LYP) =  -380.297459679     A.U. after   10 cycles
 SCF Done:  E(RB3LYP) =  -380.297451984     A.U. after   10 cycles
 SCF Done:  E(RB3LYP) =  -380.297478750     A.U. after    9 cycles
 SCF Done:  E(RB3LYP) =  -380.297480594     A.U. after    7 cycles
 SCF Done:  E(RB3LYP) =  -380.297481287     A.U. after    7 cycles
 SCF Done:  E(RB3LYP) =  -380.297481568     A.U. after    7 cycles
 SCF Done:  E(RB3LYP) =  -380.297481794     A.U. after    7 cycles
 Optimization completed.
    -- Stationary point found.
 Normal termination of Gaussian 09 at Thu Sep  8 14:46:38 2022.

 ----------------------------------------------------------------------
 #P Geom=AllCheck Guess=TCheck SCRF=Check GenChk RB3LYP/6-31G(d,p) Freq
 ----------------------------------------------------------------------

 Structure from the checkpoint file:  "B3LYP6-31Gdp.Frag_1092.chk"
 ---------
 Frag_1092
 ---------
 Charge =  0 Multiplicity = 1

                         Standard orientation:
 ---------------------------------------------------------------------
 Center     Atomic      Atomic             Coordinates (Angstroms)
 Number     Number       Type             X           Y           Z
 ---------------------------------------------------------------------
      1          6           0        1.760286    1.019238    0.033965
      2          6           0        0.819980   -0.067574   -0.475200
      3          8           0        1.224577   -1.373026   -0.040236
      4          6           0       -0.638963    0.087622    0.016762
      5          7           0       -1.555513   -0.915995   -0.533955
      6          7           0       -0.654746    0.036547    1.468410
      7          8           0       -1.062620    1.342672   -0.473692
      8          1           0        1.414632    1.999946   -0.299287
      9          1           0        2.775006    0.862847   -0.353766
     10          1           0        1.791450    1.019264    1.125959
     11          1           0        0.779615   -0.032383   -1.574988
     12          1           0        2.170942   -1.461506   -0.208011
     13          1           0       -1.218211   -1.843805   -0.284260
     14          1           0       -1.538224   -0.861257   -1.551820
     15          1           0       -0.041050   -0.717347    1.770884
     16          1           0       -1.596381   -0.202117    1.773268
     17          1           0       -2.009431    1.399612   -0.280901
 ---------------------------------------------------------------------

 SCF Done:  E(RB3LYP) =  -380.297481794     A.U. after    1 cycles

 The electronic state is 1-A.
 Alpha  occ. eigenvalues --  -19.15285 -19.13789 -14.31172 -14.30363 -10.28171
 Alpha  occ. eigenvalues --  -10.23404 -10.17022  -1.03720  -1.01887  -0.89048
 Alpha  occ. eigenvalues --   -0.83371  -0.74918  -0.65356  -0.57690  -0.52611
 Alpha  occ. eigenvalues --   -0.50815  -0.47682  -0.46011  -0.45628  -0.42312
 Alpha  occ. eigenvalues --   -0.40969  -0.37769  -0.36817  -0.35767  -0.32564
 Alpha  occ. eigenvalues --   -0.28124  -0.27652  -0.24965  -0.24055
 Alpha virt. eigenvalues --    0.06483   0.08771   0.11784   0.13335   0.13413
 Alpha virt. eigenvalues --    0.15174   0.16853   0.17631   0.18210   0.19898
 Alpha virt. eigenvalues --    0.22046   0.23615   0.27903   0.28645   0.29100

 Mulliken charges:
               1
     1  C   -0.325179
     2  C    0.158425
     3  O   -0.560115
     4  C    0.464990
     5  N   -0.604110
     6  N   -0.591594
     7  O   -0.539915
     8  H    0.135360
     9  H    0.079382
    10  H    0.126458
    11  H    0.077721
    12  H    0.309452
    13  H    0.245352
    14  H    0.236502
    15  H    0.248103
    16  H    0.234295
    17  H    0.304873
 Sum of Mulliken charges =  -0.00000

 Dipole moment (field-independent basis, Debye):
    X=              0.8921    Y=             -1.5411    Z=             -0.7428  Tot=              1.9294
 Quadrupole moment (field-independent basis, Debye-Ang):
   XX=            -36.8710   YY=            -44.3449   ZZ=            -42.0470
   XY=             -2.1105   XZ=             -1.3799   YZ=             -0.6016

  Exact polarizability:  59.046  -0.139  51.964  -0.124  -1.235  51.045
 Approx polarizability:  75.574  -2.277  73.134   0.318  -3.936  72.094

                      1                      2                      3
                      A                      A                      A
 Frequencies --    108.8107               156.6680               222.9313
 Red. masses --      3.6971                 1.1095                 1.0982
 Frc consts  --      0.0258                 0.0160                 0.0322
 IR Inten    --      3.6630                26.9137                 0.8605

                      4                      5                      6
                      A                      A                      A
 Frequencies --    232.1255               264.5536               289.9520
 Red. masses --      2.7189                 1.1588                 2.9897
 Frc consts  --      0.0863                 0.0478                 0.1481
 IR Inten    --     21.9871               112.1453                12.4958

                      7                      8                      9
                      A                      A                      A
 Frequencies --    327.1764               349.7154               381.7380
 Red. masses --      1.3455                 2.2972                 1.3621
 Frc consts  --      0.0849                 0.1655                 0.1169
 IR Inten    --     37.6316                14.0436                18.2672

                     10                     11                     12
                      A                      A                      A
 Frequencies --    433.5077               485.3758               507.5211
 Red. masses --      2.6438                 2.6115                 2.6026
 Frc consts  --      0.2927                 0.3625                 0.3950
 IR Inten    --     18.2376                31.9961                46.6076

                     13                     14                     15
                      A                      A                      A
 Frequencies --    564.3479               611.5517               766.8229
 Red. masses --      4.2623                 3.1231                 3.1820
 Frc consts  --      0.7998                 0.6882                 1.1024
 IR Inten    --      4.2587                21.3465                 4.7495

                     16                     17                     18
                      A                      A                      A
 Frequencies --    884.9129               908.3293               933.4497
 Red. masses --      1.5865                 2.0592                 1.6171
 Frc consts  --      0.7320                 1.0010                 0.8302
 IR Inten    --    137.2829                45.7142               128.7033

                     19                     20                     21
                      A                      A                      A
 Frequencies --    988.2136              1022.6527              1072.2837
 Red. masses --      1.7652                 1.8432                 1.6460
 Frc consts  --      1.0157                 1.1357                 1.1150
 IR Inten    --    147.5868                37.2757                32.2883

                     22                     23                     24
                      A                      A                      A
 Frequencies --   1093.4397              1131.1502              1183.6073
 Red. masses --      2.6091                 2.2381                 2.1776
 Frc consts  --      1.8379                 1.6872                 1.7974
 IR Inten    --     55.4981               107.7208                23.0788

                     25                     26                     27
                      A                      A                      A
 Frequencies --   1219.4366              1229.6578              1362.6882
 Red. masses --      1.5411                 1.1516                 2.0139
 Frc consts  --      1.3502                 1.0259                 2.2034
 IR Inten    --    137.2222                32.1798                15.9411

                     28                     29                     30
                      A                      A                      A
 Frequencies --   1374.9023              1386.5602              1422.6475
 Red. masses --      1.2381                 1.4478                 1.3213
 Frc consts  --      1.3789                 1.6399                 1.5755
 IR Inten    --      2.1515                55.7435                19.9714

                     31                     32                     33
                      A                      A                      A
 Frequencies --   1462.7231              1496.4829              1519.2522
 Red. masses --      1.7272                 1.0500                 1.1236
 Frc consts  --      2.1773                 1.3854                 1.5280
 IR Inten    --     10.6239                 0.7990                10.4749

                     34                     35                     36
                      A                      A                      A
 Frequencies --   1653.4646              1665.4080              2999.9068
 Red. masses --      1.1091                 1.1122                 1.0844
 Frc consts  --      1.7866                 1.8175                 5.7498
 IR Inten    --     39.0827                42.6894                55.5884

                     37                     38                     39
                      A                      A                      A
 Frequencies --   3038.1564              3122.9928              3157.4429
 Red. masses --      1.0461                 1.0905                 1.1027
 Frc consts  --      5.6891                 6.2664                 6.4772
 IR Inten    --     35.4409                18.8903                10.9342

                     40                     41                     42
                      A                      A                      A
 Frequencies --   3475.1590              3486.7842              3567.4258
 Red. masses --      1.0501                 1.0489                 1.0913
 Frc consts  --      7.4717                 7.5136                 8.1829
 IR Inten    --      1.0310                 2.0121                 1.2789

                     43                     44                     45
                      A                      A                      A
 Frequencies --   3574.2950              3796.2393              3830.4877
 Red. masses --      1.0922                 1.0654                 1.0666
 Frc consts  --      8.2211                 9.0459                 9.2203
 IR Inten    --      4.5295                20.2375                19.5032

 - Thermochemistry -
 -------------------
 Temperature   298.150 Kelvin.  Pressure   1.00000 Atm.
 Atom     1 has atomic number  6 and mass  12.00000

 Molecular mass:   106.07423 amu.
 Principal axes and moments of inertia in atomic units:
                           1         2         3
     Eigenvalues --   539.79370 766.98716 924.85100
           X            0.99698   0.07745  -0.00576
           Y           -0.07740   0.99696   0.00900
           Z            0.00644  -0.00853   0.99994
 This molecule is an asymmetric top.
 Rotational symmetry number  1.
 Warning -- assumption of classical behavior for rotation
           may cause significant error
 Rotational temperatures (Kelvin)      0.16046     0.11293     0.09365
 Rotational constants (GHZ):           3.34339     2.35303     1.95139
 Zero-point vibrational energy     387368.5 (Joules/Mol)
                                   92.58328 (Kcal/Mol)
 Warning -- explicit consideration of  14 degrees of freedom as
           vibrations may cause significant error
 Vibrational temperatures:    156.55   225.41   320.75   333.98   380.63
          (Kelvin)            417.18   470.73   503.16   549.24   623.72
                              698.35   730.21   811.97   879.89  1103.29
                             1273.19  1306.88  1343.02  1421.82  1471.37
                             1542.78  1573.21  1627.47  1702.94  1754.50
                             1769.20  1960.60  1978.18  1994.95  2046.87
                             2104.53  2153.10  2185.86  2378.96  2396.15
                             4316.19  4371.22  4493.28  4542.85  4999.97
                             5016.70  5132.72  5142.61  5461.93  5511.21

 Zero-point correction=                           0.147541 (Hartree/Particle)
 Thermal correction to Energy=                    0.156296
 Thermal correction to Enthalpy=                  0.157240
 Thermal correction to Gibbs Free Energy=         0.115440
 Sum of electronic and zero-point Energies=           -380.149941
 Sum of electronic and thermal Energies=              -380.141186
 Sum of electronic and thermal Enthalpies=            -380.140241
 Sum of electronic and thermal Free Energies=         -380.182042

                     E (Thermal)             CV                S
                      KCal/Mol        Cal/Mol-Kelvin    Cal/Mol-Kelvin
 Total                   98.077             32.678             87.976
 Electronic               0.000              0.000              0.000
 Translational            0.889              2.981             39.894
 Rotational               0.889              2.981             27.440
 Vibrational             96.300             26.717             20.642
 Vibration     1          0.606              1.942              3.290
 Vibration     2          0.620              1.895              2.590
 Vibration     3          0.649              1.806              1.935
 Vibration     4          0.653              1.792              1.862
 Vibration     5          0.671              1.738              1.632
 Vibration     6          0.686              1.692              1.474
 Vibration     7          0.711              1.621              1.274
 Vibration     8          0.727              1.576              1.167
 Vibration     9          0.751              1.509              1.032
 Vibration    10          0.794              1.397              0.847
 Vibration    11          0.841              1.282              0.696
 Vibration    12          0.863              1.233              0.640
 Vibration    13          0.920              1.108              0.515
 Vibration    14          0.971              1.007              0.430

 Normal termination of Gaussian 09 at Thu Sep  8 14:46:55 2022.
