 Gaussian 09, Revision E.01,
 Gaussian 09:  ES64L-G09RevE.01 30-Nov-2015

 ----------------------------
 #P OPT Freq B3LYP/6-31G(d,p)
 ----------------------------

 --------
 Frag_934
 --------
 Symbolic Z-matrix:
 Charge =  0 Multiplicity = 1

 SCF Done:  E(RB3LYP) =  -303.843722061     A.U. after   13 cycles
 SCF Done:  E(RB3LYP) =  -303.843779125     A.U. after    9 cycles
 SCF Done:  E(RB3LYP) =  -303.843784353     A.U. after    9 cycles
 SCF Done:  E(RB3LYP) =  -303.843785455     A.U. after    8 cycles
 SCF Done:  E(RB3LYP) =  -303.843785896     A.U. after    8 cycles
 Optimization completed.
    -- Stationary point found.
 Normal termination of Gaussian 09 at Thu Sep  8 14:56:44 2022.

 ----------------------------------------------------------------------
 #P Geom=AllCheck Guess=TCheck SCRF=Check GenChk RB3LYP/6-31G(d,p) Freq
 ----------------------------------------------------------------------

 Structure from the checkpoint file:  "B3LYP6-31Gdp.Frag_934.chk"
 --------
 Frag_934
 --------
 Charge =  0 Multiplicity = 1

                         Standard orientation:
 ---------------------------------------------------------------------
 Center     Atomic      Atomic             Coordinates (Angstroms)
 Number     Number       Type             X           Y           Z
 ---------------------------------------------------------------------
      1          6           0       -2.022385   -0.136533   -0.079887
      2          7           0       -0.937506   -0.647273    0.323096
      3          6           0        0.357634    0.035528    0.036094
      4          6           0        1.118792   -0.855043   -0.953486
      5          7           0        0.340224    1.390988   -0.448139
      6          8           0        1.014387    0.097291    1.289657
      7          1           0       -2.086208    0.802917   -0.646658
      8          1           0       -2.964599   -0.640861    0.141257
      9          1           0        1.139535   -1.883478   -0.586067
     10          1           0        2.139901   -0.480793   -1.047658
     11          1           0        0.641000   -0.854650   -1.939171
     12          1           0       -0.140033    2.004657    0.203068
     13          1           0       -0.073633    1.469564   -1.370462
     14          1           0        0.685669   -0.665405    1.787414
 ---------------------------------------------------------------------

 SCF Done:  E(RB3LYP) =  -303.843785896     A.U. after    1 cycles

 The electronic state is 1-A.
 Alpha  occ. eigenvalues --  -19.13971 -14.33739 -14.32056 -10.29209 -10.23470
 Alpha  occ. eigenvalues --  -10.17383  -1.03528  -0.91894  -0.86784  -0.73193
 Alpha  occ. eigenvalues --   -0.64104  -0.58239  -0.52430  -0.50239  -0.47125
 Alpha  occ. eigenvalues --   -0.44427  -0.41215  -0.40175  -0.37946  -0.35184
 Alpha  occ. eigenvalues --   -0.31473  -0.29163  -0.27391  -0.23836
 Alpha virt. eigenvalues --   -0.01571   0.07569   0.10909   0.13608   0.13858
 Alpha virt. eigenvalues --    0.15383   0.16716   0.18215   0.19114   0.23397
 Alpha virt. eigenvalues --    0.23681   0.25765   0.28881   0.32251   0.51468

 Mulliken charges:
               1
     1  C   -0.027413
     2  N   -0.345594
     3  C    0.463719
     4  C   -0.296607
     5  N   -0.575291
     6  O   -0.534306
     7  H    0.068777
     8  H    0.111466
     9  H    0.111522
    10  H    0.132176
    11  H    0.092304
    12  H    0.247581
    13  H    0.240454
    14  H    0.311214
 Sum of Mulliken charges =  -0.00000

 Dipole moment (field-independent basis, Debye):
    X=             -2.2817    Y=              0.0299    Z=             -1.1778  Tot=              2.5679
 Quadrupole moment (field-independent basis, Debye-Ang):
   XX=            -36.3975   YY=            -36.3810   ZZ=            -34.8848
   XY=             -4.5223   XZ=              0.0086   YZ=             -1.7303

  Exact polarizability:  59.471  -2.097  45.750   2.072  -3.835  43.248
 Approx polarizability:  82.467  -4.171  65.186   8.072  -7.805  62.483

                      1                      2                      3
                      A                      A                      A
 Frequencies --    115.0358               229.5504               308.6545
 Red. masses --      3.2505                 1.0330                 1.4463
 Frc consts  --      0.0253                 0.0321                 0.0812
 IR Inten    --      4.4870                 1.6496                25.5479

                      4                      5                      6
                      A                      A                      A
 Frequencies --    330.0441               350.6943               374.8662
 Red. masses --      2.1813                 1.4100                 1.9247
 Frc consts  --      0.1400                 0.1022                 0.1594
 IR Inten    --     17.8045                69.9623                21.7251

                      7                      8                      9
                      A                      A                      A
 Frequencies --    407.0159               481.7006               506.1631
 Red. masses --      1.9428                 2.4072                 2.8416
 Frc consts  --      0.1896                 0.3291                 0.4289
 IR Inten    --     21.9379                28.1648                14.4286

                     10                     11                     12
                      A                      A                      A
 Frequencies --    570.0277               737.5796               756.6996
 Red. masses --      2.3948                 3.8575                 1.5663
 Frc consts  --      0.4585                 1.2364                 0.5284
 IR Inten    --     41.8500                 1.8210                50.9033

                     13                     14                     15
                      A                      A                      A
 Frequencies --    769.8430               892.0130               988.7967
 Red. masses --      1.5312                 2.6555                 1.5634
 Frc consts  --      0.5347                 1.2449                 0.9006
 IR Inten    --    141.6862                29.8413                11.8311

                     16                     17                     18
                      A                      A                      A
 Frequencies --   1024.8715              1071.1762              1115.2834
 Red. masses --      1.8756                 1.3633                 1.6381
 Frc consts  --      1.1607                 0.9216                 1.2005
 IR Inten    --     77.2157                 8.1868                29.2364

                     19                     20                     21
                      A                      A                      A
 Frequencies --   1202.3910              1240.2072              1335.9786
 Red. masses --      1.8664                 1.9269                 2.0163
 Frc consts  --      1.5898                 1.7462                 2.1204
 IR Inten    --     61.5995               136.0681                47.1312

                     22                     23                     24
                      A                      A                      A
 Frequencies --   1381.8422              1414.2481              1493.9535
 Red. masses --      1.6616                 1.3530                 1.1035
 Frc consts  --      1.8694                 1.5944                 1.4511
 IR Inten    --     95.2345                22.8803                 5.1374

                     25                     26                     27
                      A                      A                      A
 Frequencies --   1501.1486              1501.9697              1642.3442
 Red. masses --      1.0624                 1.0851                 1.1267
 Frc consts  --      1.4105                 1.4423                 1.7906
 IR Inten    --      6.7775                13.7269                20.4362

                     28                     29                     30
                      A                      A                      A
 Frequencies --   1751.6345              3022.3430              3055.0191
 Red. masses --      6.4870                 1.0630                 1.0380
 Frc consts  --     11.7268                 5.7208                 5.7077
 IR Inten    --     29.6800                41.9118                14.0429

                     31                     32                     33
                      A                      A                      A
 Frequencies --   3131.6893              3149.0698              3160.3097
 Red. masses --      1.0986                 1.1056                 1.1044
 Frc consts  --      6.3481                 6.4597                 6.4991
 IR Inten    --     20.7460                29.4643                12.7515

                     34                     35                     36
                      A                      A                      A
 Frequencies --   3522.3111              3629.9585              3796.8321
 Red. masses --      1.0479                 1.0953                 1.0650
 Frc consts  --      7.6600                 8.5033                 9.0460
 IR Inten    --      0.9086                 2.0034                30.2068

 - Thermochemistry -
 -------------------
 Temperature   298.150 Kelvin.  Pressure   1.00000 Atm.
 Atom     1 has atomic number  6 and mass  12.00000

 Molecular mass:    88.06366 amu.
 Principal axes and moments of inertia in atomic units:
                           1         2         3
     Eigenvalues --   380.79256 603.44559 609.07415
           X            0.99716  -0.06930  -0.02950
           Y            0.06933   0.99759   0.00001
           Z            0.02943  -0.00206   0.99956
 This molecule is an asymmetric top.
 Rotational symmetry number  1.
 Rotational temperatures (Kelvin)      0.22746     0.14353     0.14221
 Rotational constants (GHZ):           4.73943     2.99073     2.96309
 Zero-point vibrational energy     310809.3 (Joules/Mol)
                                   74.28522 (Kcal/Mol)
 Warning -- explicit consideration of  10 degrees of freedom as
           vibrations may cause significant error
 Vibrational temperatures:    165.51   330.27   444.08   474.86   504.57
          (Kelvin)            539.35   585.60   693.06   728.25   820.14
                             1061.21  1088.72  1107.63  1283.41  1422.66
                             1474.56  1541.18  1604.64  1729.97  1784.38
                             1922.17  1988.16  2034.79  2149.46  2159.82
                             2161.00  2362.96  2520.21  4348.47  4395.49
                             4505.80  4530.80  4546.98  5067.81  5222.69
                             5462.79

 Zero-point correction=                           0.118381 (Hartree/Particle)
 Thermal correction to Energy=                    0.125393
 Thermal correction to Enthalpy=                  0.126337
 Thermal correction to Gibbs Free Energy=         0.088390
 Sum of electronic and zero-point Energies=           -303.725405
 Sum of electronic and thermal Energies=              -303.718393
 Sum of electronic and thermal Enthalpies=            -303.717448
 Sum of electronic and thermal Free Energies=         -303.755395

                     E (Thermal)             CV                S
                      KCal/Mol        Cal/Mol-Kelvin    Cal/Mol-Kelvin
 Total                   78.685             26.182             79.866
 Electronic               0.000              0.000              0.000
 Translational            0.889              2.981             39.339
 Rotational               0.889              2.981             26.440
 Vibrational             76.908             20.221             14.087
 Vibration     1          0.608              1.937              3.182
 Vibration     2          0.652              1.796              1.882
 Vibration     3          0.698              1.657              1.370
 Vibration     4          0.713              1.615              1.260
 Vibration     5          0.728              1.574              1.163
 Vibration     6          0.746              1.524              1.060
 Vibration     7          0.772              1.455              0.937
 Vibration     8          0.838              1.291              0.705
 Vibration     9          0.861              1.236              0.643
 Vibration    10          0.926              1.096              0.504

 Normal termination of Gaussian 09 at Thu Sep  8 14:56:55 2022.
