 Gaussian 09, Revision E.01,
 Gaussian 09:  ES64L-G09RevE.01 30-Nov-2015

 ----------------------------
 #P OPT Freq B3LYP/6-31G(d,p)
 ----------------------------

 --------
 Frag_912
 --------
 Symbolic Z-matrix:
 Charge =  0 Multiplicity = 1

 SCF Done:  E(RB3LYP) =  -285.556699326     A.U. after   13 cycles
 SCF Done:  E(RB3LYP) =  -285.556760522     A.U. after   10 cycles
 SCF Done:  E(RB3LYP) =  -285.556767684     A.U. after    8 cycles
 SCF Done:  E(RB3LYP) =  -285.556768743     A.U. after    8 cycles
 Optimization completed.
    -- Stationary point found.
 Normal termination of Gaussian 09 at Thu Sep  8 15:20:25 2022.

 ----------------------------------------------------------------------
 #P Geom=AllCheck Guess=TCheck SCRF=Check GenChk RB3LYP/6-31G(d,p) Freq
 ----------------------------------------------------------------------

 Structure from the checkpoint file:  "B3LYP6-31Gdp.Frag_912.chk"
 --------
 Frag_912
 --------
 Charge =  0 Multiplicity = 1

                         Standard orientation:
 ---------------------------------------------------------------------
 Center     Atomic      Atomic             Coordinates (Angstroms)
 Number     Number       Type             X           Y           Z
 ---------------------------------------------------------------------
      1          6           0        0.627980    1.353892    0.078286
      2          7           0        0.441650   -0.013380   -0.393375
      3          8           0        1.560599   -0.775654    0.127764
      4          6           0       -0.734727   -0.655259    0.217735
      5          8           0       -1.926156   -0.027858   -0.189057
      6          1           0        0.698634    1.422566    1.177350
      7          1           0        1.544057    1.758280   -0.356769
      8          1           0       -0.215122    1.954317   -0.274703
      9          1           0        1.954581   -1.137206   -0.678515
     10          1           0       -0.635680   -0.672525    1.318789
     11          1           0       -0.755934   -1.685691   -0.144828
     12          1           0       -2.117150    0.690213    0.426519
 ---------------------------------------------------------------------

 SCF Done:  E(RB3LYP) =  -285.556768743     A.U. after    1 cycles

 The electronic state is 1-A.
 Alpha  occ. eigenvalues --  -19.16973 -19.15605 -14.37193 -10.25552 -10.20535
 Alpha  occ. eigenvalues --   -1.05893  -1.02804  -0.84284  -0.70494  -0.61179
 Alpha  occ. eigenvalues --   -0.52796  -0.50709  -0.47125  -0.45605  -0.40522
 Alpha  occ. eigenvalues --   -0.39947  -0.38445  -0.33957  -0.30703  -0.27690
 Alpha  occ. eigenvalues --   -0.23086
 Alpha virt. eigenvalues --    0.06151   0.07705   0.11494   0.14446   0.15094
 Alpha virt. eigenvalues --    0.16295   0.18162   0.18440   0.19193   0.24753
 Alpha virt. eigenvalues --    0.26874   0.52102   0.53822   0.56007   0.57966

 Mulliken charges:
               1
     1  C   -0.154926
     2  N   -0.235092
     3  O   -0.445882
     4  C    0.213922
     5  O   -0.528397
     6  H    0.089084
     7  H    0.120095
     8  H    0.111324
     9  H    0.329475
    10  H    0.077323
    11  H    0.111849
    12  H    0.311225
 Sum of Mulliken charges =  -0.00000

 Dipole moment (field-independent basis, Debye):
    X=              0.3658    Y=              0.8150    Z=              0.6930  Tot=              1.1306
 Quadrupole moment (field-independent basis, Debye-Ang):
   XX=            -30.9291   YY=            -27.1771   ZZ=            -31.3574
   XY=             -2.5394   XZ=             -5.5307   YZ=              2.2244

  Exact polarizability:  41.474  -2.410  40.091  -1.616   1.476  32.229
 Approx polarizability:  54.878  -5.903  51.593  -0.229   1.961  46.615

                      1                      2                      3
                      A                      A                      A
 Frequencies --    124.6567               249.5378               285.8796
 Red. masses --      2.4735                 1.0924                 3.7740
 Frc consts  --      0.0226                 0.0401                 0.1817
 IR Inten    --      3.5838                31.2089                10.8085

                      4                      5                      6
                      A                      A                      A
 Frequencies --    318.9212               326.2827               412.9723
 Red. masses --      1.2672                 1.0410                 2.5798
 Frc consts  --      0.0759                 0.0653                 0.2592
 IR Inten    --     14.6987               168.2245                 4.2918

                      7                      8                      9
                      A                      A                      A
 Frequencies --    437.5948               524.8557               845.5042
 Red. masses --      2.6228                 5.0643                 4.6183
 Frc consts  --      0.2959                 0.8220                 1.9452
 IR Inten    --     12.1871                 4.4031                31.2623

                     10                     11                     12
                      A                      A                      A
 Frequencies --    962.0083              1024.9725              1114.1172
 Red. masses --      3.7830                 1.4173                 4.1106
 Frc consts  --      2.0627                 0.8773                 3.0062
 IR Inten    --     27.1762                74.9502               104.6092

                     13                     14                     15
                      A                      A                      A
 Frequencies --   1123.2618              1146.2032              1238.2613
 Red. masses --      2.2393                 1.3199                 3.0802
 Frc consts  --      1.6646                 1.0216                 2.7826
 IR Inten    --      9.4255                 8.3460                15.3214

                     16                     17                     18
                      A                      A                      A
 Frequencies --   1255.3427              1361.1982              1392.0133
 Red. masses --      1.1486                 1.3106                 1.2096
 Frc consts  --      1.0665                 1.4308                 1.3809
 IR Inten    --     60.0151                17.1799                35.3997

                     19                     20                     21
                      A                      A                      A
 Frequencies --   1419.1409              1451.4223              1501.9849
 Red. masses --      1.1795                 1.2309                 1.0484
 Frc consts  --      1.3995                 1.5278                 1.3934
 IR Inten    --     17.9031                 5.7181                 9.3164

                     22                     23                     24
                      A                      A                      A
 Frequencies --   1511.6369              1530.8245              2947.6546
 Red. masses --      1.0550                 1.0873                 1.0717
 Frc consts  --      1.4204                 1.5013                 5.4860
 IR Inten    --      3.9967                 1.5632                73.0510

                     25                     26                     27
                      A                      A                      A
 Frequencies --   2975.1370              3101.4730              3113.3625
 Red. masses --      1.0546                 1.0791                 1.0933
 Frc consts  --      5.4996                 6.1157                 6.2441
 IR Inten    --     68.3360                25.2920                34.5671

                     28                     29                     30
                      A                      A                      A
 Frequencies --   3145.0709              3799.8489              3834.3295
 Red. masses --      1.1032                 1.0682                 1.0668
 Frc consts  --      6.4294                 9.0871                 9.2408
 IR Inten    --     18.1676                38.8841                20.8544

 - Thermochemistry -
 -------------------
 Temperature   298.150 Kelvin.  Pressure   1.00000 Atm.
 Atom     1 has atomic number  6 and mass  12.00000

 Molecular mass:    77.04768 amu.
 Principal axes and moments of inertia in atomic units:
                           1         2         3
     Eigenvalues --   208.48254 471.98372 626.47771
           X            0.99959   0.01844  -0.02193
           Y           -0.01796   0.99960   0.02174
           Z            0.02232  -0.02134   0.99952
 This molecule is an asymmetric top.
 Rotational symmetry number  1.
 Rotational temperatures (Kelvin)      0.41545     0.18351     0.13826
 Rotational constants (GHZ):           8.65656     3.82374     2.88077
 Zero-point vibrational energy     266022.4 (Joules/Mol)
                                   63.58088 (Kcal/Mol)
 Warning -- explicit consideration of   8 degrees of freedom as
           vibrations may cause significant error
 Vibrational temperatures:    179.35   359.03   411.32   458.86   469.45
          (Kelvin)            594.17   629.60   755.15  1216.49  1384.11
                             1474.71  1602.96  1616.12  1649.13  1781.58
                             1806.16  1958.46  2002.79  2041.82  2088.27
                             2161.02  2174.91  2202.51  4241.01  4280.55
                             4462.32  4479.43  4525.05  5467.13  5516.74

 Zero-point correction=                           0.101323 (Hartree/Particle)
 Thermal correction to Energy=                    0.107612
 Thermal correction to Enthalpy=                  0.108557
 Thermal correction to Gibbs Free Energy=         0.072221
 Sum of electronic and zero-point Energies=           -285.455446
 Sum of electronic and thermal Energies=              -285.449156
 Sum of electronic and thermal Enthalpies=            -285.448212
 Sum of electronic and thermal Free Energies=         -285.484548

                     E (Thermal)             CV                S
                      KCal/Mol        Cal/Mol-Kelvin    Cal/Mol-Kelvin
 Total                   67.528             21.745             76.474
 Electronic               0.000              0.000              0.000
 Translational            0.889              2.981             38.941
 Rotational               0.889              2.981             25.625
 Vibrational             65.750             15.783             11.908
 Vibration     1          0.610              1.928              3.027
 Vibration     2          0.662              1.764              1.734
 Vibration     3          0.684              1.700              1.498
 Vibration     4          0.705              1.637              1.316
 Vibration     5          0.710              1.623              1.278
 Vibration     6          0.777              1.442              0.916
 Vibration     7          0.798              1.388              0.834
 Vibration     8          0.880              1.195              0.599

 Normal termination of Gaussian 09 at Thu Sep  8 15:20:34 2022.
