 Gaussian 09, Revision E.01,
 Gaussian 09:  ES64L-G09RevE.01 30-Nov-2015

 --------------------------------
 #P OPT=calcfc Freq B3LYP/6-31G**
 --------------------------------

 --------
 Frag_294
 --------
 Symbolic Z-matrix:
 Charge =  0 Multiplicity = 1

 SCF Done:  E(RB3LYP) =  -251.890426055     A.U. after   14 cycles
 SCF Done:  E(RB3LYP) =  -251.895098529     A.U. after   13 cycles
 SCF Done:  E(RB3LYP) =  -251.897199422     A.U. after   13 cycles
 SCF Done:  E(RB3LYP) =  -251.897675102     A.U. after   13 cycles
 SCF Done:  E(RB3LYP) =  -251.895597650     A.U. after   12 cycles
 SCF Done:  E(RB3LYP) =  -251.897908405     A.U. after    9 cycles
 SCF Done:  E(RB3LYP) =  -251.898280381     A.U. after   11 cycles
 SCF Done:  E(RB3LYP) =  -251.898396378     A.U. after   10 cycles
 SCF Done:  E(RB3LYP) =  -251.898421736     A.U. after   10 cycles
 SCF Done:  E(RB3LYP) =  -251.898421947     A.U. after    7 cycles
 Optimization completed.
    -- Stationary point found.
 Normal termination of Gaussian 09 at Fri Sep 10 20:08:49 2021.

 ----------------------------------------------------------------------
 #P Geom=AllCheck Guess=TCheck SCRF=Check GenChk RB3LYP/6-31G(d,p) Freq
 ----------------------------------------------------------------------

 Structure from the checkpoint file:  "/public/home/users/caep010/.cache/gau_scr/Gau-84873.chk"
 --------
 Frag_294
 --------
 Charge =  0 Multiplicity = 1

                         Standard orientation:
 ---------------------------------------------------------------------
 Center     Atomic      Atomic             Coordinates (Angstroms)
 Number     Number       Type             X           Y           Z
 ---------------------------------------------------------------------
      1          6           0       -2.198490    0.084148    0.081832
      2          6           0       -1.000553    0.663887   -0.003770
      3          6           0        0.366999   -0.003064   -0.018750
      4          6           0        0.288651   -1.526736    0.136085
      5          6           0        1.232399    0.595935    1.104090
      6          7           0        1.063640    0.274868   -1.300005
      7          1           0       -3.111548    0.671476    0.049100
      8          1           0       -2.321089   -0.989381    0.189235
      9          1           0       -0.956109    1.750961   -0.104558
     10          1           0        1.296004   -1.948767    0.100519
     11          1           0       -0.177129   -1.806453    1.085554
     12          1           0       -0.294364   -1.978730   -0.673596
     13          1           0        1.302817    1.685853    1.006501
     14          1           0        2.245130    0.185463    1.053577
     15          1           0        0.805531    0.376343    2.087093
     16          1           0        0.472977   -0.038740   -2.069271
     17          1           0        1.158269    1.282873   -1.421042
 ---------------------------------------------------------------------

 SCF Done:  E(RB3LYP) =  -251.898421947     A.U. after    1 cycles

 The electronic state is 1-A.
 Alpha  occ. eigenvalues --  -14.31032 -10.22155 -10.18377 -10.17613 -10.17210
 Alpha  occ. eigenvalues --  -10.16974  -0.88857  -0.77238  -0.72742  -0.68521
 Alpha  occ. eigenvalues --   -0.60089  -0.52980  -0.48239  -0.47240  -0.43965
 Alpha  occ. eigenvalues --   -0.43119  -0.38183  -0.37695  -0.37305  -0.35607
 Alpha  occ. eigenvalues --   -0.34120  -0.32776  -0.26590  -0.22963
 Alpha virt. eigenvalues --    0.02062   0.08040   0.12130   0.12423   0.14695
 Alpha virt. eigenvalues --    0.15225   0.15728   0.16403   0.18928   0.20297
 Alpha virt. eigenvalues --    0.21358   0.21869   0.23294   0.24431   0.25853

 Mulliken charges:
               1
     1  C   -0.255997
     2  C   -0.012320
     3  C    0.099809
     4  C   -0.303570
     5  C   -0.295411
     6  N   -0.574932
     7  H    0.093303
     8  H    0.094815
     9  H    0.068303
    10  H    0.114326
    11  H    0.102736
    12  H    0.096331
    13  H    0.089505
    14  H    0.114897
    15  H    0.106813
    16  H    0.233202
    17  H    0.228191
 Sum of Mulliken charges =  -0.00000

 Dipole moment (field-independent basis, Debye):
    X=             -0.7577    Y=              0.5885    Z=             -0.1116  Tot=              0.9659
 Quadrupole moment (field-independent basis, Debye-Ang):
   XX=            -41.3786   YY=            -36.6411   ZZ=            -38.6452
   XY=              1.1290   XZ=              1.7520   YZ=             -1.3126

  Exact polarizability:  72.606   4.085  59.485  -1.353  -1.093  50.011
 Approx polarizability: 102.903  10.702  83.219  -4.888  -1.966  69.435

                      1                      2                      3
                      A                      A                      A
 Frequencies --    107.7802               239.1478               274.2578
 Red. masses --      2.4348                 1.0277                 1.6479
 Frc consts  --      0.0167                 0.0346                 0.0730
 IR Inten    --      0.2544                 5.6675                 6.2221

                      4                      5                      6
                      A                      A                      A
 Frequencies --    288.2782               307.7167               323.5572
 Red. masses --      1.1301                 1.2461                 1.7382
 Frc consts  --      0.0553                 0.0695                 0.1072
 IR Inten    --      2.1273                26.5722                 2.5127

                      7                      8                      9
                      A                      A                      A
 Frequencies --    368.3011               392.7661               430.8330
 Red. masses --      2.4599                 2.0976                 2.5116
 Frc consts  --      0.1966                 0.1907                 0.2747
 IR Inten    --      2.8029                 1.6227                 5.2218

                     10                     11                     12
                      A                      A                      A
 Frequencies --    534.2015               699.8544               727.2817
 Red. masses --      2.5387                 1.7682                 3.2589
 Frc consts  --      0.4268                 0.5103                 1.0156
 IR Inten    --      2.0167                15.8621                 3.1735

                     13                     14                     15
                      A                      A                      A
 Frequencies --    884.8477               901.5156               938.8485
 Red. masses --      2.0613                 1.6282                 1.3571
 Frc consts  --      0.9509                 0.7797                 0.7048
 IR Inten    --     98.9974                51.8973                30.7645

                     16                     17                     18
                      A                      A                      A
 Frequencies --    947.0436              1002.1930              1013.7668
 Red. masses --      1.5434                 1.3262                 1.3457
 Frc consts  --      0.8156                 0.7848                 0.8148
 IR Inten    --      0.6155                24.4845                11.2630

                     19                     20                     21
                      A                      A                      A
 Frequencies --   1037.9810              1043.4971              1118.7719
 Red. masses --      1.3136                 1.2179                 1.4935
 Frc consts  --      0.8338                 0.7814                 1.1014
 IR Inten    --      1.3468                 8.2494                 5.0195

                     22                     23                     24
                      A                      A                      A
 Frequencies --   1215.9422              1269.1747              1320.2667
 Red. masses --      2.4725                 2.5471                 1.4989
 Frc consts  --      2.1538                 2.4173                 1.5394
 IR Inten    --     24.1597                27.7909                 1.2156

                     25                     26                     27
                      A                      A                      A
 Frequencies --   1363.0572              1410.4062              1424.0177
 Red. masses --      1.4987                 1.3563                 1.2498
 Frc consts  --      1.6405                 1.5896                 1.4932
 IR Inten    --      0.2739                 6.9860                 7.1567

                     28                     29                     30
                      A                      A                      A
 Frequencies --   1461.9286              1499.6262              1502.1177
 Red. masses --      1.1908                 1.0571                 1.0493
 Frc consts  --      1.4995                 1.4006                 1.3949
 IR Inten    --      4.9073                 0.5815                 0.9015

                     31                     32                     33
                      A                      A                      A
 Frequencies --   1512.4732              1524.3155              1667.3781
 Red. masses --      1.0563                 1.0565                 1.0945
 Frc consts  --      1.4237                 1.4464                 1.7928
 IR Inten    --      3.2187                 4.1324                25.0458

                     34                     35                     36
                      A                      A                      A
 Frequencies --   1717.3908              3039.1456              3049.2365
 Red. masses --      4.5450                 1.0369                 1.0370
 Frc consts  --      7.8981                 5.6426                 5.6806
 IR Inten    --      8.7664                29.4155                10.7720

                     37                     38                     39
                      A                      A                      A
 Frequencies --   3108.4454              3115.2606              3117.8488
 Red. masses --      1.0978                 1.0867                 1.1006
 Frc consts  --      6.2495                 6.2137                 6.3035
 IR Inten    --     11.8307                38.6886                31.1241

                     40                     41                     42
                      A                      A                      A
 Frequencies --   3132.0859              3139.0037              3158.8329
 Red. masses --      1.1038                 1.1029                 1.0635
 Frc consts  --      6.3797                 6.4030                 6.2526
 IR Inten    --      6.6459                33.8116                 7.1047

                     43                     44                     45
                      A                      A                      A
 Frequencies --   3238.0271              3464.4382              3549.2418
 Red. masses --      1.1154                 1.0495                 1.0919
 Frc consts  --      6.8903                 7.4215                 8.1042
 IR Inten    --     17.2302                 2.2197                 0.8485

 - Thermochemistry -
 -------------------
 Temperature   298.150 Kelvin.  Pressure   1.00000 Atm.
 Atom     1 has atomic number  6 and mass  12.00000

 Molecular mass:    85.08915 amu.
 Principal axes and moments of inertia in atomic units:
                           1         2         3
     Eigenvalues --   400.05215 667.14205 688.02379
           X            0.99942   0.01816   0.02885
           Y           -0.01718   0.99928  -0.03391
           Z           -0.02944   0.03339   0.99901
 This molecule is an asymmetric top.
 Rotational symmetry number  1.
 Rotational temperatures (Kelvin)      0.21651     0.12983     0.12589
 Rotational constants (GHZ):           4.51126     2.70518     2.62308
 Zero-point vibrational energy     404230.7 (Joules/Mol)
                                   96.61347 (Kcal/Mol)
 Warning -- explicit consideration of  10 degrees of freedom as
           vibrations may cause significant error
 Vibrational temperatures:    155.07   344.08   394.60   414.77   442.74
          (Kelvin)            465.53   529.90   565.10   619.87   768.60
                             1006.93  1046.39  1273.10  1297.08  1350.79
                             1362.58  1441.93  1458.58  1493.42  1501.36
                             1609.66  1749.47  1826.06  1899.57  1961.13
                             2029.26  2048.84  2103.39  2157.62  2161.21
                             2176.11  2193.15  2398.98  2470.94  4372.65
                             4387.17  4472.35  4482.16  4485.88  4506.37
                             4516.32  4544.85  4658.79  4984.55  5106.56

 Zero-point correction=                           0.153963 (Hartree/Particle)
 Thermal correction to Energy=                    0.161512
 Thermal correction to Enthalpy=                  0.162456
 Thermal correction to Gibbs Free Energy=         0.123488
 Sum of electronic and zero-point Energies=           -251.744459
 Sum of electronic and thermal Energies=              -251.736910
 Sum of electronic and thermal Enthalpies=            -251.735966
 Sum of electronic and thermal Free Energies=         -251.774934

                     E (Thermal)             CV                S
                      KCal/Mol        Cal/Mol-Kelvin    Cal/Mol-Kelvin
 Total                  101.350             28.444             82.015
 Electronic               0.000              0.000              0.000
 Translational            0.889              2.981             39.237
 Rotational               0.889              2.981             26.710
 Vibrational             99.573             22.482             16.068
 Vibration     1          0.606              1.943              3.309
 Vibration     2          0.657              1.781              1.809
 Vibration     3          0.677              1.721              1.569
 Vibration     4          0.685              1.696              1.484
 Vibration     5          0.698              1.659              1.375
 Vibration     6          0.708              1.628              1.292
 Vibration     7          0.741              1.537              1.087
 Vibration     8          0.760              1.486              0.990
 Vibration     9          0.792              1.403              0.856
 Vibration    10          0.889              1.174              0.578

 Optimization completed.
    -- Stationary point found.
 Normal termination of Gaussian 09 at Fri Sep 10 20:09:04 2021.
