 Gaussian 09, Revision E.01,
 Gaussian 09:  ES64L-G09RevE.01 30-Nov-2015

 ----------------------------
 #P OPT Freq B3LYP/6-31G(d,p)
 ----------------------------

 --------
 Frag_701
 --------
 Symbolic Z-matrix:
 Charge =  0 Multiplicity = 1

 SCF Done:  E(RB3LYP) =  -267.911206347     A.U. after   13 cycles
 SCF Done:  E(RB3LYP) =  -267.911242378     A.U. after    8 cycles
 SCF Done:  E(RB3LYP) =  -267.911243160     A.U. after    8 cycles
 SCF Done:  E(RB3LYP) =  -267.911244123     A.U. after    7 cycles
 SCF Done:  E(RB3LYP) =  -267.911244117     A.U. after    7 cycles
 SCF Done:  E(RB3LYP) =  -267.911244102     A.U. after    7 cycles
 SCF Done:  E(RB3LYP) =  -267.911244131     A.U. after    7 cycles
 Optimization completed.
    -- Stationary point found.
 Normal termination of Gaussian 09 at Thu Sep  8 14:57:43 2022.

 ----------------------------------------------------------------------
 #P Geom=AllCheck Guess=TCheck SCRF=Check GenChk RB3LYP/6-31G(d,p) Freq
 ----------------------------------------------------------------------

 Structure from the checkpoint file:  "B3LYP6-31Gdp.Frag_701.chk"
 --------
 Frag_701
 --------
 Charge =  0 Multiplicity = 1

                         Standard orientation:
 ---------------------------------------------------------------------
 Center     Atomic      Atomic             Coordinates (Angstroms)
 Number     Number       Type             X           Y           Z
 ---------------------------------------------------------------------
      1          6           0       -1.504924    0.000052   -0.973965
      2          6           0       -0.329709    0.000000    0.008941
      3          6           0       -0.342906   -1.270584    0.873203
      4          6           0       -0.342855    1.270533    0.873278
      5          7           0        0.919490   -0.000001   -0.861988
      6          7           0        2.032299   -0.000001   -0.325007
      7          1           0       -1.467263   -0.883692   -1.617648
      8          1           0       -2.460464    0.000058   -0.439882
      9          1           0       -1.467226    0.883831   -1.617599
     10          1           0        0.504106   -1.301106    1.567141
     11          1           0       -1.258678   -1.308818    1.470808
     12          1           0       -0.304374   -2.166995    0.246746
     13          1           0        0.504160    1.300983    1.567215
     14          1           0       -1.258624    1.308766    1.470888
     15          1           0       -0.304292    2.166980    0.246874
     16          1           0        1.972497   -0.000004    0.725675
 ---------------------------------------------------------------------

 SCF Done:  E(RB3LYP) =  -267.911244131     A.U. after    1 cycles

 The electronic state is 1-A.
 Alpha  occ. eigenvalues --  -14.38400 -14.37854 -10.23250 -10.19146 -10.19146
 Alpha  occ. eigenvalues --  -10.17922  -1.02619  -0.82492  -0.70346  -0.69987
 Alpha  occ. eigenvalues --   -0.66178  -0.57428  -0.50019  -0.45647  -0.45308
 Alpha  occ. eigenvalues --   -0.41542  -0.40764  -0.39626  -0.37793  -0.36963
 Alpha  occ. eigenvalues --   -0.36594  -0.33508  -0.32969  -0.22442
 Alpha virt. eigenvalues --   -0.04231   0.06462   0.10267   0.11478   0.14045
 Alpha virt. eigenvalues --    0.14855   0.14917   0.18245   0.18328   0.19095
 Alpha virt. eigenvalues --    0.20628   0.21324   0.23991   0.24640   0.25128

 Mulliken charges:
               1
     1  C   -0.288388
     2  C    0.084693
     3  C   -0.303308
     4  C   -0.303310
     5  N   -0.155978
     6  N   -0.222097
     7  H    0.113316
     8  H    0.097268
     9  H    0.113316
    10  H    0.097652
    11  H    0.113731
    12  H    0.120601
    13  H    0.097651
    14  H    0.113731
    15  H    0.120601
    16  H    0.200520
 Sum of Mulliken charges =  -0.00000

 Dipole moment (field-independent basis, Debye):
    X=             -2.0235    Y=             -0.0000    Z=              2.3021  Tot=              3.0650
 Quadrupole moment (field-independent basis, Debye-Ang):
   XX=            -42.3288   YY=            -37.3069   ZZ=            -39.9439
   XY=              0.0000   XZ=              3.8083   YZ=             -0.0000

  Exact polarizability:  63.258   0.000  50.559   2.312   0.000  54.569
 Approx polarizability:  93.898   0.000  68.186   5.029   0.000  80.819

                      1                      2                      3
                      A                      A                      A
 Frequencies --     59.1162               202.1794               248.3175
 Red. masses --      2.9548                 1.0279                 1.1147
 Frc consts  --      0.0061                 0.0248                 0.0405
 IR Inten    --     13.1994                 0.0485                 1.8477

                      4                      5                      6
                      A                      A                      A
 Frequencies --    266.0751               282.3311               314.8334
 Red. masses --      1.1527                 2.1568                 2.3742
 Frc consts  --      0.0481                 0.1013                 0.1387
 IR Inten    --      0.2138                 2.5877                 6.6677

                      7                      8                      9
                      A                      A                      A
 Frequencies --    383.4757               399.3081               402.1533
 Red. masses --      2.5494                 2.2427                 2.4015
 Frc consts  --      0.2209                 0.2107                 0.2288
 IR Inten    --      0.6928                 6.8476                 2.9171

                     10                     11                     12
                      A                      A                      A
 Frequencies --    577.3572               717.4106               819.4007
 Red. masses --      3.0957                 4.3617                 2.9458
 Frc consts  --      0.6080                 1.3226                 1.1653
 IR Inten    --      0.1981                 0.7948                 1.1370

                     13                     14                     15
                      A                      A                      A
 Frequencies --    924.6580               940.7815               953.7086
 Red. masses --      1.9768                 1.5917                 1.2614
 Frc consts  --      0.9958                 0.8300                 0.6760
 IR Inten    --      9.9697                 0.7814                22.6235

                     16                     17                     18
                      A                      A                      A
 Frequencies --    969.5702              1055.6959              1062.0824
 Red. masses --      1.2026                 1.4051                 1.4109
 Frc consts  --      0.6661                 0.9227                 0.9377
 IR Inten    --      3.3001                 0.5139                 4.6635

                     19                     20                     21
                      A                      A                      A
 Frequencies --   1218.5598              1262.9639              1276.8990
 Red. masses --      2.1462                 2.7073                 2.8862
 Frc consts  --      1.8777                 2.5443                 2.7727
 IR Inten    --      7.0101                 3.6251                11.3684

                     22                     23                     24
                      A                      A                      A
 Frequencies --   1412.0405              1413.1910              1440.8791
 Red. masses --      1.2319                 1.2514                 1.2192
 Frc consts  --      1.4471                 1.4725                 1.4913
 IR Inten    --      5.3928                 7.6879                 1.3023

                     25                     26                     27
                      A                      A                      A
 Frequencies --   1476.9021              1491.2481              1496.2708
 Red. masses --      1.2677                 1.0473                 1.0468
 Frc consts  --      1.6292                 1.3722                 1.3808
 IR Inten    --     66.2839                 0.0446                 0.1651

                     28                     29                     30
                      A                      A                      A
 Frequencies --   1496.8562              1515.7689              1520.9076
 Red. masses --      1.0472                 1.0549                 1.0564
 Frc consts  --      1.3824                 1.4280                 1.4398
 IR Inten    --      0.9580                 4.0274                15.1214

                     31                     32                     33
                      A                      A                      A
 Frequencies --   1528.2815              1682.4313              3020.9609
 Red. masses --      1.0541                11.9353                 1.0680
 Frc consts  --      1.4505                19.9048                 5.7428
 IR Inten    --     12.0783                20.6639                76.8665

                     34                     35                     36
                      A                      A                      A
 Frequencies --   3042.5447              3045.4201              3051.7019
 Red. masses --      1.0353                 1.0355                 1.0363
 Frc consts  --      5.6466                 5.6585                 5.6863
 IR Inten    --     18.3065                34.1737                 7.4137

                     37                     38                     39
                      A                      A                      A
 Frequencies --   3111.9190              3116.3734              3123.2814
 Red. masses --      1.1014                 1.1006                 1.1033
 Frc consts  --      6.2845                 6.2978                 6.3412
 IR Inten    --      2.1584                42.3211                 3.2783

                     40                     41                     42
                      A                      A                      A
 Frequencies --   3125.8039              3130.3281              3130.4077
 Red. masses --      1.1036                 1.1027                 1.1026
 Frc consts  --      6.3531                 6.3660                 6.3662
 IR Inten    --      1.1901                34.3169                44.2818

 - Thermochemistry -
 -------------------
 Temperature   298.150 Kelvin.  Pressure   1.00000 Atm.
 Atom     1 has atomic number  6 and mass  12.00000

 Molecular mass:    86.08440 amu.
 Principal axes and moments of inertia in atomic units:
                           1         2         3
     Eigenvalues --   404.04153 627.55604 628.09983
           X            0.99715   0.00000   0.07550
           Y           -0.00000   1.00000  -0.00003
           Z           -0.07550   0.00003   0.99715
 This molecule is an asymmetric top.
 Rotational symmetry number  1.
 Rotational temperatures (Kelvin)      0.21437     0.13802     0.13790
 Rotational constants (GHZ):           4.46672     2.87582     2.87333
 Zero-point vibrational energy     369110.1 (Joules/Mol)
                                   88.21944 (Kcal/Mol)
 Warning -- explicit consideration of  10 degrees of freedom as
           vibrations may cause significant error
 Vibrational temperatures:     85.05   290.89   357.27   382.82   406.21
          (Kelvin)            452.97   551.74   574.51   578.61   830.69
                             1032.19  1178.93  1330.38  1353.57  1372.17
                             1394.99  1518.91  1528.10  1753.23  1817.12
                             1837.17  2031.61  2033.26  2073.10  2124.93
                             2145.57  2152.80  2153.64  2180.85  2188.24
                             2198.85  2420.64  4346.48  4377.54  4381.67
                             4390.71  4477.35  4483.76  4493.70  4497.33
                             4503.84  4503.95

 Zero-point correction=                           0.140587 (Hartree/Particle)
 Thermal correction to Energy=                    0.148222
 Thermal correction to Enthalpy=                  0.149166
 Thermal correction to Gibbs Free Energy=         0.109530
 Sum of electronic and zero-point Energies=           -267.770658
 Sum of electronic and thermal Energies=              -267.763022
 Sum of electronic and thermal Enthalpies=            -267.762078
 Sum of electronic and thermal Free Energies=         -267.801714

                     E (Thermal)             CV                S
                      KCal/Mol        Cal/Mol-Kelvin    Cal/Mol-Kelvin
 Total                   93.011             27.327             83.421
 Electronic               0.000              0.000              0.000
 Translational            0.889              2.981             39.271
 Rotational               0.889              2.981             26.568
 Vibrational             91.233             21.366             17.581
 Vibration     1          0.596              1.974              4.486
 Vibration     2          0.639              1.837              2.113
 Vibration     3          0.662              1.766              1.742
 Vibration     4          0.672              1.735              1.622
 Vibration     5          0.681              1.706              1.520
 Vibration     6          0.702              1.645              1.337
 Vibration     7          0.753              1.505              1.025
 Vibration     8          0.765              1.472              0.965
 Vibration     9          0.768              1.465              0.955
 Vibration    10          0.934              1.080              0.490

 Optimization completed.
    -- Stationary point found.
 Normal termination of Gaussian 09 at Thu Sep  8 14:57:56 2022.
