 Gaussian 09, Revision E.01,
 Gaussian 09:  ES64L-G09RevE.01 30-Nov-2015

 ----------------------------
 #P OPT Freq B3LYP/6-31G(d,p)
 ----------------------------

 ---------
 Frag_1019
 ---------
 Symbolic Z-matrix:
 Charge =  0 Multiplicity = 1

 SCF Done:  E(RB3LYP) =  -376.475345725     A.U. after   12 cycles
 SCF Done:  E(RB3LYP) =  -376.475360483     A.U. after   10 cycles
 SCF Done:  E(RB3LYP) =  -376.475295423     A.U. after   10 cycles
 SCF Done:  E(RB3LYP) =  -376.475397896     A.U. after   10 cycles
 SCF Done:  E(RB3LYP) =  -376.475398810     A.U. after    7 cycles
 SCF Done:  E(RB3LYP) =  -376.475399251     A.U. after    7 cycles
 SCF Done:  E(RB3LYP) =  -376.475399400     A.U. after    7 cycles
 SCF Done:  E(RB3LYP) =  -376.475399458     A.U. after    6 cycles
 Optimization completed.
    -- Stationary point found.
 Normal termination of Gaussian 09 at Thu Sep  8 14:50:28 2022.

 ----------------------------------------------------------------------
 #P Geom=AllCheck Guess=TCheck SCRF=Check GenChk RB3LYP/6-31G(d,p) Freq
 ----------------------------------------------------------------------

 Structure from the checkpoint file:  "B3LYP6-31Gdp.Frag_1019.chk"
 ---------
 Frag_1019
 ---------
 Charge =  0 Multiplicity = 1

                         Standard orientation:
 ---------------------------------------------------------------------
 Center     Atomic      Atomic             Coordinates (Angstroms)
 Number     Number       Type             X           Y           Z
 ---------------------------------------------------------------------
      1          7           0       -1.431399    1.292797   -0.036102
      2          6           0       -0.844099    0.037052   -0.464007
      3          7           0       -1.533323   -1.143292    0.085786
      4          6           0        0.633444   -0.009238    0.007730
      5          7           0        0.648938    0.045303    1.449479
      6          7           0        1.463433    1.078863   -0.473520
      7          8           0        1.145018   -1.221782   -0.560660
      8          1           0       -2.382317    1.380127   -0.385181
      9          1           0       -1.468488    1.294680    0.981449
     10          1           0       -0.821053    0.043373   -1.566187
     11          1           0       -2.492501   -1.169923   -0.253819
     12          1           0       -1.069973   -1.980951   -0.262780
     13          1           0        1.605549    0.017813    1.789668
     14          1           0        0.122467   -0.742240    1.816664
     15          1           0        1.047103    1.952490   -0.158264
     16          1           0        1.425770    1.085380   -1.490778
     17          1           0        2.103688   -1.189080   -0.427337
 ---------------------------------------------------------------------

 SCF Done:  E(RB3LYP) =  -376.475399458     A.U. after    1 cycles

 The electronic state is 1-A.
 Alpha  occ. eigenvalues --  -19.13777 -14.30812 -14.30802 -14.30780 -14.30487
 Alpha  occ. eigenvalues --  -10.27776 -10.23011  -1.02828  -0.91623  -0.88032
 Alpha  occ. eigenvalues --   -0.83709  -0.82671  -0.66791  -0.56927  -0.52846
 Alpha  occ. eigenvalues --   -0.51956  -0.47343  -0.46147  -0.45344  -0.44818
 Alpha  occ. eigenvalues --   -0.40974  -0.39549  -0.37977  -0.34668  -0.29462
 Alpha  occ. eigenvalues --   -0.25038  -0.24304  -0.23794  -0.23555
 Alpha virt. eigenvalues --    0.07156   0.09795   0.11640   0.12803   0.13719
 Alpha virt. eigenvalues --    0.15141   0.16861   0.17635   0.18637   0.20836
 Alpha virt. eigenvalues --    0.23796   0.23969   0.28230   0.28382   0.30702

 Mulliken charges:
               1
     1  N   -0.589232
     2  C    0.160112
     3  N   -0.609746
     4  C    0.449835
     5  N   -0.584545
     6  N   -0.598973
     7  O   -0.558834
     8  H    0.231337
     9  H    0.254591
    10  H    0.075639
    11  H    0.224884
    12  H    0.253711
    13  H    0.236247
    14  H    0.257340
    15  H    0.260891
    16  H    0.239024
    17  H    0.297718
 Sum of Mulliken charges =  -0.00000

 Dipole moment (field-independent basis, Debye):
    X=             -0.7861    Y=             -0.6595    Z=             -0.6809  Tot=              1.2314
 Quadrupole moment (field-independent basis, Debye-Ang):
   XX=            -36.2268   YY=            -44.0548   ZZ=            -41.5350
   XY=             -1.5846   XZ=              2.6078   YZ=             -1.2085

  Exact polarizability:  58.939   0.014  53.177   0.506   0.011  49.696
 Approx polarizability:  76.245   0.051  74.138  -0.208   1.751  70.527

                      1                      2                      3
                      A                      A                      A
 Frequencies --    144.4050               225.7361               258.9416
 Red. masses --      3.8087                 1.8156                 1.5184
 Frc consts  --      0.0468                 0.0545                 0.0600
 IR Inten    --      5.3025                 5.4192                28.6086

                      4                      5                      6
                      A                      A                      A
 Frequencies --    262.1726               318.2682               337.1266
 Red. masses --      1.8496                 1.2159                 1.3687
 Frc consts  --      0.0749                 0.0726                 0.0917
 IR Inten    --      5.5075                19.1852                68.3864

                      7                      8                      9
                      A                      A                      A
 Frequencies --    374.3356               390.3892               416.1480
 Red. masses --      1.8647                 1.8790                 1.4124
 Frc consts  --      0.1539                 0.1687                 0.1441
 IR Inten    --     31.4312                15.3409                54.2258

                     10                     11                     12
                      A                      A                      A
 Frequencies --    435.7745               500.6890               521.0469
 Red. masses --      2.0755                 2.3331                 2.4051
 Frc consts  --      0.2322                 0.3446                 0.3847
 IR Inten    --     19.7718                34.5138                60.8854

                     13                     14                     15
                      A                      A                      A
 Frequencies --    550.4755               629.7640               780.9654
 Red. masses --      3.4199                 2.9814                 2.9067
 Frc consts  --      0.6106                 0.6967                 1.0445
 IR Inten    --     51.0137                16.4848                19.9517

                     16                     17                     18
                      A                      A                      A
 Frequencies --    847.7344               878.4726               932.7560
 Red. masses --      1.6268                 1.7206                 1.3724
 Frc consts  --      0.6888                 0.7823                 0.7035
 IR Inten    --    166.9001               113.0733               111.5649

                     19                     20                     21
                      A                      A                      A
 Frequencies --    933.9657               992.6113              1003.8894
 Red. masses --      1.6346                 2.0978                 2.1859
 Frc consts  --      0.8401                 1.2178                 1.2979
 IR Inten    --    144.6017               223.2924                41.3646

                     22                     23                     24
                      A                      A                      A
 Frequencies --   1036.5271              1095.8572              1159.4781
 Red. masses --      1.9286                 2.5657                 1.1945
 Frc consts  --      1.2208                 1.8154                 0.9462
 IR Inten    --     30.1195                43.1831                69.7323

                     25                     26                     27
                      A                      A                      A
 Frequencies --   1169.0943              1277.5106              1292.6984
 Red. masses --      1.4125                 1.7330                 1.7744
 Frc consts  --      1.1375                 1.6664                 1.7470
 IR Inten    --     47.2516                 8.9614                12.2215

                     28                     29                     30
                      A                      A                      A
 Frequencies --   1344.1727              1378.1926              1410.2685
 Red. masses --      1.7195                 1.4689                 1.4997
 Frc consts  --      1.8304                 1.6438                 1.7573
 IR Inten    --     48.8590                51.2689                13.8980

                     31                     32                     33
                      A                      A                      A
 Frequencies --   1467.0560              1629.9941              1645.2461
 Red. masses --      1.8187                 1.1186                 1.0972
 Frc consts  --      2.3062                 1.7510                 1.7499
 IR Inten    --     10.2770                67.0086                39.4227

                     34                     35                     36
                      A                      A                      A
 Frequencies --   1651.7490              1659.1312              2981.9273
 Red. masses --      1.1026                 1.1221                 1.0841
 Frc consts  --      1.7723                 1.8199                 5.6797
 IR Inten    --     30.4791                43.1054                74.8609

                     37                     38                     39
                      A                      A                      A
 Frequencies --   3478.6400              3490.3136              3496.3136
 Red. masses --      1.0493                 1.0485                 1.0498
 Frc consts  --      7.4815                 7.5256                 7.5609
 IR Inten    --      4.1175                 3.3580                 2.0537

                     40                     41                     42
                      A                      A                      A
 Frequencies --   3511.1094              3568.1995              3582.3612
 Red. masses --      1.0478                 1.0926                 1.0928
 Frc consts  --      7.6106                 8.1965                 8.2632
 IR Inten    --      3.9513                 0.5581                 3.0030

                     43                     44                     45
                      A                      A                      A
 Frequencies --   3583.2894              3613.6017              3786.0963
 Red. masses --      1.0918                 1.0949                 1.0654
 Frc consts  --      8.2593                 8.4239                 8.9981
 IR Inten    --      2.7733                 7.7263                16.5281

 - Thermochemistry -
 -------------------
 Temperature   298.150 Kelvin.  Pressure   1.00000 Atm.
 Atom     1 has atomic number  7 and mass  14.00307

 Molecular mass:   106.08546 amu.
 Principal axes and moments of inertia in atomic units:
                           1         2         3
     Eigenvalues --   538.76134 753.55699 914.01913
           X            0.99979   0.01415   0.01468
           Y           -0.01374   0.99954  -0.02714
           Z           -0.01506   0.02694   0.99952
 This molecule is an asymmetric top.
 Rotational symmetry number  1.
 Warning -- assumption of classical behavior for rotation
           may cause significant error
 Rotational temperatures (Kelvin)      0.16076     0.11494     0.09476
 Rotational constants (GHZ):           3.34980     2.39496     1.97451
 Zero-point vibrational energy     395033.8 (Joules/Mol)
                                   94.41535 (Kcal/Mol)
 Warning -- explicit consideration of  13 degrees of freedom as
           vibrations may cause significant error
 Vibrational temperatures:    207.77   324.78   372.56   377.21   457.92
          (Kelvin)            485.05   538.58   561.68   598.74   626.98
                              720.38   749.67   792.01   906.09  1123.63
                             1219.70  1263.92  1342.03  1343.77  1428.14
                             1444.37  1491.33  1576.69  1668.23  1682.06
                             1838.05  1859.90  1933.96  1982.91  2029.06
                             2110.76  2345.20  2367.14  2376.50  2387.12
                             4290.32  5004.98  5021.78  5030.41  5051.70
                             5133.84  5154.21  5155.55  5199.16  5447.34

 Zero-point correction=                           0.150460 (Hartree/Particle)
 Thermal correction to Energy=                    0.158714
 Thermal correction to Enthalpy=                  0.159658
 Thermal correction to Gibbs Free Energy=         0.119171
 Sum of electronic and zero-point Energies=           -376.324939
 Sum of electronic and thermal Energies=              -376.316686
 Sum of electronic and thermal Enthalpies=            -376.315742
 Sum of electronic and thermal Free Energies=         -376.356229

                     E (Thermal)             CV                S
                      KCal/Mol        Cal/Mol-Kelvin    Cal/Mol-Kelvin
 Total                   99.594             32.262             85.212
 Electronic               0.000              0.000              0.000
 Translational            0.889              2.981             39.894
 Rotational               0.889              2.981             27.409
 Vibrational             97.817             26.300             17.909
 Vibration     1          0.616              1.909              2.745
 Vibration     2          0.650              1.802              1.913
 Vibration     3          0.668              1.748              1.669
 Vibration     4          0.669              1.742              1.647
 Vibration     5          0.705              1.639              1.319
 Vibration     6          0.718              1.601              1.226
 Vibration     7          0.745              1.525              1.062
 Vibration     8          0.758              1.491              0.999
 Vibration     9          0.779              1.435              0.905
 Vibration    10          0.796              1.392              0.840
 Vibration    11          0.856              1.248              0.656
 Vibration    12          0.876              1.203              0.608
 Vibration    13          0.906              1.139              0.543

 Optimization completed.
    -- Stationary point found.
 Normal termination of Gaussian 09 at Thu Sep  8 14:50:46 2022.
