 Gaussian 09, Revision D.01,
 Gaussian 09:  ES64L-G09RevD.01 24-Apr-2013

 -------------------------
 #P OPT Freq B3LYP/6-31G**
 -------------------------

 -------
 Frag_62
 -------
 Symbolic Z-matrix:
 Charge =  0 Multiplicity = 1

 SCF Done:  E(RB3LYP) =  -229.854798261     A.U. after   12 cycles
 Optimization completed.
    -- Stationary point found.

 1\1\GINC-FN8\FOpt\RB3LYP\6-31G(d,p)\C3H10N2\LIUJ201281\22-Jul-2021\0\\
 #P OPT Freq B3LYP/6-31G**\\Frag_62\\0,1\C,2.0639,0.0342,0.1309\C,0.760
 1,-0.6399,-0.298\C,-0.4916,0.0046,0.3135\N,-0.6092,1.3892,-0.1288\N,-1
 .6709,-0.7859,-0.0859\H,2.9265,-0.4291,-0.3585\H,2.2141,-0.0459,1.2139
 \H,2.0453,1.0965,-0.1239\H,0.7787,-1.7021,-0.0184\H,0.6537,-0.6124,-1.
 3902\H,-0.3571,0.0453,1.409\H,-0.9098,1.3821,-1.1032\H,-1.3439,1.8627,
 0.3925\H,-1.5497,-1.761,0.1851\H,-2.4918,-0.453,0.4173\\Version=ES64L-
 G09RevD.01\State=1-A\HF=-229.8547983\RMSD=5.890e-09\RMSF=3.284e-05\Dip

 Normal termination of Gaussian 09 at Thu Jul 22 20:09:05 2021.

 ----------------------------------------------------------------------
 #P Geom=AllCheck Guess=TCheck SCRF=Check GenChk RB3LYP/6-31G(d,p) Freq
 ----------------------------------------------------------------------

 Structure from the checkpoint file:  "/vol2/users/liuj201281/HOFBenchmark/IsodesmicSplit/Sample60/Ring26/Running/Gau-436170.chk"
 -------
 Frag_62
 -------
 Charge =  0 Multiplicity = 1

                         Standard orientation:
 ---------------------------------------------------------------------
 Center     Atomic      Atomic             Coordinates (Angstroms)
 Number     Number       Type             X           Y           Z
 ---------------------------------------------------------------------
      1          6           0        2.063907    0.034206    0.130921
      2          6           0        0.760106   -0.639892   -0.297979
      3          6           0       -0.491593    0.004610    0.313521
      4          7           0       -0.609191    1.389211   -0.128779
      5          7           0       -1.670894   -0.785888   -0.085879
      6          1           0        2.926506   -0.429095   -0.358479
      7          1           0        2.214107   -0.045894    1.213921
      8          1           0        2.045309    1.096506   -0.123879
      9          1           0        0.778704   -1.702092   -0.018379
     10          1           0        0.653706   -0.612392   -1.390179
     11          1           0       -0.357093    0.045310    1.409021
     12          1           0       -0.909791    1.382111   -1.103179
     13          1           0       -1.343890    1.862712    0.392521
     14          1           0       -1.549696   -1.760988    0.185121
     15          1           0       -2.491794   -0.452986    0.417321
 ---------------------------------------------------------------------

 SCF Done:  E(RB3LYP) =  -229.854798261     A.U. after    1 cycles

 The electronic state is 1-A.
 Alpha  occ. eigenvalues --  -14.30834 -14.30724 -10.23125 -10.17333 -10.16247
 Alpha  occ. eigenvalues --   -0.90991  -0.82833  -0.75233  -0.64100  -0.57168
 Alpha  occ. eigenvalues --   -0.49431  -0.47333  -0.45514  -0.42879  -0.39599
 Alpha  occ. eigenvalues --   -0.38415  -0.34613  -0.32913  -0.32466  -0.24472
 Alpha  occ. eigenvalues --   -0.23371
 Alpha virt. eigenvalues --    0.07251   0.11483   0.12191   0.13327   0.15373
 Alpha virt. eigenvalues --    0.17804   0.17978   0.18629   0.19086   0.21269
 Alpha virt. eigenvalues --    0.24799   0.25499   0.27769   0.28408   0.52091

 Mulliken charges:
               1
     1  C   -0.316257
     2  C   -0.155816
     3  C    0.155669
     4  N   -0.576307
     5  N   -0.599676
     6  H    0.093878
     7  H    0.094115
     8  H    0.129406
     9  H    0.080281
    10  H    0.099461
    11  H    0.073572
    12  H    0.238947
    13  H    0.230685
    14  H    0.229319
    15  H    0.222724
 Sum of Mulliken charges =   0.00000

 Dipole moment (field-independent basis, Debye):
    X=             -1.2252    Y=             -0.5842    Z=              1.0486  Tot=              1.7152
 Quadrupole moment (field-independent basis, Debye-Ang):
   XX=            -31.0975   YY=            -32.4913   ZZ=            -32.5765
   XY=             -2.3120   XZ=             -2.9092   YZ=             -1.5156

  Exact polarizability:  53.010  -0.851  48.703  -0.995  -0.244  42.474
 Approx polarizability:  63.425  -1.104  66.473  -1.053  -0.388  61.019

                      1                      2                      3
                      A                      A                      A
 Frequencies --    115.2025               225.0569               260.7599
 Red. masses --      1.9371                 1.1424                 2.4329
 Frc consts  --      0.0151                 0.0341                 0.0975
 IR Inten    --      1.0185                 1.1686                 1.4766

                      4                      5                      6
                      A                      A                      A
 Frequencies --    274.6581               301.4793               418.2648
 Red. masses --      1.0987                 1.1189                 2.6984
 Frc consts  --      0.0488                 0.0599                 0.2781
 IR Inten    --     28.9481                46.7865                23.5699

                      7                      8                      9
                      A                      A                      A
 Frequencies --    463.3195               521.5303               786.9184
 Red. masses --      2.1225                 2.6410                 1.3758
 Frc consts  --      0.2684                 0.4232                 0.5020
 IR Inten    --      5.5111                33.9824                 3.1129

                     10                     11                     12
                      A                      A                      A
 Frequencies --    839.1026               874.2001               902.9710
 Red. masses --      1.5380                 1.6768                 1.4675
 Frc consts  --      0.6380                 0.7550                 0.7050
 IR Inten    --     27.9027                92.3091               150.8197

                     13                     14                     15
                      A                      A                      A
 Frequencies --   1007.9796              1026.3464              1044.8085
 Red. masses --      1.9469                 1.8985                 1.3663
 Frc consts  --      1.1654                 1.1783                 0.8787
 IR Inten    --     16.9291                30.6758                 2.0581

                     16                     17                     18
                      A                      A                      A
 Frequencies --   1080.0107              1114.0426              1249.4007
 Red. masses --      1.7319                 2.0385                 1.5316
 Frc consts  --      1.1902                 1.4906                 1.4086
 IR Inten    --      4.8369                37.3622                 1.9226

                     19                     20                     21
                      A                      A                      A
 Frequencies --   1262.3251              1322.1931              1351.7927
 Red. masses --      1.3676                 1.3262                 1.2599
 Frc consts  --      1.2839                 1.3660                 1.3564
 IR Inten    --      2.0244                 7.0516                 9.3880

                     22                     23                     24
                      A                      A                      A
 Frequencies --   1398.0371              1421.2159              1460.1005
 Red. masses --      1.3548                 1.3122                 1.4992
 Frc consts  --      1.5601                 1.5615                 1.8831
 IR Inten    --     20.6054                 0.4788                15.5015

                     25                     26                     27
                      A                      A                      A
 Frequencies --   1499.0142              1508.6609              1526.3779
 Red. masses --      1.0773                 1.0424                 1.0615
 Frc consts  --      1.4263                 1.3979                 1.4571
 IR Inten    --      0.3143                 4.4302                 6.1102

                     28                     29                     30
                      A                      A                      A
 Frequencies --   1656.8864              1671.3932              2955.1741
 Red. masses --      1.0976                 1.0961                 1.0831
 Frc consts  --      1.7753                 1.8042                 5.5730
 IR Inten    --     30.1052                22.8094                70.3398

                     31                     32                     33
                      A                      A                      A
 Frequencies --   3027.4987              3043.6206              3066.9379
 Red. masses --      1.0614                 1.0401                 1.0996
 Frc consts  --      5.7319                 5.6769                 6.0939
 IR Inten    --     35.9335                26.8754                31.3620

                     34                     35                     36
                      A                      A                      A
 Frequencies --   3107.5915              3140.0142              3465.8452
 Red. masses --      1.1008                 1.1010                 1.0497
 Frc consts  --      6.2633                 6.3960                 7.4288
 IR Inten    --     47.6852                21.1113                 4.5440

                     37                     38                     39
                      A                      A                      A
 Frequencies --   3474.4115              3553.0997              3560.7791
 Red. masses --      1.0492                 1.0921                 1.0919
 Frc consts  --      7.4623                 8.1235                 8.1568
 IR Inten    --      1.2982                 2.4049                 0.7834

 - Thermochemistry -
 -------------------
 Temperature   298.150 Kelvin.  Pressure   1.00000 Atm.
 Atom     1 has atomic number  6 and mass  12.00000

 Molecular mass:    74.08440 amu.
 Principal axes and moments of inertia in atomic units:
                           1         2         3
     Eigenvalues --   228.50508 519.36201 676.85716
           X            0.99993  -0.00957  -0.00686
           Y            0.00950   0.99991  -0.00898
           Z            0.00694   0.00891   0.99994
 This molecule is an asymmetric top.
 Rotational symmetry number  1.
 Rotational temperatures (Kelvin)      0.37905     0.16677     0.12796
 Rotational constants (GHZ):           7.89804     3.47492     2.66635
 Zero-point vibrational energy     364735.5 (Joules/Mol)
                                   87.17389 (Kcal/Mol)
 Warning -- explicit consideration of   8 degrees of freedom as
           vibrations may cause significant error
 Vibrational temperatures:    165.75   323.81   375.17   395.17   433.76
          (Kelvin)            601.79   666.61   750.36  1132.20  1207.28
                             1257.78  1299.17  1450.26  1476.68  1503.24
                             1553.89  1602.86  1797.61  1816.20  1902.34
                             1944.93  2011.46  2044.81  2100.76  2156.74
                             2170.62  2196.11  2383.89  2404.76  4251.83
                             4355.89  4379.09  4412.63  4471.13  4517.77
                             4986.57  4998.90  5112.11  5123.16

 Zero-point correction=                           0.138920 (Hartree/Particle)
 Thermal correction to Energy=                    0.145576
 Thermal correction to Enthalpy=                  0.146520
 Thermal correction to Gibbs Free Energy=         0.109471
 Sum of electronic and zero-point Energies=           -229.715878
 Sum of electronic and thermal Energies=              -229.709222
 Sum of electronic and thermal Enthalpies=            -229.708278
 Sum of electronic and thermal Free Energies=         -229.745327

                     E (Thermal)             CV                S
                      KCal/Mol        Cal/Mol-Kelvin    Cal/Mol-Kelvin
 Total                   91.350             23.905             77.977
 Electronic               0.000              0.000              0.000
 Translational            0.889              2.981             38.824
 Rotational               0.889              2.981             25.888
 Vibrational             89.573             17.943             13.265
 Vibration     1          0.608              1.937              3.179
 Vibration     2          0.650              1.803              1.918
 Vibration     3          0.669              1.745              1.657
 Vibration     4          0.677              1.720              1.567
 Vibration     5          0.693              1.671              1.409
 Vibration     6          0.781              1.431              0.898
 Vibration     7          0.821              1.331              0.757
 Vibration     8          0.877              1.202              0.606

 Optimization completed.
    -- Stationary point found.

 1\1\GINC-FN8\Freq\RB3LYP\6-31G(d,p)\C3H10N2\LIUJ201281\22-Jul-2021\0\\
 #P Geom=AllCheck Guess=TCheck SCRF=Check GenChk RB3LYP/6-31G(d,p) Freq
 \\Frag_62\\0,1\C,2.0639,0.0342,0.1309\C,0.7601,-0.6399,-0.298\C,-0.491
 6,0.0046,0.3135\N,-0.6092,1.3892,-0.1288\N,-1.6709,-0.7859,-0.0859\H,2
 .9265,-0.4291,-0.3585\H,2.2141,-0.0459,1.2139\H,2.0453,1.0965,-0.1239\
 H,0.7787,-1.7021,-0.0184\H,0.6537,-0.6124,-1.3902\H,-0.3571,0.0453,1.4
 09\H,-0.9098,1.3821,-1.1032\H,-1.3439,1.8627,0.3925\H,-1.5497,-1.761,0
 .1851\H,-2.4918,-0.453,0.4173\\Version=ES64L-G09RevD.01\State=1-A\HF=-

 Normal termination of Gaussian 09 at Thu Jul 22 20:09:24 2021.
