 Gaussian 09, Revision E.01,
 Gaussian 09:  ES64L-G09RevE.01 30-Nov-2015

 ----------------------------
 #P OPT Freq B3LYP/6-31G(d,p)
 ----------------------------

 ---------
 Frag_1056
 ---------
 Symbolic Z-matrix:
 Charge =  0 Multiplicity = 1

 SCF Done:  E(RB3LYP) =  -301.567938933     A.U. after   13 cycles
 SCF Done:  E(RB3LYP) =  -301.568056618     A.U. after   11 cycles
 SCF Done:  E(RB3LYP) =  -301.568076552     A.U. after   10 cycles
 SCF Done:  E(RB3LYP) =  -301.568079902     A.U. after    9 cycles
 SCF Done:  E(RB3LYP) =  -301.568080559     A.U. after    8 cycles
 Optimization completed.
    -- Stationary point found.
 Normal termination of Gaussian 09 at Thu Sep  8 14:51:26 2022.

 ----------------------------------------------------------------------
 #P Geom=AllCheck Guess=TCheck SCRF=Check GenChk RB3LYP/6-31G(d,p) Freq
 ----------------------------------------------------------------------

 Structure from the checkpoint file:  "B3LYP6-31Gdp.Frag_1056.chk"
 ---------
 Frag_1056
 ---------
 Charge =  0 Multiplicity = 1

                         Standard orientation:
 ---------------------------------------------------------------------
 Center     Atomic      Atomic             Coordinates (Angstroms)
 Number     Number       Type             X           Y           Z
 ---------------------------------------------------------------------
      1          7           0        1.603894   -0.753847   -0.050247
      2          6           0        0.437945   -0.015562    0.308775
      3          7           0        0.480487    1.349115   -0.187884
      4          8           0       -0.646793   -0.701390   -0.343400
      5          8           0       -1.873663   -0.012541    0.049205
      6          1           0        2.067149   -0.324095   -0.843065
      7          1           0        2.243870   -0.900367    0.717865
      8          1           0        0.267889   -0.101713    1.397205
      9          1           0       -0.451997    1.752139   -0.122900
     10          1           0        1.092645    1.905459    0.405213
     11          1           0       -2.274253   -0.693485    0.613508
 ---------------------------------------------------------------------

 SCF Done:  E(RB3LYP) =  -301.568080559     A.U. after    1 cycles

 The electronic state is 1-A.
 Alpha  occ. eigenvalues --  -19.19702 -19.19214 -14.32233 -14.31412 -10.28761
 Alpha  occ. eigenvalues --   -1.10739  -0.94644  -0.86304  -0.84501  -0.62019
 Alpha  occ. eigenvalues --   -0.53259  -0.51688  -0.49836  -0.45644  -0.43507
 Alpha  occ. eigenvalues --   -0.41974  -0.37630  -0.29993  -0.26865  -0.26252
 Alpha  occ. eigenvalues --   -0.23894
 Alpha virt. eigenvalues --    0.02982   0.07236   0.10251   0.12125   0.13427
 Alpha virt. eigenvalues --    0.16091   0.18257   0.20264   0.27206   0.30953
 Alpha virt. eigenvalues --    0.54645   0.56852   0.63406   0.66512   0.69218

 Mulliken charges:
               1
     1  N   -0.585511
     2  C    0.424186
     3  N   -0.600369
     4  O   -0.286829
     5  O   -0.344904
     6  H    0.260161
     7  H    0.248593
     8  H    0.058848
     9  H    0.262261
    10  H    0.230029
    11  H    0.333536
 Sum of Mulliken charges =  -0.00000

 Dipole moment (field-independent basis, Debye):
    X=              1.0080    Y=              0.8240    Z=              3.1444  Tot=              3.4033
 Quadrupole moment (field-independent basis, Debye-Ang):
   XX=            -23.0574   YY=            -30.0984   ZZ=            -29.4444
   XY=              2.0813   XZ=             -1.0789   YZ=             -0.1873

  Exact polarizability:  45.230  -2.134  32.332  -1.443  -1.320  27.974
 Approx polarizability:  59.699  -5.730  44.403  -2.319  -0.807  39.457

                      1                      2                      3
                      A                      A                      A
 Frequencies --    127.1672               207.1559               232.5211
 Red. masses --      2.4346                 1.2838                 1.2004
 Frc consts  --      0.0232                 0.0325                 0.0382
 IR Inten    --     14.1619                34.1430                95.6684

                      4                      5                      6
                      A                      A                      A
 Frequencies --    295.9470               306.5599               443.5625
 Red. masses --      1.1241                 5.0513                 2.6733
 Frc consts  --      0.0580                 0.2797                 0.3099
 IR Inten    --     59.9894                 1.7537                36.0953

                      7                      8                      9
                      A                      A                      A
 Frequencies --    524.9920               584.0919               669.2061
 Red. masses --      4.0044                 3.2233                 1.4942
 Frc consts  --      0.6503                 0.6479                 0.3943
 IR Inten    --     28.4999                 5.4472               181.6647

                     10                     11                     12
                      A                      A                      A
 Frequencies --    892.2371               914.8540               942.3682
 Red. masses --      1.5424                 3.3804                 3.8311
 Frc consts  --      0.7235                 1.6669                 2.0046
 IR Inten    --    115.9596                64.5079                38.1604

                     13                     14                     15
                      A                      A                      A
 Frequencies --   1032.9035              1146.7605              1238.4170
 Red. masses --      2.7063                 2.1720                 1.4674
 Frc consts  --      1.7012                 1.6829                 1.3260
 IR Inten    --     75.0331                50.6483                21.7448

                     16                     17                     18
                      A                      A                      A
 Frequencies --   1280.0206              1349.4705              1391.3156
 Red. masses --      1.5819                 1.1367                 1.2411
 Frc consts  --      1.5270                 1.2197                 1.4155
 IR Inten    --     35.4862                32.3524                65.4673

                     19                     20                     21
                      A                      A                      A
 Frequencies --   1447.8650              1647.9794              1653.8757
 Red. masses --      1.4790                 1.1247                 1.1061
 Frc consts  --      1.8268                 1.7997                 1.7825
 IR Inten    --     63.8552                27.1318                50.0373

                     22                     23                     24
                      A                      A                      A
 Frequencies --   2947.4233              3491.5624              3552.9341
 Red. masses --      1.0839                 1.0495                 1.0491
 Frc consts  --      5.5479                 7.5381                 7.8023
 IR Inten    --    112.6598                 3.3631                 7.4028

                     25                     26                     27
                      A                      A                      A
 Frequencies --   3579.7565              3668.2239              3759.2030
 Red. masses --      1.0919                 1.0962                 1.0687
 Frc consts  --      8.2441                 8.6904                 8.8981
 IR Inten    --      2.5258                11.4194                26.7042

 - Thermochemistry -
 -------------------
 Temperature   298.150 Kelvin.  Pressure   1.00000 Atm.
 Atom     1 has atomic number  7 and mass  14.00307

 Molecular mass:    78.04293 amu.
 Principal axes and moments of inertia in atomic units:
                           1         2         3
     Eigenvalues --   202.67827 455.91032 606.47176
           X            0.99998   0.00294  -0.00504
           Y           -0.00298   0.99996  -0.00796
           Z            0.00502   0.00797   0.99996
 This molecule is an asymmetric top.
 Rotational symmetry number  1.
 Rotational temperatures (Kelvin)      0.42735     0.18998     0.14282
 Rotational constants (GHZ):           8.90446     3.95854     2.97580
 Zero-point vibrational energy     235235.9 (Joules/Mol)
                                   56.22273 (Kcal/Mol)
 Warning -- explicit consideration of   8 degrees of freedom as
           vibrations may cause significant error
 Vibrational temperatures:    182.97   298.05   334.55   425.80   441.07
          (Kelvin)            638.19   755.35   840.38   962.84  1283.73
                             1316.27  1355.86  1486.12  1649.93  1781.80
                             1841.66  1941.58  2001.79  2083.15  2371.07
                             2379.56  4240.68  5023.57  5111.87  5150.46
                             5277.75  5408.65

 Zero-point correction=                           0.089597 (Hartree/Particle)
 Thermal correction to Energy=                    0.096042
 Thermal correction to Enthalpy=                  0.096986
 Thermal correction to Gibbs Free Energy=         0.060333
 Sum of electronic and zero-point Energies=           -301.478484
 Sum of electronic and thermal Energies=              -301.472038
 Sum of electronic and thermal Enthalpies=            -301.471094
 Sum of electronic and thermal Free Energies=         -301.507747

                     E (Thermal)             CV                S
                      KCal/Mol        Cal/Mol-Kelvin    Cal/Mol-Kelvin
 Total                   60.267             22.148             77.143
 Electronic               0.000              0.000              0.000
 Translational            0.889              2.981             38.979
 Rotational               0.889              2.981             25.530
 Vibrational             58.490             16.186             12.633
 Vibration     1          0.611              1.926              2.988
 Vibration     2          0.641              1.830              2.069
 Vibration     3          0.653              1.791              1.859
 Vibration     4          0.690              1.681              1.440
 Vibration     5          0.697              1.661              1.381
 Vibration     6          0.803              1.375              0.815
 Vibration     7          0.880              1.195              0.598
 Vibration     8          0.941              1.066              0.478

 Normal termination of Gaussian 09 at Thu Sep  8 14:51:33 2022.
