 Gaussian 09, Revision D.01,
 Gaussian 09:  ES64L-G09RevD.01 24-Apr-2013

 -------------------------
 #P OPT Freq B3LYP/6-31G**
 -------------------------

 -------
 Frag_10
 -------
 Symbolic Z-matrix:
 Charge =  0 Multiplicity = 1

 SCF Done:  E(RB3LYP) =  -248.292597012     A.U. after   14 cycles
 Optimization completed.
    -- Stationary point found.

 1\1\GINC-FN17\FOpt\RB3LYP\6-31G(d,p)\C5H5N1\LIUJ201281\23-Jul-2021\0\\
 #P OPT Freq B3LYP/6-31G**\\Frag_10\\0,1\C,1.171,0.7403,0.\C,1.2092,-0.
 6534,0.\C,0.,-1.3515,0.\N,-1.2006,-0.759,0.\C,-1.2208,0.5797,0.\C,-0.0
 716,1.3726,0.\H,2.0891,1.3207,0.\H,2.1522,-1.1915,0.\H,-0.0044,-2.4402
 ,0.\H,-2.2062,1.0427,0.\H,-0.1531,2.4552,0.\\Version=ES64L-G09RevD.01\
 State=1-A'\HF=-248.292597\RMSD=2.486e-09\RMSF=1.458e-04\Dipole=0.72573
 25,0.4587542,0.\Quadrupole=0.0230555,2.1295183,-2.1525738,-2.2170197,0
 .,0.\PG=CS [SG(C5H5N1)]\\@

 Normal termination of Gaussian 09 at Fri Jul 23 01:27:07 2021.

 ----------------------------------------------------------------------
 #P Geom=AllCheck Guess=TCheck SCRF=Check GenChk RB3LYP/6-31G(d,p) Freq
 ----------------------------------------------------------------------

 Structure from the checkpoint file:  "/vol2/users/liuj201281/HOFBenchmark/IsodesmicSplit/Sample60/Ring26/Running/Gau-508213.chk"
 -------
 Frag_10
 -------
 Charge =  0 Multiplicity = 1

                         Standard orientation:
 ---------------------------------------------------------------------
 Center     Atomic      Atomic             Coordinates (Angstroms)
 Number     Number       Type             X           Y           Z
 ---------------------------------------------------------------------
      1          6           0        1.171026   -0.740248    0.000000
      2          6           0       -0.071560   -1.372577    0.000000
      3          6           0       -1.220855   -0.579716    0.000000
      4          7           0       -1.200624    0.758972    0.000000
      5          6           0        0.000000    1.351449    0.000000
      6          6           0        1.209195    0.653452    0.000000
      7          1           0        2.089134   -1.320636    0.000000
      8          1           0       -0.153146   -2.455233    0.000000
      9          1           0       -2.206199   -1.042734    0.000000
     10          1           0       -0.004441    2.440192    0.000000
     11          1           0        2.152181    1.191450    0.000000
 ---------------------------------------------------------------------

 SCF Done:  E(RB3LYP) =  -248.292597012     A.U. after    1 cycles

 The electronic state is 1-A'.
 Alpha  occ. eigenvalues --  -14.32878 -10.22244 -10.22243 -10.21029 -10.20033
 Alpha  occ. eigenvalues --  -10.20031  -0.93812  -0.80280  -0.75970  -0.62798
 Alpha  occ. eigenvalues --   -0.62659  -0.52693  -0.47685  -0.47043  -0.42772
 Alpha  occ. eigenvalues --   -0.40280  -0.39473  -0.36322  -0.28627  -0.26182
 Alpha  occ. eigenvalues --   -0.25238
 Alpha virt. eigenvalues --   -0.02306  -0.01039   0.09324   0.13797   0.14506
 Alpha virt. eigenvalues --    0.15446   0.17548   0.17660   0.23973   0.29327
 Alpha virt. eigenvalues --    0.31918   0.31976   0.45213   0.45630   0.51522

 Mulliken charges:
               1
     1  C   -0.058133
     2  C   -0.093564
     3  C    0.093970
     4  N   -0.428211
     5  C    0.093899
     6  C   -0.093480
     7  H    0.100064
     8  H    0.093031
     9  H    0.099702
    10  H    0.099697
    11  H    0.093025
 Sum of Mulliken charges =   0.00000

 Dipole moment (field-independent basis, Debye):
    X=              1.8446    Y=             -1.1661    Z=              0.0000  Tot=              2.1823
 Quadrupole moment (field-independent basis, Debye-Ang):
   XX=            -33.8811   YY=            -31.0500   ZZ=            -36.8085
   XY=              2.9825   XZ=              0.0000   YZ=              0.0000

  Exact polarizability:  64.416   2.825  67.098   0.000   0.000  21.105
 Approx polarizability: 110.997   1.872 112.771   0.000   0.000  31.739

                      1                      2                      3
                     A"                     A"                     A'
 Frequencies --    386.1217               420.2726               612.9624
 Red. masses --      2.5686                 3.7973                 7.1424
 Frc consts  --      0.2256                 0.3952                 1.5811
 IR Inten    --      0.0006                 3.4683                 4.2888

                      4                      5                      6
                     A'                     A"                     A"
 Frequencies --    669.7287               719.6389               763.5788
 Red. masses --      6.3458                 1.4457                 2.1914
 Frc consts  --      1.6770                 0.4411                 0.7528
 IR Inten    --      0.3361                42.1291                 7.2217

                      7                      8                      9
                     A"                     A"                     A"
 Frequencies --    899.8257               957.7752               996.9655
 Red. masses --      1.2473                 1.3236                 1.4662
 Frc consts  --      0.5950                 0.7154                 0.8586
 IR Inten    --      0.0002                 0.0112                 0.0001

                     10                     11                     12
                     A'                     A"                     A'
 Frequencies --   1011.0476              1012.5409              1049.4542
 Red. masses --      7.1239                 1.2798                 4.8595
 Frc consts  --      4.2905                 0.7731                 3.1533
 IR Inten    --      7.4418                 0.0003                 4.4818

                     13                     14                     15
                     A'                     A'                     A'
 Frequencies --   1083.4554              1098.3783              1175.9957
 Red. masses --      1.7619                 1.6801                 1.1300
 Frc consts  --      1.2186                 1.1942                 0.9208
 IR Inten    --      0.2293                 3.1929                 1.7284

                     16                     17                     18
                     A'                     A'                     A'
 Frequencies --   1248.6037              1307.7958              1390.9467
 Red. masses --      1.2840                 7.4909                 1.2000
 Frc consts  --      1.1794                 7.5486                 1.3679
 IR Inten    --      2.8995                 0.1198                 0.0182

                     19                     20                     21
                     A'                     A'                     A'
 Frequencies --   1482.2243              1524.5947              1635.6549
 Red. masses --      2.0959                 1.9693                 5.6090
 Frc consts  --      2.7130                 2.6969                 8.8413
 IR Inten    --     25.4869                 3.0769                 8.9245

                     22                     23                     24
                     A'                     A'                     A'
 Frequencies --   1640.2522              3162.0586              3164.5387
 Red. masses --      5.0828                 1.0874                 1.0904
 Frc consts  --      8.0571                 6.4062                 6.4336
 IR Inten    --     22.8623                31.4972                10.8844

                     25                     26                     27
                     A'                     A'                     A'
 Frequencies --   3187.5952              3202.0216              3210.7955
 Red. masses --      1.0887                 1.0936                 1.0992
 Frc consts  --      6.5173                 6.6061                 6.6768
 IR Inten    --      6.7279                30.1029                 7.9978

 - Thermochemistry -
 -------------------
 Temperature   298.150 Kelvin.  Pressure   1.00000 Atm.
 Atom     1 has atomic number  6 and mass  12.00000

 Molecular mass:    79.04220 amu.
 Principal axes and moments of inertia in atomic units:
                           1         2         3
     Eigenvalues --   298.98736 310.78012 609.76748
           X            0.84553   0.53392   0.00000
           Y           -0.53392   0.84553   0.00000
           Z            0.00000   0.00000   1.00000
 This molecule is an asymmetric top.
 Rotational symmetry number  1.
 Rotational temperatures (Kelvin)      0.28969     0.27870     0.14204
 Rotational constants (GHZ):           6.03618     5.80713     2.95972
 Zero-point vibrational energy     233360.5 (Joules/Mol)
                                   55.77449 (Kcal/Mol)
 Warning -- explicit consideration of   3 degrees of freedom as
           vibrations may cause significant error
 Vibrational temperatures:    555.54   604.68   881.92   963.59  1035.40
          (Kelvin)           1098.62  1294.65  1378.02  1434.41  1454.67
                             1456.82  1509.93  1558.85  1580.32  1691.99
                             1796.46  1881.62  2001.26  2132.59  2193.55
                             2353.34  2359.95  4549.49  4553.06  4586.23
                             4606.99  4619.61

 Zero-point correction=                           0.088882 (Hartree/Particle)
 Thermal correction to Energy=                    0.093154
 Thermal correction to Enthalpy=                  0.094098
 Thermal correction to Gibbs Free Energy=         0.061481
 Sum of electronic and zero-point Energies=           -248.203715
 Sum of electronic and thermal Energies=              -248.199443
 Sum of electronic and thermal Enthalpies=            -248.198499
 Sum of electronic and thermal Free Energies=         -248.231116

                     E (Thermal)             CV                S
                      KCal/Mol        Cal/Mol-Kelvin    Cal/Mol-Kelvin
 Total                   58.455             16.113             68.650
 Electronic               0.000              0.000              0.000
 Translational            0.889              2.981             39.017
 Rotational               0.889              2.981             25.541
 Vibrational             56.678             10.151              4.091
 Vibration     1          0.755              1.500              1.015
 Vibration     2          0.783              1.426              0.891
 Vibration     3          0.972              1.004              0.428

 Optimization completed.
    -- Stationary point found.

 1\1\GINC-FN17\Freq\RB3LYP\6-31G(d,p)\C5H5N1\LIUJ201281\23-Jul-2021\0\\
 #P Geom=AllCheck Guess=TCheck SCRF=Check GenChk RB3LYP/6-31G(d,p) Freq
 \\Frag_10\\0,1\C,1.171,0.7403,0.\C,1.2092,-0.6534,0.\C,0.,-1.3515,0.\N
 ,-1.2006,-0.759,0.\C,-1.2208,0.5797,0.\C,-0.0716,1.3726,0.\H,2.0891,1.
 3207,0.\H,2.1522,-1.1915,0.\H,-0.0044,-2.4402,0.\H,-2.2062,1.0427,0.\H
 ,-0.1531,2.4552,0.\\Version=ES64L-G09RevD.01\State=1-A'\HF=-248.292597
 \RMSD=1.171e-09\RMSF=1.458e-04\ZeroPoint=0.0888823\Thermal=0.0931543\D
 ipole=0.7257323,0.4587547,0.\DipoleDeriv=0.1832626,0.0361932,0.,0.0360

 Normal termination of Gaussian 09 at Fri Jul 23 01:27:18 2021.
