 Gaussian 09, Revision E.01,
 Gaussian 09:  ES64L-G09RevE.01 30-Nov-2015

 ----------------------------
 #P OPT Freq B3LYP/6-31G(d,p)
 ----------------------------

 --------
 Frag_459
 --------
 Symbolic Z-matrix:
 Charge =  0 Multiplicity = 1

 SCF Done:  E(RB3LYP) =  -364.264472785     A.U. after   13 cycles
 SCF Done:  E(RB3LYP) =  -364.264502275     A.U. after   10 cycles
 SCF Done:  E(RB3LYP) =  -364.264461582     A.U. after   10 cycles
 SCF Done:  E(RB3LYP) =  -364.264537329     A.U. after   10 cycles
 SCF Done:  E(RB3LYP) =  -364.264538540     A.U. after    7 cycles
 SCF Done:  E(RB3LYP) =  -364.264539096     A.U. after    7 cycles
 Optimization completed.
    -- Stationary point found.
 Normal termination of Gaussian 09 at Thu Sep  8 15:03:42 2022.

 ----------------------------------------------------------------------
 #P Geom=AllCheck Guess=TCheck SCRF=Check GenChk RB3LYP/6-31G(d,p) Freq
 ----------------------------------------------------------------------

 Structure from the checkpoint file:  "B3LYP6-31Gdp.Frag_459.chk"
 --------
 Frag_459
 --------
 Charge =  0 Multiplicity = 1

                         Standard orientation:
 ---------------------------------------------------------------------
 Center     Atomic      Atomic             Coordinates (Angstroms)
 Number     Number       Type             X           Y           Z
 ---------------------------------------------------------------------
      1          6           0       -1.714238    1.131291    0.044775
      2          6           0       -0.851021   -0.006384   -0.479449
      3          8           0       -1.436773   -1.226504   -0.032760
      4          6           0        0.626488    0.022671   -0.000833
      5          6           0        1.393228    1.256880   -0.474249
      6          7           0        0.771325   -0.139285    1.440294
      7          8           0        1.180773   -1.157641   -0.610315
      8          1           0       -2.753070    0.963522   -0.250352
      9          1           0       -1.394883    2.096515   -0.357857
     10          1           0       -1.678145    1.174881    1.138053
     11          1           0       -0.835607    0.024558   -1.581089
     12          1           0       -0.809936   -1.912203   -0.314765
     13          1           0        0.987333    2.179750   -0.047982
     14          1           0        1.351019    1.328819   -1.563938
     15          1           0        2.442324    1.174045   -0.175161
     16          1           0        0.694610    0.751585    1.922467
     17          1           0        0.016171   -0.738762    1.772002
     18          1           0        1.902172   -1.421298   -0.020302
 ---------------------------------------------------------------------

 SCF Done:  E(RB3LYP) =  -364.264539096     A.U. after    1 cycles

 The electronic state is 1-A.
 Alpha  occ. eigenvalues --  -19.14433 -19.13593 -14.31998 -10.26442 -10.22949
 Alpha  occ. eigenvalues --  -10.18018 -10.17667  -1.03622  -1.00113  -0.87741
 Alpha  occ. eigenvalues --   -0.76131  -0.72055  -0.64080  -0.56387  -0.52175
 Alpha  occ. eigenvalues --   -0.49802  -0.48585  -0.46588  -0.42927  -0.40089
 Alpha  occ. eigenvalues --   -0.39008  -0.38463  -0.37510  -0.36663  -0.35037
 Alpha  occ. eigenvalues --   -0.32244  -0.28270  -0.27323  -0.24448
 Alpha virt. eigenvalues --    0.06752   0.10450   0.11731   0.12402   0.13464
 Alpha virt. eigenvalues --    0.14806   0.15845   0.17196   0.17326   0.19577
 Alpha virt. eigenvalues --    0.21114   0.21873   0.23123   0.25043   0.25352

 Mulliken charges:
               1
     1  C   -0.319195
     2  C    0.187017
     3  O   -0.559839
     4  C    0.341291
     5  C   -0.319496
     6  N   -0.608879
     7  O   -0.565679
     8  H    0.123461
     9  H    0.102565
    10  H    0.094902
    11  H    0.081832
    12  H    0.313635
    13  H    0.098196
    14  H    0.118509
    15  H    0.111036
    16  H    0.240839
    17  H    0.250220
    18  H    0.309586
 Sum of Mulliken charges =  -0.00000

 Dipole moment (field-independent basis, Debye):
    X=              0.8287    Y=              1.3669    Z=              0.5932  Tot=              1.7050
 Quadrupole moment (field-independent basis, Debye-Ang):
   XX=            -46.0660   YY=            -41.3594   ZZ=            -43.5522
   XY=             -1.8597   XZ=              0.3204   YZ=              0.0292

  Exact polarizability:  59.512  -1.109  58.442  -0.212  -0.035  54.184
 Approx polarizability:  77.257  -0.958  81.183  -0.404   1.338  78.523

                      1                      2                      3
                      A                      A                      A
 Frequencies --    116.6601               216.6071               237.8319
 Red. masses --      3.2040                 1.1107                 1.5550
 Frc consts  --      0.0257                 0.0307                 0.0518
 IR Inten    --      2.4277                 1.0008                 0.2712

                      4                      5                      6
                      A                      A                      A
 Frequencies --    262.5214               279.5276               311.3090
 Red. masses --      1.5191                 3.0404                 1.1154
 Frc consts  --      0.0617                 0.1400                 0.0637
 IR Inten    --      2.9108                 4.0732                39.4557

                      7                      8                      9
                      A                      A                      A
 Frequencies --    358.0189               364.2133               406.4809
 Red. masses --      3.5460                 2.2324                 2.3395
 Frc consts  --      0.2678                 0.1745                 0.2277
 IR Inten    --     18.3196                11.7610                 9.7591

                     10                     11                     12
                      A                      A                      A
 Frequencies --    446.5841               517.3513               532.6948
 Red. masses --      1.8466                 1.8449                 2.5920
 Frc consts  --      0.2170                 0.2909                 0.4333
 IR Inten    --     28.9128                64.1724                33.4372

                     13                     14                     15
                      A                      A                      A
 Frequencies --    588.3834               621.6352               753.1485
 Red. masses --      1.4115                 2.2354                 2.7524
 Frc consts  --      0.2879                 0.5089                 0.9199
 IR Inten    --     75.2116                23.9986                 6.0919

                     16                     17                     18
                      A                      A                      A
 Frequencies --    874.8594               897.7219               936.6043
 Red. masses --      1.9329                 2.3507                 1.8399
 Frc consts  --      0.8716                 1.1162                 0.9510
 IR Inten    --    119.0136                55.0145                18.9761

                     19                     20                     21
                      A                      A                      A
 Frequencies --    979.0311              1013.7489              1049.4948
 Red. masses --      1.3941                 1.4751                 2.2216
 Frc consts  --      0.7873                 0.8932                 1.4417
 IR Inten    --     39.4935                 3.3387               107.3444

                     22                     23                     24
                      A                      A                      A
 Frequencies --   1085.8694              1123.7301              1160.3603
 Red. masses --      1.7157                 1.5604                 2.4793
 Frc consts  --      1.1919                 1.1610                 1.9668
 IR Inten    --     24.0866                88.5179                26.0001

                     25                     26                     27
                      A                      A                      A
 Frequencies --   1208.7337              1309.3095              1334.7069
 Red. masses --      2.5176                 1.1893                 1.6037
 Frc consts  --      2.1672                 1.2012                 1.6832
 IR Inten    --     28.5238                88.4518                14.7338

                     28                     29                     30
                      A                      A                      A
 Frequencies --   1370.0399              1384.9792              1407.5976
 Red. masses --      1.7297                 1.4364                 1.2829
 Frc consts  --      1.9129                 1.6234                 1.4976
 IR Inten    --     61.1172                 5.5931                 6.3090

                     31                     32                     33
                      A                      A                      A
 Frequencies --   1424.3725              1451.5639              1501.0501
 Red. masses --      1.3653                 1.5654                 1.0556
 Frc consts  --      1.6320                 1.9433                 1.4013
 IR Inten    --     17.9848                32.6088                 5.9807

                     34                     35                     36
                      A                      A                      A
 Frequencies --   1503.8455              1510.9673              1516.4950
 Red. masses --      1.0586                 1.0642                 1.0448
 Frc consts  --      1.4106                 1.4315                 1.4157
 IR Inten    --      3.0232                 0.3717                 2.3401

                     37                     38                     39
                      A                      A                      A
 Frequencies --   1660.6607              2987.7613              3052.2851
 Red. masses --      1.1120                 1.0840                 1.0359
 Frc consts  --      1.8069                 5.7013                 5.6860
 IR Inten    --     38.0184                50.5858                 9.0385

                     40                     41                     42
                      A                      A                      A
 Frequencies --   3056.4386              3123.6753              3129.2965
 Red. masses --      1.0361                 1.1023                 1.1012
 Frc consts  --      5.7029                 6.3371                 6.3533
 IR Inten    --     18.0244                28.2006                27.5481

                     43                     44                     45
                      A                      A                      A
 Frequencies --   3139.0921              3140.5494              3483.4430
 Red. masses --      1.1026                 1.1027                 1.0508
 Frc consts  --      6.4015                 6.4077                 7.5128
 IR Inten    --     12.3678                22.6709                 3.5184

                     46                     47                     48
                      A                      A                      A
 Frequencies --   3587.2203              3752.1034              3790.0480
 Red. masses --      1.0911                 1.0646                 1.0652
 Frc consts  --      8.2724                 8.8305                 9.0152
 IR Inten    --      4.2768                41.3014                30.0321

 - Thermochemistry -
 -------------------
 Temperature   298.150 Kelvin.  Pressure   1.00000 Atm.
 Atom     1 has atomic number  6 and mass  12.00000

 Molecular mass:   105.07898 amu.
 Principal axes and moments of inertia in atomic units:
                           1         2         3
     Eigenvalues --   554.67142 772.71373 941.91025
           X            0.99973  -0.02294  -0.00346
           Y            0.02284   0.99938  -0.02677
           Z            0.00407   0.02668   0.99964
 This molecule is an asymmetric top.
 Rotational symmetry number  1.
 Warning -- assumption of classical behavior for rotation
           may cause significant error
 Rotational temperatures (Kelvin)      0.15615     0.11209     0.09196
 Rotational constants (GHZ):           3.25371     2.33559     1.91604
 Zero-point vibrational energy     418457.4 (Joules/Mol)
                                  100.01373 (Kcal/Mol)
 Warning -- explicit consideration of  13 degrees of freedom as
           vibrations may cause significant error
 Vibrational temperatures:    167.85   311.65   342.19   377.71   402.18
          (Kelvin)            447.90   515.11   524.02   584.83   642.53
                              744.35   766.43   846.55   894.39  1083.61
                             1258.73  1291.62  1347.56  1408.61  1458.56
                             1509.99  1562.32  1616.79  1669.50  1739.10
                             1883.80  1920.34  1971.18  1992.67  2025.22
                             2049.35  2088.47  2159.67  2163.70  2173.94
                             2181.90  2389.32  4298.72  4391.55  4397.53
                             4494.27  4502.35  4516.45  4518.54  5011.89
                             5161.20  5398.43  5453.03

 Zero-point correction=                           0.159382 (Hartree/Particle)
 Thermal correction to Energy=                    0.167796
 Thermal correction to Enthalpy=                  0.168741
 Thermal correction to Gibbs Free Energy=         0.127761
 Sum of electronic and zero-point Energies=           -364.105157
 Sum of electronic and thermal Energies=              -364.096743
 Sum of electronic and thermal Enthalpies=            -364.095798
 Sum of electronic and thermal Free Energies=         -364.136778

                     E (Thermal)             CV                S
                      KCal/Mol        Cal/Mol-Kelvin    Cal/Mol-Kelvin
 Total                  105.294             32.385             86.250
 Electronic               0.000              0.000              0.000
 Translational            0.889              2.981             39.866
 Rotational               0.889              2.981             27.492
 Vibrational            103.516             26.423             18.891
 Vibration     1          0.608              1.936              3.155
 Vibration     2          0.645              1.816              1.987
 Vibration     3          0.656              1.783              1.819
 Vibration     4          0.670              1.741              1.645
 Vibration     5          0.680              1.711              1.537
 Vibration     6          0.700              1.652              1.355
 Vibration     7          0.733              1.559              1.131
 Vibration     8          0.738              1.546              1.104
 Vibration     9          0.771              1.456              0.939
 Vibration    10          0.806              1.368              0.806
 Vibration    11          0.872              1.212              0.616
 Vibration    12          0.888              1.178              0.581
 Vibration    13          0.946              1.057              0.470

 Normal termination of Gaussian 09 at Thu Sep  8 15:03:59 2022.
