 Gaussian 09, Revision E.01,
 Gaussian 09:  ES64L-G09RevE.01 30-Nov-2015

 ----------------------------
 #P OPT Freq B3LYP/6-31G(d,p)
 ----------------------------

 --------
 Frag_926
 --------
 Symbolic Z-matrix:
 Charge =  0 Multiplicity = 1

 SCF Done:  E(RB3LYP) =  -340.521751115     A.U. after   12 cycles
 SCF Done:  E(RB3LYP) =  -340.521778218     A.U. after   10 cycles
 SCF Done:  E(RB3LYP) =  -340.521780857     A.U. after    9 cycles
 SCF Done:  E(RB3LYP) =  -340.521786077     A.U. after    8 cycles
 SCF Done:  E(RB3LYP) =  -340.521786634     A.U. after    7 cycles
 Optimization completed.
    -- Stationary point found.
 Normal termination of Gaussian 09 at Thu Sep  8 15:18:53 2022.

 ----------------------------------------------------------------------
 #P Geom=AllCheck Guess=TCheck SCRF=Check GenChk RB3LYP/6-31G(d,p) Freq
 ----------------------------------------------------------------------

 Structure from the checkpoint file:  "B3LYP6-31Gdp.Frag_926.chk"
 --------
 Frag_926
 --------
 Charge =  0 Multiplicity = 1

                         Standard orientation:
 ---------------------------------------------------------------------
 Center     Atomic      Atomic             Coordinates (Angstroms)
 Number     Number       Type             X           Y           Z
 ---------------------------------------------------------------------
      1          6           0        1.649955   -1.093567    0.004117
      2          7           0        0.821008    0.033540   -0.424654
      3          7           0        1.491434    1.234404   -0.049152
      4          6           0       -0.619409   -0.040548   -0.021518
      5          6           0       -0.848004   -0.110845    1.497621
      6          7           0       -1.120668   -1.268459   -0.629751
      7          7           0       -1.357148    1.118302   -0.533265
      8          1           0        2.606511   -1.033015   -0.519342
      9          1           0        1.145851   -2.026359   -0.246809
     10          1           0        1.858593   -1.090882    1.088396
     11          1           0        1.338118    1.456486    0.941407
     12          1           0        1.109502    1.997685   -0.598820
     13          1           0       -0.385494   -1.007926    1.912019
     14          1           0       -1.919307   -0.137867    1.712868
     15          1           0       -0.434745    0.766890    2.007577
     16          1           0       -0.906827   -1.236502   -1.625765
     17          1           0       -2.134385   -1.269606   -0.543879
     18          1           0       -1.101756    1.969605   -0.037541
     19          1           0       -1.113706    1.256744   -1.513680
 ---------------------------------------------------------------------

 SCF Done:  E(RB3LYP) =  -340.521786634     A.U. after    1 cycles

 The electronic state is 1-A.
 Alpha  occ. eigenvalues --  -14.34302 -14.33891 -14.31591 -14.30927 -10.26618
 Alpha  occ. eigenvalues --  -10.18640 -10.17538  -0.97675  -0.90462  -0.83904
 Alpha  occ. eigenvalues --   -0.77371  -0.71973  -0.65000  -0.56571  -0.51721
 Alpha  occ. eigenvalues --   -0.49792  -0.48308  -0.47315  -0.44449  -0.42404
 Alpha  occ. eigenvalues --   -0.38949  -0.38638  -0.37438  -0.36938  -0.36368
 Alpha  occ. eigenvalues --   -0.26435  -0.25274  -0.23859  -0.21286
 Alpha virt. eigenvalues --    0.05737   0.10303   0.10420   0.13035   0.14173
 Alpha virt. eigenvalues --    0.14712   0.15742   0.17616   0.18837   0.19113
 Alpha virt. eigenvalues --    0.19373   0.20876   0.21955   0.23702   0.24726

 Mulliken charges:
               1
     1  C   -0.138055
     2  N   -0.337190
     3  N   -0.445577
     4  C    0.353157
     5  C   -0.305929
     6  N   -0.577497
     7  N   -0.580916
     8  H    0.114792
     9  H    0.129342
    10  H    0.072892
    11  H    0.221084
    12  H    0.237282
    13  H    0.124166
    14  H    0.116931
    15  H    0.082572
    16  H    0.237785
    17  H    0.244530
    18  H    0.220984
    19  H    0.229646
 Sum of Mulliken charges =  -0.00000

 Dipole moment (field-independent basis, Debye):
    X=             -0.8840    Y=              1.3365    Z=              0.1915  Tot=              1.6138
 Quadrupole moment (field-independent basis, Debye-Ang):
   XX=            -49.5762   YY=            -42.3443   ZZ=            -41.6044
   XY=             -0.0800   XZ=              1.8995   YZ=              0.7282

  Exact polarizability:  63.733   0.254  64.028   0.651   1.105  58.903
 Approx polarizability:  84.795   1.948  89.605   0.861   2.497  83.836

                      1                      2                      3
                      A                      A                      A
 Frequencies --    113.6311               211.5625               261.1776
 Red. masses --      2.7248                 1.0338                 1.0940
 Frc consts  --      0.0207                 0.0273                 0.0440
 IR Inten    --      0.5864                 4.6973                 6.6565

                      4                      5                      6
                      A                      A                      A
 Frequencies --    275.1500               290.8350               310.0768
 Red. masses --      2.2476                 1.4735                 1.2357
 Frc consts  --      0.1003                 0.0734                 0.0700
 IR Inten    --      0.6918                 7.6807                62.8098

                      7                      8                      9
                      A                      A                      A
 Frequencies --    321.8256               362.2274               387.7804
 Red. masses --      1.7058                 1.3874                 2.4755
 Frc consts  --      0.1041                 0.1073                 0.2193
 IR Inten    --     24.4176                 6.9267                 4.3098

                     10                     11                     12
                      A                      A                      A
 Frequencies --    422.3678               433.2286               503.6516
 Red. masses --      2.1908                 2.2200                 2.7200
 Frc consts  --      0.2303                 0.2455                 0.4065
 IR Inten    --      9.5441                30.8413                 6.0599

                     13                     14                     15
                      A                      A                      A
 Frequencies --    526.9000               550.6670               707.1701
 Red. masses --      2.6020                 2.6247                 3.7047
 Frc consts  --      0.4256                 0.4689                 1.0916
 IR Inten    --     20.8844                14.9558                34.6996

                     16                     17                     18
                      A                      A                      A
 Frequencies --    832.1410               857.8715               912.6872
 Red. masses --      1.6434                 2.5795                 1.8742
 Frc consts  --      0.6705                 1.1185                 0.9198
 IR Inten    --    185.9240               133.9757                22.2117

                     19                     20                     21
                      A                      A                      A
 Frequencies --    928.0669               981.0839               995.5430
 Red. masses --      1.6473                 1.4541                 1.4504
 Frc consts  --      0.8360                 0.8246                 0.8469
 IR Inten    --    123.0289                29.4065                 7.5994

                     22                     23                     24
                      A                      A                      A
 Frequencies --   1003.7036              1112.0086              1149.2803
 Red. masses --      2.0595                 1.4641                 1.3618
 Frc consts  --      1.2224                 1.0667                 1.0598
 IR Inten    --     40.5953                27.2522                10.9458

                     25                     26                     27
                      A                      A                      A
 Frequencies --   1191.4951              1210.9526              1252.2423
 Red. masses --      2.4226                 2.0113                 3.0097
 Frc consts  --      2.0264                 1.7378                 2.7807
 IR Inten    --     31.3925                18.8740                50.1296

                     28                     29                     30
                      A                      A                      A
 Frequencies --   1292.9880              1334.5180              1375.5432
 Red. masses --      1.9335                 1.4215                 1.6431
 Frc consts  --      1.9045                 1.4916                 1.8317
 IR Inten    --     41.8278                15.3304                 4.2499

                     31                     32                     33
                      A                      A                      A
 Frequencies --   1419.2314              1447.9409              1495.6643
 Red. masses --      1.4732                 1.1644                 1.0512
 Frc consts  --      1.7483                 1.4383                 1.3855
 IR Inten    --     30.3577                 3.2148                 1.5249

                     34                     35                     36
                      A                      A                      A
 Frequencies --   1509.4390              1511.3215              1527.9603
 Red. masses --      1.0528                 1.0587                 1.0470
 Frc consts  --      1.4133                 1.4248                 1.4401
 IR Inten    --      7.5805                 6.1538                 0.7933

                     37                     38                     39
                      A                      A                      A
 Frequencies --   1649.1321              1661.4570              1672.8063
 Red. masses --      1.0971                 1.1040                 1.0863
 Frc consts  --      1.7580                 1.7956                 1.7910
 IR Inten    --     34.0691                22.3363                 9.7312

                     40                     41                     42
                      A                      A                      A
 Frequencies --   2965.4320              3051.7589              3106.4581
 Red. masses --      1.0603                 1.0409                 1.0743
 Frc consts  --      5.4937                 5.7115                 6.1082
 IR Inten    --     73.7164                16.8504                35.3082

                     43                     44                     45
                      A                      A                      A
 Frequencies --   3120.2729              3157.5364              3172.5215
 Red. masses --      1.0964                 1.1022                 1.1022
 Frc consts  --      6.2894                 6.4743                 6.5360
 IR Inten    --     21.9178                13.9364                 8.6932

                     46                     47                     48
                      A                      A                      A
 Frequencies --   3361.9181              3468.1739              3481.2450
 Red. masses --      1.0565                 1.0488                 1.0501
 Frc consts  --      7.0355                 7.4326                 7.4980
 IR Inten    --     27.2499                 2.2061                 0.1220

                     49                     50                     51
                      A                      A                      A
 Frequencies --   3562.7420              3566.9557              3574.5705
 Red. masses --      1.0879                 1.0878                 1.0913
 Frc consts  --      8.1356                 8.1546                 8.2159
 IR Inten    --      0.8161                 0.7945                 1.0187

 - Thermochemistry -
 -------------------
 Temperature   298.150 Kelvin.  Pressure   1.00000 Atm.
 Atom     1 has atomic number  6 and mass  12.00000

 Molecular mass:   104.10620 amu.
 Principal axes and moments of inertia in atomic units:
                           1         2         3
     Eigenvalues --   558.53282 765.30968 911.69306
           X            0.99921  -0.03948   0.00441
           Y            0.03947   0.99922   0.00255
           Z           -0.00451  -0.00237   0.99999
 This molecule is an asymmetric top.
 Rotational symmetry number  1.
 Warning -- assumption of classical behavior for rotation
           may cause significant error
 Rotational temperatures (Kelvin)      0.15507     0.11317     0.09500
 Rotational constants (GHZ):           3.23122     2.35818     1.97955
 Zero-point vibrational energy     452146.0 (Joules/Mol)
                                  108.06550 (Kcal/Mol)
 Warning -- explicit consideration of  14 degrees of freedom as
           vibrations may cause significant error
 Vibrational temperatures:    163.49   304.39   375.78   395.88   418.45
          (Kelvin)            446.13   463.03   521.16   557.93   607.69
                              623.32   724.64   758.09   792.29  1017.46
                             1197.26  1234.28  1313.15  1335.28  1411.56
                             1432.36  1444.10  1599.93  1653.56  1714.29
                             1742.29  1801.70  1860.32  1920.07  1979.10
                             2041.95  2083.26  2151.92  2171.74  2174.45
                             2198.39  2372.73  2390.46  2406.79  4266.59
                             4390.79  4469.49  4489.37  4542.98  4564.55
                             4837.04  4989.92  5008.73  5125.98  5132.05
                             5143.00

 Zero-point correction=                           0.172213 (Hartree/Particle)
 Thermal correction to Energy=                    0.180922
 Thermal correction to Enthalpy=                  0.181866
 Thermal correction to Gibbs Free Energy=         0.140480
 Sum of electronic and zero-point Energies=           -340.349573
 Sum of electronic and thermal Energies=              -340.340865
 Sum of electronic and thermal Enthalpies=            -340.339921
 Sum of electronic and thermal Free Energies=         -340.381306

                     E (Thermal)             CV                S
                      KCal/Mol        Cal/Mol-Kelvin    Cal/Mol-Kelvin
 Total                  113.530             33.769             87.103
 Electronic               0.000              0.000              0.000
 Translational            0.889              2.981             39.838
 Rotational               0.889              2.981             27.457
 Vibrational            111.753             27.807             19.808
 Vibration     1          0.607              1.938              3.206
 Vibration     2          0.643              1.823              2.030
 Vibration     3          0.669              1.744              1.654
 Vibration     4          0.677              1.719              1.564
 Vibration     5          0.687              1.691              1.469
 Vibration     6          0.699              1.655              1.362
 Vibration     7          0.707              1.632              1.301
 Vibration     8          0.736              1.550              1.113
 Vibration     9          0.756              1.496              1.009
 Vibration    10          0.785              1.422              0.884
 Vibration    11          0.794              1.398              0.848
 Vibration    12          0.859              1.242              0.649
 Vibration    13          0.882              1.190              0.594
 Vibration    14          0.906              1.138              0.543

 Optimization completed.
    -- Stationary point found.
 Normal termination of Gaussian 09 at Thu Sep  8 15:19:12 2022.
