 Gaussian 09, Revision E.01,
 Gaussian 09:  ES64L-G09RevE.01 30-Nov-2015

 -------------------------
 #P OPT Freq B3LYP/6-31G**
 -------------------------

 --------
 Frag_285
 --------
 Symbolic Z-matrix:
 Charge =  0 Multiplicity = 1

 SCF Done:  E(RB3LYP) =  -264.482157262     A.U. after   14 cycles
 SCF Done:  E(RB3LYP) =  -264.506378699     A.U. after   13 cycles
 SCF Done:  E(RB3LYP) =  -264.510687635     A.U. after   13 cycles
 SCF Done:  E(RB3LYP) =  -264.511343084     A.U. after   11 cycles
 SCF Done:  E(RB3LYP) =  -264.511632704     A.U. after   12 cycles
 SCF Done:  E(RB3LYP) =  -264.511749669     A.U. after   11 cycles
 SCF Done:  E(RB3LYP) =  -264.511834317     A.U. after   11 cycles
 SCF Done:  E(RB3LYP) =  -264.511924542     A.U. after   11 cycles
 SCF Done:  E(RB3LYP) =  -264.511946337     A.U. after   11 cycles
 SCF Done:  E(RB3LYP) =  -264.512066635     A.U. after   11 cycles
 SCF Done:  E(RB3LYP) =  -264.469282870     A.U. after   14 cycles
 SCF Done:  E(RB3LYP) =  -264.512073856     A.U. after    8 cycles
 SCF Done:  E(RB3LYP) =  -264.510374215     A.U. after   14 cycles
 SCF Done:  E(RB3LYP) =  -264.512533457     A.U. after   11 cycles
 SCF Done:  E(RB3LYP) =  -264.512614977     A.U. after   12 cycles
 SCF Done:  E(RB3LYP) =  -264.512630501     A.U. after   11 cycles
 SCF Done:  E(RB3LYP) =  -264.512650839     A.U. after   10 cycles
 SCF Done:  E(RB3LYP) =  -264.512651484     A.U. after    8 cycles
 Optimization completed.
    -- Stationary point found.
 Normal termination of Gaussian 09 at Sat Aug 21 01:35:22 2021.

 ----------------------------------------------------------------------
 #P Geom=AllCheck Guess=TCheck SCRF=Check GenChk RB3LYP/6-31G(d,p) Freq
 ----------------------------------------------------------------------

 Structure from the checkpoint file:  "/public/home/users/caep010/.cache/gau_scr/Gau-76434.chk"
 --------
 Frag_285
 --------
 Charge =  0 Multiplicity = 1

                         Standard orientation:
 ---------------------------------------------------------------------
 Center     Atomic      Atomic             Coordinates (Angstroms)
 Number     Number       Type             X           Y           Z
 ---------------------------------------------------------------------
      1          6           0       -1.770588   -0.580893    0.002489
      2          6           0       -0.383884   -0.006817   -0.001587
      3          7           0       -0.253556    1.363606   -0.076137
      4          7           0        0.605201   -0.835108    0.004307
      5          8           0        1.835511   -0.100446   -0.000909
      6          1           0       -2.322569   -0.264394   -0.889304
      7          1           0       -1.714381   -1.669479    0.020739
      8          1           0       -2.333151   -0.241955    0.881056
      9          1           0       -1.008623    1.911972    0.307354
     10          1           0        0.674491    1.705445    0.133017
     11          1           0        2.485468   -0.811252    0.051806
 ---------------------------------------------------------------------

 SCF Done:  E(RB3LYP) =  -264.512651484     A.U. after    1 cycles

 The electronic state is 1-A.
 Alpha  occ. eigenvalues --  -19.16451 -14.34491 -14.34167 -10.24410 -10.18940
 Alpha  occ. eigenvalues --   -1.04910  -0.92065  -0.81614  -0.72035  -0.56063
 Alpha  occ. eigenvalues --   -0.52586  -0.50729  -0.43728  -0.42955  -0.39522
 Alpha  occ. eigenvalues --   -0.38966  -0.37260  -0.30348  -0.26528  -0.20729
 Alpha virt. eigenvalues --    0.04500   0.07537   0.09654   0.13546   0.15027
 Alpha virt. eigenvalues --    0.16891   0.17170   0.17948   0.24804   0.32994
 Alpha virt. eigenvalues --    0.41516   0.54181   0.54967   0.58273   0.63332

 Mulliken charges:
               1
     1  C   -0.371202
     2  C    0.472788
     3  N   -0.617245
     4  N   -0.279435
     5  O   -0.465019
     6  H    0.129778
     7  H    0.143320
     8  H    0.113345
     9  H    0.257495
    10  H    0.287160
    11  H    0.329015
 Sum of Mulliken charges =  -0.00000

 Dipole moment (field-independent basis, Debye):
    X=             -0.9603    Y=              1.2389    Z=              0.9844  Tot=              1.8510
 Quadrupole moment (field-independent basis, Debye-Ang):
   XX=            -23.8233   YY=            -27.7903   ZZ=            -31.4744
   XY=             -2.1641   XZ=             -0.1355   YZ=              1.8262

  Exact polarizability:  54.297  -4.853  41.454  -0.139   0.282  23.414
 Approx polarizability:  76.115 -12.215  63.374   0.006  -0.553  32.848

                      1                      2                      3
                      A                      A                      A
 Frequencies --    168.6940               270.1567               311.1172
 Red. masses --      1.1421                 1.9804                 1.5158
 Frc consts  --      0.0191                 0.0852                 0.0864
 IR Inten    --      0.2292                43.7763                88.8509

                      4                      5                      6
                      A                      A                      A
 Frequencies --    317.3567               391.7231               413.5475
 Red. masses --      3.2681                 2.0860                 1.2263
 Frc consts  --      0.1939                 0.1886                 0.1236
 IR Inten    --     22.9603                20.6791                70.0097

                      7                      8                      9
                      A                      A                      A
 Frequencies --    531.4638               611.8793               637.3117
 Red. masses --      1.3536                 4.3818                 3.0060
 Frc consts  --      0.2253                 0.9666                 0.7194
 IR Inten    --    142.5508                24.7622                62.1772

                     10                     11                     12
                      A                      A                      A
 Frequencies --    903.0580               941.5375              1023.2545
 Red. masses --      3.2859                 4.7547                 1.5685
 Frc consts  --      1.5788                 2.4834                 0.9676
 IR Inten    --      2.0928                83.6944                13.1891

                     13                     14                     15
                      A                      A                      A
 Frequencies --   1067.9143              1141.0977              1337.4878
 Red. masses --      1.4973                 1.4973                 1.5368
 Frc consts  --      1.0061                 1.1487                 1.6197
 IR Inten    --      4.0806                38.1946                86.5713

                     16                     17                     18
                      A                      A                      A
 Frequencies --   1394.3854              1452.7397              1492.6401
 Red. masses --      1.3199                 2.3221                 1.0459
 Frc consts  --      1.5120                 2.8874                 1.3730
 IR Inten    --     11.5571                18.2317                 8.3287

                     19                     20                     21
                      A                      A                      A
 Frequencies --   1495.6451              1631.2303              1748.4181
 Red. masses --      1.0601                 1.1989                 5.9857
 Frc consts  --      1.3971                 1.8795                10.7810
 IR Inten    --      9.4633                71.3443               111.9720

                     22                     23                     24
                      A                      A                      A
 Frequencies --   3040.6449              3097.7718              3166.6336
 Red. masses --      1.0406                 1.0997                 1.0990
 Frc consts  --      5.6682                 6.2174                 6.4931
 IR Inten    --     26.0493                18.8970                 6.1350

                     25                     26                     27
                      A                      A                      A
 Frequencies --   3581.5615              3702.0267              3845.7127
 Red. masses --      1.0458                 1.1009                 1.0680
 Frc consts  --      7.9043                 8.8892                 9.3059
 IR Inten    --     20.5636                26.9332                67.0972

 - Thermochemistry -
 -------------------
 Temperature   298.150 Kelvin.  Pressure   1.00000 Atm.
 Atom     1 has atomic number  6 and mass  12.00000

 Molecular mass:    74.04801 amu.
 Principal axes and moments of inertia in atomic units:
                           1         2         3
     Eigenvalues --   185.62242 437.26651 610.30649
           X            0.99985   0.01710  -0.00106
           Y           -0.01709   0.99973   0.01562
           Z            0.00133  -0.01560   0.99988
 This molecule is an asymmetric top.
 Rotational symmetry number  1.
 Rotational temperatures (Kelvin)      0.46661     0.19808     0.14192
 Rotational constants (GHZ):           9.72265     4.12733     2.95711
 Zero-point vibrational energy     237560.5 (Joules/Mol)
                                   56.77832 (Kcal/Mol)
 Warning -- explicit consideration of   8 degrees of freedom as
           vibrations may cause significant error
 Vibrational temperatures:    242.71   388.69   447.63   456.60   563.60
          (Kelvin)            595.00   764.66   880.36   916.95  1299.30
                             1354.66  1472.23  1536.49  1641.78  1924.34
                             2006.21  2090.17  2147.57  2151.90  2346.97
                             2515.58  4374.80  4457.00  4556.07  5153.06
                             5326.38  5533.12

 Zero-point correction=                           0.090482 (Hartree/Particle)
 Thermal correction to Energy=                    0.096520
 Thermal correction to Enthalpy=                  0.097465
 Thermal correction to Gibbs Free Energy=         0.061914
 Sum of electronic and zero-point Energies=           -264.422169
 Sum of electronic and thermal Energies=              -264.416131
 Sum of electronic and thermal Enthalpies=            -264.415187
 Sum of electronic and thermal Free Energies=         -264.450738

                     E (Thermal)             CV                S
                      KCal/Mol        Cal/Mol-Kelvin    Cal/Mol-Kelvin
 Total                   60.568             21.341             74.823
 Electronic               0.000              0.000              0.000
 Translational            0.889              2.981             38.822
 Rotational               0.889              2.981             25.408
 Vibrational             58.790             15.379             10.593
 Vibration     1          0.625              1.881              2.450
 Vibration     2          0.674              1.728              1.595
 Vibration     3          0.700              1.653              1.356
 Vibration     4          0.704              1.640              1.324
 Vibration     5          0.759              1.488              0.994
 Vibration     6          0.777              1.441              0.914
 Vibration     7          0.886              1.180              0.584
 Vibration     8          0.971              1.007              0.430

 Optimization completed.
    -- Stationary point found.
 Normal termination of Gaussian 09 at Sat Aug 21 01:35:30 2021.
