 Gaussian 09, Revision E.01,
 Gaussian 09:  ES64L-G09RevE.01 30-Nov-2015

 ----------------------------
 #P OPT Freq B3LYP/6-31G(d,p)
 ----------------------------

 --------
 Frag_831
 --------
 Symbolic Z-matrix:
 Charge =  0 Multiplicity = 1

 SCF Done:  E(RB3LYP) =  -359.249887015     A.U. after   14 cycles
 SCF Done:  E(RB3LYP) =  -359.249977522     A.U. after   11 cycles
 SCF Done:  E(RB3LYP) =  -359.249906180     A.U. after   12 cycles
 SCF Done:  E(RB3LYP) =  -359.249995577     A.U. after   11 cycles
 SCF Done:  E(RB3LYP) =  -359.249999914     A.U. after    9 cycles
 SCF Done:  E(RB3LYP) =  -359.250000466     A.U. after    8 cycles
 Optimization completed.
    -- Stationary point found.
 Normal termination of Gaussian 09 at Thu Sep  8 15:09:25 2022.

 ----------------------------------------------------------------------
 #P Geom=AllCheck Guess=TCheck SCRF=Check GenChk RB3LYP/6-31G(d,p) Freq
 ----------------------------------------------------------------------

 Structure from the checkpoint file:  "B3LYP6-31Gdp.Frag_831.chk"
 --------
 Frag_831
 --------
 Charge =  0 Multiplicity = 1

                         Standard orientation:
 ---------------------------------------------------------------------
 Center     Atomic      Atomic             Coordinates (Angstroms)
 Number     Number       Type             X           Y           Z
 ---------------------------------------------------------------------
      1          6           0        1.079644   -0.074005    1.408605
      2          6           0        0.582917    0.018034   -0.048381
      3          7           0        1.088779   -1.048957   -0.911214
      4          7           0        0.915977    1.351959   -0.573065
      5          6           0       -0.964116   -0.154648   -0.017185
      6          7           0       -1.652757    1.007529    0.037627
      7          8           0       -1.474046   -1.269843    0.015018
      8          1           0        0.756421   -1.018971    1.851306
      9          1           0        0.693325    0.749619    2.016399
     10          1           0        2.176110   -0.035598    1.432565
     11          1           0        2.032613   -1.311170   -0.636646
     12          1           0        0.488600   -1.862992   -0.785357
     13          1           0        0.925276    1.279173   -1.589428
     14          1           0        1.863891    1.600827   -0.298645
     15          1           0       -1.138682    1.867694   -0.095857
     16          1           0       -2.659843    0.980163    0.053851
 ---------------------------------------------------------------------

 SCF Done:  E(RB3LYP) =  -359.250000466     A.U. after    1 cycles

 The electronic state is 1-A.
 Alpha  occ. eigenvalues --  -19.10715 -14.34810 -14.32317 -14.30739 -10.27851
 Alpha  occ. eigenvalues --  -10.25164 -10.18469  -1.02584  -0.92371  -0.89503
 Alpha  occ. eigenvalues --   -0.83740  -0.72931  -0.64444  -0.55929  -0.53385
 Alpha  occ. eigenvalues --   -0.50548  -0.48494  -0.45420  -0.44300  -0.41817
 Alpha  occ. eigenvalues --   -0.39529  -0.38229  -0.37179  -0.36004  -0.27845
 Alpha  occ. eigenvalues --   -0.26122  -0.25167  -0.22567
 Alpha virt. eigenvalues --    0.03282   0.07089   0.10319   0.11955   0.14390
 Alpha virt. eigenvalues --    0.15496   0.15833   0.16845   0.17469   0.19619
 Alpha virt. eigenvalues --    0.22568   0.23727   0.25702   0.30613   0.34700

 Mulliken charges:
               1
     1  C   -0.314312
     2  C    0.182316
     3  N   -0.600497
     4  N   -0.609935
     5  C    0.593975
     6  N   -0.603628
     7  O   -0.532072
     8  H    0.128821
     9  H    0.117347
    10  H    0.094228
    11  H    0.225854
    12  H    0.263099
    13  H    0.252826
    14  H    0.237743
    15  H    0.292165
    16  H    0.272069
 Sum of Mulliken charges =  -0.00000

 Dipole moment (field-independent basis, Debye):
    X=              1.7777    Y=              2.3608    Z=              0.5683  Tot=              3.0095
 Quadrupole moment (field-independent basis, Debye-Ang):
   XX=            -36.7298   YY=            -42.5868   ZZ=            -43.7972
   XY=             -5.5676   XZ=              0.8555   YZ=             -1.5496

  Exact polarizability:  59.880  -1.278  59.322  -0.075   0.431  43.936
 Approx polarizability:  79.341   1.674  93.495  -0.655   1.573  59.710

                      1                      2                      3
                      A                      A                      A
 Frequencies --     74.4379               236.3130               257.0011
 Red. masses --      5.7845                 2.7687                 1.1149
 Frc consts  --      0.0189                 0.0911                 0.0434
 IR Inten    --      2.1758                 0.8855                 2.2481

                      4                      5                      6
                      A                      A                      A
 Frequencies --    289.1294               306.9619               317.3800
 Red. masses --      1.1186                 1.6208                 1.7584
 Frc consts  --      0.0551                 0.0900                 0.1044
 IR Inten    --     23.3343                10.4288                48.5088

                      7                      8                      9
                      A                      A                      A
 Frequencies --    359.4427               383.8945               422.9277
 Red. masses --      2.2772                 2.4820                 1.4774
 Frc consts  --      0.1733                 0.2155                 0.1557
 IR Inten    --     14.2117                32.8279               145.0580

                     10                     11                     12
                      A                      A                      A
 Frequencies --    478.0074               524.7514               577.0365
 Red. masses --      2.4866                 2.9810                 3.3599
 Frc consts  --      0.3347                 0.4836                 0.6592
 IR Inten    --     49.5199                 6.8847                11.6374

                     13                     14                     15
                      A                      A                      A
 Frequencies --    696.1313               721.5646               777.3788
 Red. masses --      1.3132                 3.1366                 2.9149
 Frc consts  --      0.3749                 0.9622                 1.0379
 IR Inten    --     22.2166                 7.1869                 4.7816

                     16                     17                     18
                      A                      A                      A
 Frequencies --    867.2479               903.1589               947.4662
 Red. masses --      2.5674                 1.5406                 1.4683
 Frc consts  --      1.1377                 0.7404                 0.7766
 IR Inten    --     54.8916               186.8065                50.7829

                     19                     20                     21
                      A                      A                      A
 Frequencies --    990.0712              1024.6506              1110.3377
 Red. masses --      1.4967                 1.5056                 1.9176
 Frc consts  --      0.8644                 0.9313                 1.3929
 IR Inten    --     12.0066                20.1661                 1.7155

                     22                     23                     24
                      A                      A                      A
 Frequencies --   1128.2884              1238.9798              1274.4621
 Red. masses --      1.6558                 3.1667                 1.6617
 Frc consts  --      1.2419                 2.8641                 1.5902
 IR Inten    --     20.2305                63.1748                31.6394

                     25                     26                     27
                      A                      A                      A
 Frequencies --   1326.7234              1406.0111              1417.0170
 Red. masses --      2.0825                 1.4966                 1.7459
 Frc consts  --      2.1597                 1.7431                 2.0655
 IR Inten    --     45.4393                 3.4407                18.8510

                     28                     29                     30
                      A                      A                      A
 Frequencies --   1501.3984              1514.9890              1580.9735
 Red. masses --      1.0503                 1.0766                 1.3989
 Frc consts  --      1.3949                 1.4559                 2.0600
 IR Inten    --      1.2688                 2.4646               156.1965

                     31                     32                     33
                      A                      A                      A
 Frequencies --   1642.6610              1671.0458              1801.0332
 Red. masses --      1.1268                 1.0992                 8.0157
 Frc consts  --      1.7914                 1.8084                15.3192
 IR Inten    --    109.5492                38.5828               247.8482

                     34                     35                     36
                      A                      A                      A
 Frequencies --   3035.2195              3110.9916              3145.1081
 Red. masses --      1.0402                 1.0970                 1.1027
 Frc consts  --      5.6461                 6.2552                 6.4266
 IR Inten    --     22.0516                25.0495                13.2980

                     37                     38                     39
                      A                      A                      A
 Frequencies --   3477.5056              3483.3067              3565.5292
 Red. masses --      1.0490                 1.0496                 1.0917
 Frc consts  --      7.4741                 7.5030                 8.1770
 IR Inten    --     13.8316                 1.0066                 3.0834

                     40                     41                     42
                      A                      A                      A
 Frequencies --   3569.0700              3571.5376              3729.7829
 Red. masses --      1.0919                 1.0468                 1.1047
 Frc consts  --      8.1946                 7.8671                 9.0546
 IR Inten    --     11.1831                46.1859                78.4288

 - Thermochemistry -
 -------------------
 Temperature   298.150 Kelvin.  Pressure   1.00000 Atm.
 Atom     1 has atomic number  6 and mass  12.00000

 Molecular mass:   103.07456 amu.
 Principal axes and moments of inertia in atomic units:
                           1         2         3
     Eigenvalues --   535.14244 739.28937 893.85478
           X            0.99692  -0.07487   0.02338
           Y            0.07532   0.99698  -0.01879
           Z           -0.02191   0.02049   0.99955
 This molecule is an asymmetric top.
 Rotational symmetry number  1.
 Warning -- assumption of classical behavior for rotation
           may cause significant error
 Rotational temperatures (Kelvin)      0.16185     0.11716     0.09690
 Rotational constants (GHZ):           3.37245     2.44118     2.01905
 Zero-point vibrational energy     361612.7 (Joules/Mol)
                                   86.42751 (Kcal/Mol)
 Warning -- explicit consideration of  12 degrees of freedom as
           vibrations may cause significant error
 Vibrational temperatures:    107.10   340.00   369.77   415.99   441.65
          (Kelvin)            456.64   517.16   552.34   608.50   687.75
                              755.00   830.23  1001.58  1038.17  1118.47
                             1247.77  1299.44  1363.19  1424.49  1474.24
                             1597.53  1623.35  1782.61  1833.66  1908.86
                             2022.93  2038.77  2160.17  2179.73  2274.67
                             2363.42  2404.26  2591.28  4367.00  4476.02
                             4525.10  5003.35  5011.70  5129.99  5135.09
                             5138.64  5366.32

 Zero-point correction=                           0.137731 (Hartree/Particle)
 Thermal correction to Energy=                    0.145811
 Thermal correction to Enthalpy=                  0.146756
 Thermal correction to Gibbs Free Energy=         0.106165
 Sum of electronic and zero-point Energies=           -359.112269
 Sum of electronic and thermal Energies=              -359.104189
 Sum of electronic and thermal Enthalpies=            -359.103245
 Sum of electronic and thermal Free Energies=         -359.143836

                     E (Thermal)             CV                S
                      KCal/Mol        Cal/Mol-Kelvin    Cal/Mol-Kelvin
 Total                   91.498             30.570             85.430
 Electronic               0.000              0.000              0.000
 Translational            0.889              2.981             39.808
 Rotational               0.889              2.981             27.361
 Vibrational             89.721             24.608             18.261
 Vibration     1          0.599              1.966              4.032
 Vibration     2          0.655              1.785              1.830
 Vibration     3          0.667              1.751              1.682
 Vibration     4          0.686              1.694              1.479
 Vibration     5          0.697              1.660              1.379
 Vibration     6          0.704              1.640              1.324
 Vibration     7          0.734              1.556              1.125
 Vibration     8          0.753              1.505              1.024
 Vibration     9          0.785              1.420              0.882
 Vibration    10          0.835              1.299              0.715
 Vibration    11          0.880              1.195              0.599
 Vibration    12          0.934              1.081              0.491

 Optimization completed.
    -- Stationary point found.
 Normal termination of Gaussian 09 at Thu Sep  8 15:09:40 2022.
