 Gaussian 09, Revision E.01,
 Gaussian 09:  ES64L-G09RevE.01 30-Nov-2015

 ----------------------------
 #P OPT Freq B3LYP/6-31G(d,p)
 ----------------------------

 --------
 Frag_641
 --------
 Symbolic Z-matrix:
 Charge =  0 Multiplicity = 1

 SCF Done:  E(RB3LYP) =  -286.600506434     A.U. after   14 cycles
 SCF Done:  E(RB3LYP) =  -286.600596909     A.U. after    9 cycles
 SCF Done:  E(RB3LYP) =  -286.600599023     A.U. after    8 cycles
 SCF Done:  E(RB3LYP) =  -286.600599518     A.U. after    8 cycles
 Optimization completed.
    -- Stationary point found.
 Normal termination of Gaussian 09 at Thu Sep  8 14:58:57 2022.

 ----------------------------------------------------------------------
 #P Geom=AllCheck Guess=TCheck SCRF=Check GenChk RB3LYP/6-31G(d,p) Freq
 ----------------------------------------------------------------------

 Structure from the checkpoint file:  "B3LYP6-31Gdp.Frag_641.chk"
 --------
 Frag_641
 --------
 Charge =  0 Multiplicity = 1

                         Standard orientation:
 ---------------------------------------------------------------------
 Center     Atomic      Atomic             Coordinates (Angstroms)
 Number     Number       Type             X           Y           Z
 ---------------------------------------------------------------------
      1          6           0        0.799341   -1.274960   -0.655896
      2          6           0        0.286729   -0.000006    0.037987
      3          6           0        0.799178    1.275035   -0.655877
      4          8           0        0.641235    0.000006    1.421938
      5          6           0       -1.196147   -0.000135    0.015391
      6          7           0       -2.354173   -0.000014   -0.050424
      7          1           0        0.468972   -1.323556   -1.696959
      8          1           0        1.895058   -1.277709   -0.644244
      9          1           0        0.439701   -2.160280   -0.127371
     10          1           0        0.439437    2.160298   -0.127327
     11          1           0        1.894896    1.277934   -0.644257
     12          1           0        0.468779    1.323613   -1.696932
     13          1           0        1.607884    0.000151    1.464926
 ---------------------------------------------------------------------

 SCF Done:  E(RB3LYP) =  -286.600599518     A.U. after    1 cycles

 The electronic state is 1-A.
 Alpha  occ. eigenvalues --  -19.16954 -14.33561 -10.29751 -10.22469 -10.20456
 Alpha  occ. eigenvalues --  -10.20455  -1.04878  -0.90203  -0.80880  -0.71902
 Alpha  occ. eigenvalues --   -0.66288  -0.52843  -0.50899  -0.46480  -0.43856
 Alpha  occ. eigenvalues --   -0.41913  -0.41279  -0.38480  -0.36695  -0.35019
 Alpha  occ. eigenvalues --   -0.33310  -0.33036  -0.29298
 Alpha virt. eigenvalues --    0.01993   0.03731   0.05492   0.10448   0.11998
 Alpha virt. eigenvalues --    0.14854   0.14905   0.17224   0.17269   0.18093
 Alpha virt. eigenvalues --    0.20129   0.23698   0.25477   0.36404   0.48285

 Mulliken charges:
               1
     1  C   -0.312485
     2  C    0.209003
     3  C   -0.312483
     4  O   -0.527807
     5  C    0.362493
     6  N   -0.469516
     7  H    0.125742
     8  H    0.104152
     9  H    0.139693
    10  H    0.139696
    11  H    0.104154
    12  H    0.125745
    13  H    0.311615
 Sum of Mulliken charges =  -0.00000

 Dipole moment (field-independent basis, Debye):
    X=              4.7825    Y=              0.0002    Z=             -1.2242  Tot=              4.9367
 Quadrupole moment (field-independent basis, Debye-Ang):
   XX=            -41.1895   YY=            -34.5557   ZZ=            -37.0617
   XY=              0.0005   XZ=              1.2855   YZ=              0.0003

  Exact polarizability:  59.804  -0.000  42.717   0.866   0.000  41.928
 Approx polarizability:  92.904  -0.002  54.421   2.875  -0.000  59.672

                      1                      2                      3
                      A                      A                      A
 Frequencies --    185.9359               194.0769               235.5043
 Red. masses --      3.8799                 4.2357                 1.0408
 Frc consts  --      0.0790                 0.0940                 0.0340
 IR Inten    --      0.3087                 2.4251               113.2009

                      4                      5                      6
                      A                      A                      A
 Frequencies --    241.7526               281.4892               353.3808
 Red. masses --      1.0420                 1.1127                 2.3534
 Frc consts  --      0.0359                 0.0519                 0.1732
 IR Inten    --      6.9202                 0.2228                 0.4399

                      7                      8                      9
                      A                      A                      A
 Frequencies --    408.6796               409.2159               584.7925
 Red. masses --      4.1216                 3.0794                 5.2836
 Frc consts  --      0.4056                 0.3038                 1.0646
 IR Inten    --     16.6622                 1.6044                 1.1568

                     10                     11                     12
                      A                      A                      A
 Frequencies --    591.7799               705.8680               897.7652
 Red. masses --      7.1223                 4.1961                 2.3781
 Frc consts  --      1.4696                 1.2318                 1.1293
 IR Inten    --      4.7150                 2.8585                23.7026

                     13                     14                     15
                      A                      A                      A
 Frequencies --    930.9034               982.0711              1027.6192
 Red. masses --      1.5504                 2.1771                 1.3008
 Frc consts  --      0.7916                 1.2371                 0.8094
 IR Inten    --      0.0011                12.6365                 0.0312

                     16                     17                     18
                      A                      A                      A
 Frequencies --   1152.5335              1198.1625              1214.4842
 Red. masses --      1.4630                 3.4648                 2.6244
 Frc consts  --      1.1450                 2.9306                 2.2807
 IR Inten    --    111.3938                27.6032                48.8685

                     19                     20                     21
                      A                      A                      A
 Frequencies --   1382.6314              1410.0110              1430.0537
 Red. masses --      1.7188                 1.2382                 1.2244
 Frc consts  --      1.9360                 1.4504                 1.4753
 IR Inten    --     48.2235                 6.7768                 4.0869

                     22                     23                     24
                      A                      A                      A
 Frequencies --   1492.1585              1494.8827              1508.8916
 Red. masses --      1.0463                 1.0486                 1.0513
 Frc consts  --      1.3726                 1.3806                 1.4102
 IR Inten    --      0.3361                 1.6253                 1.1360

                     25                     26                     27
                      A                      A                      A
 Frequencies --   1521.9283              2372.0687              3047.7260
 Red. masses --      1.0799                12.6944                 1.0375
 Frc consts  --      1.4738                42.0841                 5.6778
 IR Inten    --      9.5266                 0.7790                 5.6601

                     28                     29                     30
                      A                      A                      A
 Frequencies --   3052.4056              3122.7538              3128.7346
 Red. masses --      1.0377                 1.1003                 1.0994
 Frc consts  --      5.6962                 6.3216                 6.3410
 IR Inten    --     18.3164                 2.0470                32.2531

                     31                     32                     33
                      A                      A                      A
 Frequencies --   3152.1127              3153.5410              3802.4760
 Red. masses --      1.1037                 1.1042                 1.0660
 Frc consts  --      6.4611                 6.4699                 9.0811
 IR Inten    --      8.5274                13.6200                19.1076

 - Thermochemistry -
 -------------------
 Temperature   298.150 Kelvin.  Pressure   1.00000 Atm.
 Atom     1 has atomic number  6 and mass  12.00000

 Molecular mass:    85.05276 amu.
 Principal axes and moments of inertia in atomic units:
                           1         2         3
     Eigenvalues --   380.69808 639.79549 653.65692
           X            0.99964  -0.00000  -0.02697
           Y            0.00000   1.00000   0.00002
           Z            0.02697  -0.00002   0.99964
 This molecule is an asymmetric top.
 Rotational symmetry number  1.
 Rotational temperatures (Kelvin)      0.22751     0.13538     0.13251
 Rotational constants (GHZ):           4.74061     2.82081     2.76099
 Zero-point vibrational energy     279139.0 (Joules/Mol)
                                   66.71581 (Kcal/Mol)
 Warning -- explicit consideration of  10 degrees of freedom as
           vibrations may cause significant error
 Vibrational temperatures:    267.52   279.23   338.84   347.83   405.00
          (Kelvin)            508.44   588.00   588.77   841.38   851.44
                             1015.59  1291.68  1339.36  1412.98  1478.51
                             1658.24  1723.89  1747.37  1989.30  2028.69
                             2057.53  2146.88  2150.80  2170.96  2189.71
                             3412.87  4384.99  4391.73  4492.94  4501.55
                             4535.18  4537.24  5470.91

 Zero-point correction=                           0.106318 (Hartree/Particle)
 Thermal correction to Energy=                    0.113425
 Thermal correction to Enthalpy=                  0.114369
 Thermal correction to Gibbs Free Energy=         0.076197
 Sum of electronic and zero-point Energies=           -286.494281
 Sum of electronic and thermal Energies=              -286.487175
 Sum of electronic and thermal Enthalpies=            -286.486230
 Sum of electronic and thermal Free Energies=         -286.524403

                     E (Thermal)             CV                S
                      KCal/Mol        Cal/Mol-Kelvin    Cal/Mol-Kelvin
 Total                   71.175             25.297             80.341
 Electronic               0.000              0.000              0.000
 Translational            0.889              2.981             39.235
 Rotational               0.889              2.981             26.568
 Vibrational             69.398             19.335             14.538
 Vibration     1          0.632              1.859              2.268
 Vibration     2          0.635              1.848              2.189
 Vibration     3          0.655              1.786              1.837
 Vibration     4          0.658              1.776              1.790
 Vibration     5          0.681              1.708              1.525
 Vibration     6          0.730              1.568              1.151
 Vibration     7          0.773              1.451              0.931
 Vibration     8          0.774              1.450              0.929
 Vibration     9          0.942              1.064              0.477
 Vibration    10          0.949              1.049              0.464

 Optimization completed.
    -- Stationary point found.
 Normal termination of Gaussian 09 at Thu Sep  8 14:59:09 2022.
