 Gaussian 09, Revision D.01,
 Gaussian 09:  ES64L-G09RevD.01 24-Apr-2013

 -------------------------
 #P OPT Freq B3LYP/6-31G**
 -------------------------

 -------
 Frag_13
 -------
 Symbolic Z-matrix:
 Charge =  0 Multiplicity = 1

 SCF Done:  E(RB3LYP) =  -270.563955642     A.U. after   15 cycles
 SCF Done:  E(RB3LYP) =  -270.563955076     A.U. after    8 cycles
 SCF Done:  E(RB3LYP) =  -270.563955741     A.U. after    8 cycles
 Optimization completed.
    -- Stationary point found.

 1\1\GINC-FN13\FOpt\RB3LYP\6-31G(d,p)\C5H8O1\LIUJ201281\23-Jul-2021\0\\
 #P OPT Freq B3LYP/6-31G**\\Frag_13\\0,1\C,-1.4997664746,-1.1815906866,
 -0.0000303484\C,-0.7521177156,-0.0701763067,-0.0000259848\C,-1.3505669
 509,1.3154161483,-0.0000272067\C,0.7498678056,-0.2388734059,0.00005674
 8\C,1.6110649744,1.0126427039,-0.0000287196\O,1.2650537204,-1.34563884
 57,0.0000638721\H,-1.0226994874,-2.1558611522,-0.0000633556\H,-2.58488
 50148,-1.1413458758,-0.0001096844\H,-1.0426545685,1.8925659591,-0.8798
 328049\H,-1.0426213516,1.8926137811,0.8797518069\H,-2.4422604014,1.265

 Normal termination of Gaussian 09 at Fri Jul 23 02:49:24 2021.

 ----------------------------------------------------------------------
 #P Geom=AllCheck Guess=TCheck SCRF=Check GenChk RB3LYP/6-31G(d,p) Freq
 ----------------------------------------------------------------------

 Structure from the checkpoint file:  "/vol2/users/liuj201281/HOFBenchmark/IsodesmicSplit/Sample60/Ring26/Running/Gau-244625.chk"
 -------
 Frag_13
 -------
 Charge =  0 Multiplicity = 1

                         Standard orientation:
 ---------------------------------------------------------------------
 Center     Atomic      Atomic             Coordinates (Angstroms)
 Number     Number       Type             X           Y           Z
 ---------------------------------------------------------------------
      1          6           0        1.499859   -1.181546    0.000025
      2          6           0        0.752227   -0.070121    0.000021
      3          6           0        1.350697    1.315463    0.000022
      4          6           0       -0.749761   -0.238795   -0.000062
      5          6           0       -1.610939    1.012734    0.000024
      6          8           0       -1.264963   -1.345553   -0.000069
      7          1           0        1.022778   -2.155809    0.000058
      8          1           0        2.584979   -1.141318    0.000105
      9          1           0        1.042793    1.892617    0.879828
     10          1           0        1.042760    1.892665   -0.879757
     11          1           0        2.442390    1.265938    0.000001
     12          1           0       -1.403712    1.632130   -0.879949
     13          1           0       -1.403762    1.631971    0.880106
     14          1           0       -2.661020    0.719822   -0.000024
 ---------------------------------------------------------------------

 SCF Done:  E(RB3LYP) =  -270.563955741     A.U. after    1 cycles

 The electronic state is 1-A.
 Alpha  occ. eigenvalues --  -19.13187 -10.27350 -10.20383 -10.19421 -10.19313
 Alpha  occ. eigenvalues --  -10.18920  -1.03142  -0.80903  -0.73937  -0.69540
 Alpha  occ. eigenvalues --   -0.60821  -0.50060  -0.48187  -0.44940  -0.44867
 Alpha  occ. eigenvalues --   -0.41287  -0.41103  -0.39902  -0.38356  -0.36065
 Alpha  occ. eigenvalues --   -0.35926  -0.26370  -0.24465
 Alpha virt. eigenvalues --   -0.04919   0.06702   0.08434   0.12109   0.12646
 Alpha virt. eigenvalues --    0.14726   0.15863   0.16830   0.18706   0.23621
 Alpha virt. eigenvalues --    0.23932   0.24508   0.32288   0.34780   0.35842

 Mulliken charges:
               1
     1  C   -0.241019
     2  C    0.091539
     3  C   -0.378281
     4  C    0.393604
     5  C   -0.394681
     6  O   -0.453281
     7  H    0.134350
     8  H    0.100350
     9  H    0.120175
    10  H    0.120172
    11  H    0.114557
    12  H    0.127406
    13  H    0.127415
    14  H    0.137693
 Sum of Mulliken charges =   0.00000

 Dipole moment (field-independent basis, Debye):
    X=              1.5047    Y=              2.4663    Z=              0.0002  Tot=              2.8891
 Quadrupole moment (field-independent basis, Debye-Ang):
   XX=            -35.8478   YY=            -37.6985   ZZ=            -36.7875
   XY=             -3.9879   XZ=              0.0000   YZ=             -0.0002

  Exact polarizability:  65.083  -5.819  64.375   0.001   0.000  33.328
 Approx polarizability:  90.480  -7.407  98.159   0.000   0.000  48.834

                      1                      2                      3
                      A                      A                      A
 Frequencies --     56.4350               138.1383               217.9301
 Red. masses --      3.2302                 1.0698                 1.0316
 Frc consts  --      0.0061                 0.0120                 0.0289
 IR Inten    --      2.9677                 0.0180                 0.4900

                      4                      5                      6
                      A                      A                      A
 Frequencies --    277.4152               355.4750               395.0485
 Red. masses --      2.8529                 3.0303                 2.7058
 Frc consts  --      0.1294                 0.2256                 0.2488
 IR Inten    --      2.7718                 0.3510                 1.3636

                      7                      8                      9
                      A                      A                      A
 Frequencies --    443.8015               553.9768               588.7475
 Red. masses --      2.7878                 4.0990                 1.9144
 Frc consts  --      0.3235                 0.7412                 0.3910
 IR Inten    --      1.8539                11.9806                 5.7851

                     10                     11                     12
                      A                      A                      A
 Frequencies --    709.2519               742.8629               943.3447
 Red. masses --      3.4377                 1.1081                 1.9181
 Frc consts  --      1.0189                 0.3603                 1.0057
 IR Inten    --      7.7298                 0.0834                 0.1082

                     13                     14                     15
                      A                      A                      A
 Frequencies --    975.0536               988.2436              1032.1746
 Red. masses --      1.7072                 1.3329                 1.4513
 Frc consts  --      0.9563                 0.7669                 0.9110
 IR Inten    --     34.9225                31.5304                 1.8842

                     16                     17                     18
                      A                      A                      A
 Frequencies --   1040.1605              1076.7486              1178.1638
 Red. masses --      1.6649                 1.6089                 2.5444
 Frc consts  --      1.0613                 1.0990                 2.0809
 IR Inten    --      3.1669                 0.0324                77.9568

                     19                     20                     21
                      A                      A                      A
 Frequencies --   1310.7330              1396.6282              1420.5536
 Red. masses --      3.2892                 1.2939                 1.2125
 Frc consts  --      3.3294                 1.4870                 1.4416
 IR Inten    --     41.2178                22.5856                24.8407

                     22                     23                     24
                      A                      A                      A
 Frequencies --   1442.7773              1474.1394              1485.8972
 Red. masses --      1.2666                 1.0541                 1.0479
 Frc consts  --      1.5534                 1.3497                 1.3632
 IR Inten    --     16.1909                17.9891                 0.4466

                     25                     26                     27
                      A                      A                      A
 Frequencies --   1503.6156              1508.3193              1691.0554
 Red. masses --      1.0446                 1.0551                 5.5758
 Frc consts  --      1.3914                 1.4143                 9.3945
 IR Inten    --     18.0736                13.2545                57.0832

                     28                     29                     30
                      A                      A                      A
 Frequencies --   1790.7719              3037.3962              3048.2394
 Red. masses --      9.4624                 1.0381                 1.0378
 Frc consts  --     17.8786                 5.6430                 5.6815
 IR Inten    --     84.5123                14.5933                 8.7481

                     31                     32                     33
                      A                      A                      A
 Frequencies --   3090.0434              3108.8361              3129.0038
 Red. masses --      1.1002                 1.0992                 1.1007
 Frc consts  --      6.1895                 6.2593                 6.3496
 IR Inten    --     14.2986                15.1418                18.7667

                     34                     35                     36
                      A                      A                      A
 Frequencies --   3164.1018              3168.6030              3260.5941
 Red. masses --      1.0599                 1.1021                 1.1166
 Frc consts  --      6.2519                 6.5192                 6.9944
 IR Inten    --      9.8678                 9.7227                 2.2539

 - Thermochemistry -
 -------------------
 Temperature   298.150 Kelvin.  Pressure   1.00000 Atm.
 Atom     1 has atomic number  6 and mass  12.00000

 Molecular mass:    84.05751 amu.
 Principal axes and moments of inertia in atomic units:
                           1         2         3
     Eigenvalues --   366.30169 534.62510 878.63478
           X            0.99561  -0.09355  -0.00002
           Y            0.09355   0.99561  -0.00002
           Z            0.00002   0.00002   1.00000
 This molecule is an asymmetric top.
 Rotational symmetry number  1.
 Rotational temperatures (Kelvin)      0.23645     0.16201     0.09858
 Rotational constants (GHZ):           4.92693     3.37571     2.05403
 Zero-point vibrational energy     309499.5 (Joules/Mol)
                                   73.97216 (Kcal/Mol)
 Warning -- explicit consideration of   9 degrees of freedom as
           vibrations may cause significant error
 Vibrational temperatures:     81.20   198.75   313.55   399.14   511.45
          (Kelvin)            568.39   638.53   797.05   847.08  1020.45
                             1068.81  1357.26  1402.88  1421.86  1485.07
                             1496.56  1549.20  1695.11  1885.85  2009.43
                             2043.86  2075.83  2120.96  2137.87  2163.36
                             2170.13  2433.05  2576.52  4370.13  4385.73
                             4445.88  4472.92  4501.93  4552.43  4558.91
                             4691.26

 Zero-point correction=                           0.117882 (Hartree/Particle)
 Thermal correction to Energy=                    0.124970
 Thermal correction to Enthalpy=                  0.125914
 Thermal correction to Gibbs Free Energy=         0.086952
 Sum of electronic and zero-point Energies=           -270.446074
 Sum of electronic and thermal Energies=              -270.438986
 Sum of electronic and thermal Enthalpies=            -270.438041
 Sum of electronic and thermal Free Energies=         -270.477004

                     E (Thermal)             CV                S
                      KCal/Mol        Cal/Mol-Kelvin    Cal/Mol-Kelvin
 Total                   78.420             24.798             82.004
 Electronic               0.000              0.000              0.000
 Translational            0.889              2.981             39.200
 Rotational               0.889              2.981             26.645
 Vibrational             76.642             18.836             16.158
 Vibration     1          0.596              1.975              4.578
 Vibration     2          0.614              1.915              2.830
 Vibration     3          0.646              1.814              1.976
 Vibration     4          0.678              1.715              1.550
 Vibration     5          0.731              1.564              1.142
 Vibration     6          0.762              1.481              0.981
 Vibration     7          0.803              1.375              0.815
 Vibration     8          0.909              1.131              0.536
 Vibration     9          0.946              1.056              0.469

 Optimization completed.
    -- Stationary point found.

 1\1\GINC-FN13\Freq\RB3LYP\6-31G(d,p)\C5H8O1\LIUJ201281\23-Jul-2021\0\\
 #P Geom=AllCheck Guess=TCheck SCRF=Check GenChk RB3LYP/6-31G(d,p) Freq
 \\Frag_13\\0,1\C,-1.4997664746,-1.1815906866,-0.0000303484\C,-0.752117
 7156,-0.0701763067,-0.0000259848\C,-1.3505669509,1.3154161483,-0.00002
 72067\C,0.7498678056,-0.2388734059,0.000056748\C,1.6110649744,1.012642
 7039,-0.0000287196\O,1.2650537204,-1.3456388457,0.0000638721\H,-1.0226
 994874,-2.1558611522,-0.0000633556\H,-2.5848850148,-1.1413458758,-0.00
 01096844\H,-1.0426545685,1.8925659591,-0.8798328049\H,-1.0426213516,1.

 Normal termination of Gaussian 09 at Fri Jul 23 02:49:39 2021.
