 Gaussian 09, Revision E.01,
 Gaussian 09:  ES64L-G09RevE.01 30-Nov-2015

 --------------------------------
 #P OPT=calcfc Freq B3LYP/6-31G**
 --------------------------------

 --------
 Frag_357
 --------
 Symbolic Z-matrix:
 Charge =  0 Multiplicity = 1

 SCF Done:  E(RB3LYP) =  -303.836773049     A.U. after   14 cycles
 SCF Done:  E(RB3LYP) =  -303.854959241     A.U. after   12 cycles
 SCF Done:  E(RB3LYP) =  -303.855639505     A.U. after   12 cycles
 SCF Done:  E(RB3LYP) =  -303.854694944     A.U. after   12 cycles
 SCF Done:  E(RB3LYP) =  -303.856220833     A.U. after   12 cycles
 SCF Done:  E(RB3LYP) =  -303.854811157     A.U. after   13 cycles
 SCF Done:  E(RB3LYP) =  -303.856376514     A.U. after   10 cycles
 SCF Done:  E(RB3LYP) =  -303.856515050     A.U. after   11 cycles
 SCF Done:  E(RB3LYP) =  -303.824683824     A.U. after   13 cycles
 SCF Done:  E(RB3LYP) =  -303.856711471     A.U. after   10 cycles
 SCF Done:  E(RB3LYP) =  -303.858118500     A.U. after   12 cycles
 SCF Done:  E(RB3LYP) =  -303.859269285     A.U. after    9 cycles
 SCF Done:  E(RB3LYP) =  -303.859529732     A.U. after   11 cycles
 SCF Done:  E(RB3LYP) =  -303.859626825     A.U. after   12 cycles
 SCF Done:  E(RB3LYP) =  -303.859739394     A.U. after   12 cycles
 SCF Done:  E(RB3LYP) =  -303.859786821     A.U. after   11 cycles
 SCF Done:  E(RB3LYP) =  -303.859848711     A.U. after   10 cycles
 SCF Done:  E(RB3LYP) =  -303.859875345     A.U. after   10 cycles
 SCF Done:  E(RB3LYP) =  -303.859875898     A.U. after    8 cycles
 Optimization completed.
    -- Stationary point found.
 Normal termination of Gaussian 09 at Fri Sep 10 15:27:11 2021.

 ----------------------------------------------------------------------
 #P Geom=AllCheck Guess=TCheck SCRF=Check GenChk RB3LYP/6-31G(d,p) Freq
 ----------------------------------------------------------------------

 Structure from the checkpoint file:  "/public/home/users/caep010/.cache/gau_scr/Gau-169874.chk"
 --------
 Frag_357
 --------
 Charge =  0 Multiplicity = 1

                         Standard orientation:
 ---------------------------------------------------------------------
 Center     Atomic      Atomic             Coordinates (Angstroms)
 Number     Number       Type             X           Y           Z
 ---------------------------------------------------------------------
      1          6           0        1.418749   -1.133594   -0.210504
      2          7           0        0.586657    0.064890   -0.254272
      3          6           0        1.235821    1.241781    0.326122
      4          6           0       -0.769465   -0.133910   -0.004560
      5          7           0       -1.250188   -1.258468    0.347711
      6          8           0       -1.551273    0.979839   -0.200883
      7          1           0        2.380708   -0.907906   -0.680881
      8          1           0        1.596400   -1.478867    0.818007
      9          1           0        0.924598   -1.937813   -0.754031
     10          1           0        1.564874    1.057861    1.360738
     11          1           0        0.554082    2.092670    0.341255
     12          1           0        2.113547    1.509460   -0.270201
     13          1           0       -2.269233   -1.208969    0.331123
     14          1           0       -1.120711    1.544234   -0.859370
 ---------------------------------------------------------------------

 SCF Done:  E(RB3LYP) =  -303.859875898     A.U. after    1 cycles

 The electronic state is 1-A.
 Alpha  occ. eigenvalues --  -19.18111 -14.35616 -14.28724 -10.29563 -10.22417
 Alpha  occ. eigenvalues --  -10.20664  -1.07307  -0.94085  -0.86306  -0.71814
 Alpha  occ. eigenvalues --   -0.68272  -0.58231  -0.54127  -0.48949  -0.47183
 Alpha  occ. eigenvalues --   -0.44285  -0.42654  -0.39995  -0.39000  -0.37968
 Alpha  occ. eigenvalues --   -0.36395  -0.28149  -0.26564  -0.22771
 Alpha virt. eigenvalues --    0.04535   0.06783   0.10609   0.13292   0.14497
 Alpha virt. eigenvalues --    0.15618   0.16223   0.16732   0.18674   0.19024
 Alpha virt. eigenvalues --    0.22798   0.25982   0.36282   0.41911   0.49443

 Mulliken charges:
               1
     1  C   -0.150114
     2  N   -0.453250
     3  C   -0.178153
     4  C    0.641870
     5  N   -0.582407
     6  O   -0.524620
     7  H    0.098248
     8  H    0.113143
     9  H    0.142310
    10  H    0.115960
    11  H    0.109677
    12  H    0.119201
    13  H    0.231279
    14  H    0.316855
 Sum of Mulliken charges =  -0.00000

 Dipole moment (field-independent basis, Debye):
    X=              1.6759    Y=              2.2339    Z=             -1.0213  Tot=              2.9735
 Quadrupole moment (field-independent basis, Debye-Ang):
   XX=            -35.1018   YY=            -36.6370   ZZ=            -36.8264
   XY=             -0.2624   XZ=              1.4428   YZ=             -0.2599

  Exact polarizability:  57.777   4.702  54.785  -1.404  -3.353  35.703
 Approx polarizability:  75.803   8.467  80.805  -3.990  -8.383  51.825

                      1                      2                      3
                      A                      A                      A
 Frequencies --    105.7303               154.3416               191.0139
 Red. masses --      3.8937                 1.1590                 1.1198
 Frc consts  --      0.0256                 0.0163                 0.0241
 IR Inten    --      3.5278                 1.7612                 1.0240

                      4                      5                      6
                      A                      A                      A
 Frequencies --    276.6712               310.9273               391.6826
 Red. masses --      2.1889                 3.1641                 2.2954
 Frc consts  --      0.0987                 0.1802                 0.2075
 IR Inten    --     15.7887                 7.4094                19.3074

                      7                      8                      9
                      A                      A                      A
 Frequencies --    460.3033               516.1180               573.0894
 Red. masses --      1.1307                 3.3381                 4.2160
 Frc consts  --      0.1412                 0.5239                 0.8158
 IR Inten    --    113.1060                 7.0070                11.4945

                     10                     11                     12
                      A                      A                      A
 Frequencies --    720.7931               780.6083               845.8562
 Red. masses --      6.4563                 3.8027                 1.1863
 Frc consts  --      1.9763                 1.3652                 0.5001
 IR Inten    --     19.3483                37.9987                60.5704

                     13                     14                     15
                      A                      A                      A
 Frequencies --   1015.4192              1080.0096              1099.8756
 Red. masses --      2.8006                 1.4554                 1.9116
 Frc consts  --      1.7013                 1.0002                 1.3625
 IR Inten    --     13.2263                17.0180               157.1362

                     16                     17                     18
                      A                      A                      A
 Frequencies --   1128.3789              1181.1288              1213.1012
 Red. masses --      1.2336                 1.4215                 1.3075
 Frc consts  --      0.9254                 1.1684                 1.1337
 IR Inten    --      6.4212                 8.2545                45.9552

                     19                     20                     21
                      A                      A                      A
 Frequencies --   1253.9533              1301.5052              1420.1481
 Red. masses --      3.1193                 1.9811                 2.6833
 Frc consts  --      2.8898                 1.9772                 3.1885
 IR Inten    --     16.2455               103.4741               213.4826

                     22                     23                     24
                      A                      A                      A
 Frequencies --   1453.7371              1486.0398              1493.4277
 Red. masses --      1.1447                 1.1530                 1.0897
 Frc consts  --      1.4253                 1.5002                 1.4319
 IR Inten    --      0.4003                30.9189                 3.0299

                     25                     26                     27
                      A                      A                      A
 Frequencies --   1508.6140              1515.4940              1539.8127
 Red. masses --      1.1108                 1.0548                 1.1174
 Frc consts  --      1.4895                 1.4273                 1.5610
 IR Inten    --     19.1726                 9.6883                32.8769

                     28                     29                     30
                      A                      A                      A
 Frequencies --   1765.2853              2998.4723              3017.9861
 Red. masses --      7.1183                 1.0533                 1.0480
 Frc consts  --     13.0695                 5.5794                 5.6238
 IR Inten    --    310.9607                56.2770                54.4450

                     31                     32                     33
                      A                      A                      A
 Frequencies --   3088.5113              3093.8723              3154.0722
 Red. masses --      1.0857                 1.0928                 1.0989
 Frc consts  --      6.1018                 6.1628                 6.4407
 IR Inten    --     31.4894                37.0222                17.6422

                     34                     35                     36
                      A                      A                      A
 Frequencies --   3171.4739              3513.1310              3790.0522
 Red. masses --      1.0989                 1.0744                 1.0652
 Frc consts  --      6.5125                 7.8129                 9.0154
 IR Inten    --      8.0040                 2.0157                24.0568

 - Thermochemistry -
 -------------------
 Temperature   298.150 Kelvin.  Pressure   1.00000 Atm.
 Atom     1 has atomic number  6 and mass  12.00000

 Molecular mass:    88.06366 amu.
 Principal axes and moments of inertia in atomic units:
                           1         2         3
     Eigenvalues --   356.82100 524.84225 812.66615
           X            0.99985   0.01528   0.00759
           Y           -0.01536   0.99982   0.01103
           Z           -0.00742  -0.01115   0.99991
 This molecule is an asymmetric top.
 Rotational symmetry number  1.
 Rotational temperatures (Kelvin)      0.24274     0.16503     0.10658
 Rotational constants (GHZ):           5.05783     3.43864     2.22077
 Zero-point vibrational energy     314681.5 (Joules/Mol)
                                   75.21068 (Kcal/Mol)
 Warning -- explicit consideration of   9 degrees of freedom as
           vibrations may cause significant error
 Vibrational temperatures:    152.12   222.06   274.83   398.07   447.35
          (Kelvin)            563.54   662.27   742.58   824.55  1037.06
                             1123.12  1217.00  1460.96  1553.89  1582.47
                             1623.48  1699.38  1745.38  1804.16  1872.57
                             2043.27  2091.60  2138.08  2148.71  2170.56
                             2180.46  2215.44  2539.85  4314.13  4342.20
                             4443.67  4451.39  4538.00  4563.04  5054.61
                             5453.03

 Zero-point correction=                           0.119856 (Hartree/Particle)
 Thermal correction to Energy=                    0.126901
 Thermal correction to Enthalpy=                  0.127845
 Thermal correction to Gibbs Free Energy=         0.089350
 Sum of electronic and zero-point Energies=           -303.740020
 Sum of electronic and thermal Energies=              -303.732975
 Sum of electronic and thermal Enthalpies=            -303.732031
 Sum of electronic and thermal Free Energies=         -303.770526

                     E (Thermal)             CV                S
                      KCal/Mol        Cal/Mol-Kelvin    Cal/Mol-Kelvin
 Total                   79.632             24.716             81.020
 Electronic               0.000              0.000              0.000
 Translational            0.889              2.981             39.339
 Rotational               0.889              2.981             26.523
 Vibrational             77.854             18.754             15.158
 Vibration     1          0.605              1.945              3.346
 Vibration     2          0.620              1.898              2.618
 Vibration     3          0.634              1.852              2.218
 Vibration     4          0.678              1.717              1.554
 Vibration     5          0.700              1.653              1.357
 Vibration     6          0.759              1.488              0.994
 Vibration     7          0.818              1.338              0.765
 Vibration     8          0.871              1.214              0.619
 Vibration     9          0.929              1.089              0.498

 Normal termination of Gaussian 09 at Fri Sep 10 15:27:22 2021.
