 Gaussian 09, Revision E.01,
 Gaussian 09:  ES64L-G09RevE.01 30-Nov-2015

 -------------------------
 #P OPT Freq B3LYP/6-31G**
 -------------------------

 --------
 Frag_150
 --------
 Symbolic Z-matrix:
 Charge =  0 Multiplicity = 1

 SCF Done:  E(RB3LYP) =  -228.571302615     A.U. after   14 cycles
 SCF Done:  E(RB3LYP) =  -228.580899820     A.U. after   12 cycles
 SCF Done:  E(RB3LYP) =  -228.584201587     A.U. after   12 cycles
 SCF Done:  E(RB3LYP) =  -228.588651718     A.U. after   14 cycles
 SCF Done:  E(RB3LYP) =  -228.589188443     A.U. after   11 cycles
 SCF Done:  E(RB3LYP) =  -228.589609696     A.U. after   11 cycles
 SCF Done:  E(RB3LYP) =  -228.589907652     A.U. after   11 cycles
 SCF Done:  E(RB3LYP) =  -228.560636605     A.U. after   14 cycles
 SCF Done:  E(RB3LYP) =  -228.590141564     A.U. after   11 cycles
 SCF Done:  E(RB3LYP) =  -228.590531186     A.U. after   11 cycles
 SCF Done:  E(RB3LYP) =  -228.590944273     A.U. after   11 cycles
 SCF Done:  E(RB3LYP) =  -228.591509927     A.U. after   11 cycles
 SCF Done:  E(RB3LYP) =  -228.591730465     A.U. after   11 cycles
 SCF Done:  E(RB3LYP) =  -228.591648310     A.U. after   11 cycles
 SCF Done:  E(RB3LYP) =  -228.591870597     A.U. after    8 cycles
 SCF Done:  E(RB3LYP) =  -228.591977077     A.U. after   10 cycles
 SCF Done:  E(RB3LYP) =  -228.591999716     A.U. after    9 cycles
 SCF Done:  E(RB3LYP) =  -228.592000529     A.U. after    8 cycles
 Optimization completed.
    -- Stationary point found.
 Normal termination of Gaussian 09 at Sat Aug 21 01:34:57 2021.

 ----------------------------------------------------------------------
 #P Geom=AllCheck Guess=TCheck SCRF=Check GenChk RB3LYP/6-31G(d,p) Freq
 ----------------------------------------------------------------------

 Structure from the checkpoint file:  "/public/home/users/caep010/.cache/gau_scr/Gau-144151.chk"
 --------
 Frag_150
 --------
 Charge =  0 Multiplicity = 1

                         Standard orientation:
 ---------------------------------------------------------------------
 Center     Atomic      Atomic             Coordinates (Angstroms)
 Number     Number       Type             X           Y           Z
 ---------------------------------------------------------------------
      1          6           0        1.610418   -0.894186    0.145444
      2          6           0        0.558726   -0.081510   -0.047628
      3          6           0        0.664313    1.419221   -0.037824
      4          7           0       -0.712386   -0.595664   -0.366862
      5          7           0       -1.821019    0.075434    0.213911
      6          1           0        2.611210   -0.494656    0.252332
      7          1           0        1.505405   -1.975990    0.155411
      8          1           0        0.278953    1.837131   -0.974103
      9          1           0        0.064952    1.851633    0.767999
     10          1           0        1.704621    1.725396    0.089217
     11          1           0       -0.742920   -1.609131   -0.278470
     12          1           0       -2.076370   -0.335757    1.112926
     13          1           0       -2.612755   -0.018167   -0.414607
 ---------------------------------------------------------------------

 SCF Done:  E(RB3LYP) =  -228.592000529     A.U. after    1 cycles

 The electronic state is 1-A.
 Alpha  occ. eigenvalues --  -14.35694 -14.34975 -10.21043 -10.16831 -10.15031
 Alpha  occ. eigenvalues --   -0.97071  -0.81189  -0.72151  -0.66900  -0.54794
 Alpha  occ. eigenvalues --   -0.51280  -0.49333  -0.45826  -0.40677  -0.39189
 Alpha  occ. eigenvalues --   -0.37321  -0.35045  -0.29578  -0.25877  -0.19642
 Alpha virt. eigenvalues --    0.04506   0.07687   0.10765   0.14109   0.15343
 Alpha virt. eigenvalues --    0.15616   0.17917   0.18941   0.19908   0.23984
 Alpha virt. eigenvalues --    0.26137   0.34250   0.39622   0.53428   0.54260

 Mulliken charges:
               1
     1  C   -0.329862
     2  C    0.337330
     3  C   -0.340976
     4  N   -0.440668
     5  N   -0.467339
     6  H    0.085580
     7  H    0.066841
     8  H    0.118468
     9  H    0.128589
    10  H    0.102943
    11  H    0.237699
    12  H    0.242461
    13  H    0.258934
 Sum of Mulliken charges =  -0.00000

 Dipole moment (field-independent basis, Debye):
    X=             -1.7359    Y=             -1.0860    Z=              0.6096  Tot=              2.1364
 Quadrupole moment (field-independent basis, Debye-Ang):
   XX=            -27.2319   YY=            -29.7658   ZZ=            -32.8749
   XY=              3.5551   XZ=             -0.5541   YZ=             -0.7544

  Exact polarizability:  62.893  -6.546  48.835   2.140  -1.200  30.577
 Approx polarizability:  87.749 -14.556  66.204   5.697  -2.272  43.948

                      1                      2                      3
                      A                      A                      A
 Frequencies --    112.0073               176.4891               284.7905
 Red. masses --      2.1978                 1.2339                 1.9451
 Frc consts  --      0.0162                 0.0226                 0.0930
 IR Inten    --      8.4366                 2.8984                26.5319

                      4                      5                      6
                      A                      A                      A
 Frequencies --    327.8712               431.0422               500.7133
 Red. masses --      1.3848                 2.1585                 2.1277
 Frc consts  --      0.0877                 0.2363                 0.3143
 IR Inten    --     38.5670                 2.4257                10.1114

                      7                      8                      9
                      A                      A                      A
 Frequencies --    568.8200               680.8788               762.6325
 Red. masses --      2.3731                 1.3209                 1.3831
 Frc consts  --      0.4524                 0.3608                 0.4739
 IR Inten    --      7.2676                50.6493                27.9954

                     10                     11                     12
                      A                      A                      A
 Frequencies --    813.5955               838.4639               923.1473
 Red. masses --      1.4255                 2.5805                 1.5680
 Frc consts  --      0.5559                 1.0689                 0.7873
 IR Inten    --     67.5153                 8.0470               102.0302

                     13                     14                     15
                      A                      A                      A
 Frequencies --    974.5707              1053.5704              1077.5587
 Red. masses --      1.4426                 1.5354                 1.5041
 Frc consts  --      0.8073                 1.0041                 1.0290
 IR Inten    --      3.1721                 7.5886                 1.5807

                     16                     17                     18
                      A                      A                      A
 Frequencies --   1161.8801              1310.6904              1367.5643
 Red. masses --      2.4188                 1.2089                 2.5718
 Frc consts  --      1.9238                 1.2236                 2.8339
 IR Inten    --      8.7279                 9.3263                47.2151

                     19                     20                     21
                      A                      A                      A
 Frequencies --   1415.6913              1430.2791              1482.7362
 Red. masses --      1.2208                 1.4420                 1.0518
 Frc consts  --      1.4416                 1.7380                 1.3624
 IR Inten    --     14.1050                12.1132                 6.0332

                     22                     23                     24
                      A                      A                      A
 Frequencies --   1496.4249              1516.3220              1685.2046
 Red. masses --      1.0844                 1.1529                 1.1445
 Frc consts  --      1.4307                 1.5619                 1.9150
 IR Inten    --      4.5448                 4.5497                11.6481

                     25                     26                     27
                      A                      A                      A
 Frequencies --   1725.2590              3054.8617              3116.8892
 Red. masses --      3.8853                 1.0375                 1.0982
 Frc consts  --      6.8138                 5.7046                 6.2857
 IR Inten    --     81.0875                19.9207                15.7201

                     28                     29                     30
                      A                      A                      A
 Frequencies --   3147.3281              3157.7915              3253.8356
 Red. masses --      1.1033                 1.0633                 1.1125
 Frc consts  --      6.4392                 6.2468                 6.9397
 IR Inten    --     19.7151                 8.2183                15.0021

                     31                     32                     33
                      A                      A                      A
 Frequencies --   3430.8800              3484.8362              3566.6467
 Red. masses --      1.0534                 1.0749                 1.0896
 Frc consts  --      7.3056                 7.6913                 8.1667
 IR Inten    --     22.3619                 5.8999                 0.8644

 - Thermochemistry -
 -------------------
 Temperature   298.150 Kelvin.  Pressure   1.00000 Atm.
 Atom     1 has atomic number  6 and mass  12.00000

 Molecular mass:    72.06875 amu.
 Principal axes and moments of inertia in atomic units:
                           1         2         3
     Eigenvalues --   219.90790 441.48584 618.84644
           X            0.99980   0.02007  -0.00181
           Y           -0.02008   0.99974  -0.01112
           Z            0.00159   0.01115   0.99994
 This molecule is an asymmetric top.
 Rotational symmetry number  1.
 Rotational temperatures (Kelvin)      0.39386     0.19619     0.13996
 Rotational constants (GHZ):           8.20680     4.08788     2.91630
 Zero-point vibrational energy     301047.9 (Joules/Mol)
                                   71.95217 (Kcal/Mol)
 Warning -- explicit consideration of   7 degrees of freedom as
           vibrations may cause significant error
 Vibrational temperatures:    161.15   253.93   409.75   471.73   620.17
          (Kelvin)            720.41   818.40   979.63  1097.26  1170.58
                             1206.36  1328.20  1402.19  1515.85  1550.36
                             1671.68  1885.79  1967.62  2036.86  2057.85
                             2133.32  2153.02  2181.65  2424.63  2482.26
                             4395.26  4484.50  4528.30  4543.35  4681.54
                             4936.26  5013.90  5131.60

 Zero-point correction=                           0.114663 (Hartree/Particle)
 Thermal correction to Energy=                    0.120886
 Thermal correction to Enthalpy=                  0.121830
 Thermal correction to Gibbs Free Energy=         0.085612
 Sum of electronic and zero-point Energies=           -228.477337
 Sum of electronic and thermal Energies=              -228.471115
 Sum of electronic and thermal Enthalpies=            -228.470171
 Sum of electronic and thermal Free Energies=         -228.506388

                     E (Thermal)             CV                S
                      KCal/Mol        Cal/Mol-Kelvin    Cal/Mol-Kelvin
 Total                   75.857             22.126             76.226
 Electronic               0.000              0.000              0.000
 Translational            0.889              2.981             38.742
 Rotational               0.889              2.981             25.600
 Vibrational             74.079             16.165             11.884
 Vibration     1          0.607              1.940              3.234
 Vibration     2          0.628              1.871              2.365
 Vibration     3          0.683              1.702              1.505
 Vibration     4          0.711              1.620              1.271
 Vibration     5          0.792              1.403              0.855
 Vibration     6          0.856              1.248              0.656
 Vibration     7          0.925              1.099              0.507

 Normal termination of Gaussian 09 at Sat Aug 21 01:35:06 2021.
