 Gaussian 09, Revision E.01,
 Gaussian 09:  ES64L-G09RevE.01 30-Nov-2015

 ----------------------------
 #P OPT Freq B3LYP/6-31G(d,p)
 ----------------------------

 --------
 Frag_888
 --------
 Symbolic Z-matrix:
 Charge =  0 Multiplicity = 1

 SCF Done:  E(RB3LYP) =  -319.786003858     A.U. after   15 cycles
 SCF Done:  E(RB3LYP) =  -319.786113408     A.U. after   11 cycles
 SCF Done:  E(RB3LYP) =  -319.786102626     A.U. after   11 cycles
 SCF Done:  E(RB3LYP) =  -319.786126156     A.U. after   11 cycles
 SCF Done:  E(RB3LYP) =  -319.786142346     A.U. after    9 cycles
 SCF Done:  E(RB3LYP) =  -319.786151222     A.U. after   11 cycles
 SCF Done:  E(RB3LYP) =  -319.786154808     A.U. after   11 cycles
 SCF Done:  E(RB3LYP) =  -319.786155700     A.U. after    9 cycles
 SCF Done:  E(RB3LYP) =  -319.786155999     A.U. after    9 cycles
 Optimization completed.
    -- Stationary point found.
 Normal termination of Gaussian 09 at Thu Sep  8 14:56:33 2022.

 ----------------------------------------------------------------------
 #P Geom=AllCheck Guess=TCheck SCRF=Check GenChk RB3LYP/6-31G(d,p) Freq
 ----------------------------------------------------------------------

 Structure from the checkpoint file:  "B3LYP6-31Gdp.Frag_888.chk"
 --------
 Frag_888
 --------
 Charge =  0 Multiplicity = 1

                         Standard orientation:
 ---------------------------------------------------------------------
 Center     Atomic      Atomic             Coordinates (Angstroms)
 Number     Number       Type             X           Y           Z
 ---------------------------------------------------------------------
      1          6           0        1.190658    1.292443    0.183032
      2          7           0        0.579561    0.063209   -0.325079
      3          6           0        1.312021   -1.172058   -0.040117
      4          7           0       -0.821786   -0.057331   -0.036788
      5          7           0       -1.587733    0.960514   -0.058217
      6          8           0       -1.228004   -1.205208    0.182097
      7          1           0        2.271118    1.186815    0.080066
      8          1           0        0.952300    1.481883    1.239022
      9          1           0        0.900675    2.161870   -0.413764
     10          1           0        2.325985   -1.033632   -0.420403
     11          1           0        0.843014   -2.000060   -0.565891
     12          1           0        1.349883   -1.412156    1.030795
     13          1           0       -1.025318    1.769892   -0.323502
 ---------------------------------------------------------------------

 SCF Done:  E(RB3LYP) =  -319.786155999     A.U. after    1 cycles

 The electronic state is 1-A.
 Alpha  occ. eigenvalues --  -19.15100 -14.55121 -14.40265 -14.35089 -10.24615
 Alpha  occ. eigenvalues --  -10.22789  -1.17814  -0.97700  -0.93398  -0.74469
 Alpha  occ. eigenvalues --   -0.72078  -0.60123  -0.57248  -0.52300  -0.50036
 Alpha  occ. eigenvalues --   -0.46614  -0.45194  -0.43757  -0.42480  -0.40088
 Alpha  occ. eigenvalues --   -0.30765  -0.28717  -0.26722  -0.25280
 Alpha virt. eigenvalues --   -0.02756   0.06274   0.08995   0.10510   0.12934
 Alpha virt. eigenvalues --    0.13264   0.15568   0.17355   0.19128   0.19616
 Alpha virt. eigenvalues --    0.21340   0.31459   0.35426   0.47711   0.51078

 Mulliken charges:
               1
     1  C   -0.198838
     2  N   -0.308333
     3  C   -0.162386
     4  N    0.392524
     5  N   -0.327364
     6  O   -0.438434
     7  H    0.135878
     8  H    0.135850
     9  H    0.132731
    10  H    0.116144
    11  H    0.161139
    12  H    0.121558
    13  H    0.239532
 Sum of Mulliken charges =  -0.00000

 Dipole moment (field-independent basis, Debye):
    X=              4.6253    Y=              1.8888    Z=             -0.0420  Tot=              4.9963
 Quadrupole moment (field-independent basis, Debye-Ang):
   XX=            -40.3571   YY=            -33.8037   ZZ=            -36.6692
   XY=             -0.8915   XZ=              1.2376   YZ=              0.1803

  Exact polarizability:  55.763  -2.722  57.688  -0.570  -2.011  32.065
 Approx polarizability:  81.429  -6.015 101.438  -3.262  -5.962  46.581

                      1                      2                      3
                      A                      A                      A
 Frequencies --     45.9395               159.5120               192.1062
 Red. masses --      3.6642                 1.1585                 1.1063
 Frc consts  --      0.0046                 0.0174                 0.0241
 IR Inten    --      3.8598                 2.3212                 0.4019

                      4                      5                      6
                      A                      A                      A
 Frequencies --    271.1671               375.5570               436.8109
 Red. masses --      3.1161                 2.9275                 2.4206
 Frc consts  --      0.1350                 0.2433                 0.2721
 IR Inten    --     10.3263                 7.1247                 2.6906

                      7                      8                      9
                      A                      A                      A
 Frequencies --    574.3855               593.4856               691.8469
 Red. masses --      4.1520                 4.6810                 1.7408
 Frc consts  --      0.8071                 0.9714                 0.4909
 IR Inten    --      1.3235                 6.3032                70.8667

                     10                     11                     12
                      A                      A                      A
 Frequencies --    766.1389               815.8470               950.5682
 Red. masses --      2.6194                 6.1464                 3.3751
 Frc consts  --      0.9059                 2.4104                 1.7968
 IR Inten    --      9.2030                24.6815                68.8497

                     13                     14                     15
                      A                      A                      A
 Frequencies --   1048.6505              1125.8499              1153.1225
 Red. masses --      1.5130                 1.2294                 1.4734
 Frc consts  --      0.9803                 0.9181                 1.1543
 IR Inten    --     13.8606                 2.2742                30.3302

                     16                     17                     18
                      A                      A                      A
 Frequencies --   1238.9393              1256.9682              1285.6071
 Red. masses --      1.9745                 2.3712                 4.1283
 Frc consts  --      1.7857                 2.2073                 4.0201
 IR Inten    --     30.6017                42.3428                 0.1215

                     19                     20                     21
                      A                      A                      A
 Frequencies --   1415.5672              1443.8486              1484.7807
 Red. masses --      1.8203                 1.1547                 1.1887
 Frc consts  --      2.1491                 1.4182                 1.5440
 IR Inten    --    240.6134                 9.5473                39.8891

                     22                     23                     24
                      A                      A                      A
 Frequencies --   1496.7527              1500.6722              1514.3607
 Red. masses --      1.1140                 1.0580                 1.0503
 Frc consts  --      1.4705                 1.4038                 1.4192
 IR Inten    --      7.1006                11.3091                 9.1650

                     25                     26                     27
                      A                      A                      A
 Frequencies --   1529.0272              1674.2888              3020.0080
 Red. masses --      1.0493                 5.0694                 1.0440
 Frc consts  --      1.4454                 8.3727                 5.6103
 IR Inten    --     27.3886               164.7107                28.2608

                     28                     29                     30
                      A                      A                      A
 Frequencies --   3032.1099              3099.8684              3126.2421
 Red. masses --      1.0490                 1.0981                 1.0923
 Frc consts  --      5.6821                 6.2167                 6.2897
 IR Inten    --     41.2175                21.3817                17.6118

                     31                     32                     33
                      A                      A                      A
 Frequencies --   3154.5806              3193.6992              3495.1921
 Red. masses --      1.0974                 1.0998                 1.0727
 Frc consts  --      6.4345                 6.6095                 7.7210
 IR Inten    --     10.9350                 2.8879                 1.4455

 - Thermochemistry -
 -------------------
 Temperature   298.150 Kelvin.  Pressure   1.00000 Atm.
 Atom     1 has atomic number  6 and mass  12.00000

 Molecular mass:    89.05891 amu.
 Principal axes and moments of inertia in atomic units:
                           1         2         3
     Eigenvalues --   346.98283 473.39679 778.38989
           X            0.99897  -0.04410   0.01068
           Y            0.04404   0.99901   0.00664
           Z           -0.01096  -0.00616   0.99992
 This molecule is an asymmetric top.
 Rotational symmetry number  1.
 Rotational temperatures (Kelvin)      0.24962     0.18296     0.11127
 Rotational constants (GHZ):           5.20124     3.81232     2.31856
 Zero-point vibrational energy     282100.4 (Joules/Mol)
                                   67.42361 (Kcal/Mol)
 Warning -- explicit consideration of   8 degrees of freedom as
           vibrations may cause significant error
 Vibrational temperatures:     66.10   229.50   276.40   390.15   540.34
          (Kelvin)            628.47   826.41   853.89   995.41  1102.30
                             1173.82  1367.65  1508.77  1619.84  1659.08
                             1782.56  1808.49  1849.70  2036.68  2077.37
                             2136.27  2153.49  2159.13  2178.82  2199.93
                             2408.93  4345.11  4362.52  4460.01  4497.96
                             4538.73  4595.02  5028.80

 Zero-point correction=                           0.107446 (Hartree/Particle)
 Thermal correction to Energy=                    0.114203
 Thermal correction to Enthalpy=                  0.115147
 Thermal correction to Gibbs Free Energy=         0.076592
 Sum of electronic and zero-point Energies=           -319.678710
 Sum of electronic and thermal Energies=              -319.671953
 Sum of electronic and thermal Enthalpies=            -319.671009
 Sum of electronic and thermal Free Energies=         -319.709564

                     E (Thermal)             CV                S
                      KCal/Mol        Cal/Mol-Kelvin    Cal/Mol-Kelvin
 Total                   71.663             22.997             81.146
 Electronic               0.000              0.000              0.000
 Translational            0.889              2.981             39.373
 Rotational               0.889              2.981             26.350
 Vibrational             69.886             17.036             15.424
 Vibration     1          0.595              1.979              4.985
 Vibration     2          0.621              1.892              2.556
 Vibration     3          0.634              1.851              2.207
 Vibration     4          0.675              1.726              1.589
 Vibration     5          0.746              1.522              1.057
 Vibration     6          0.797              1.390              0.837
 Vibration     7          0.931              1.087              0.496
 Vibration     8          0.951              1.046              0.461

 Normal termination of Gaussian 09 at Thu Sep  8 14:56:44 2022.
