 Gaussian 09, Revision E.01,
 Gaussian 09:  ES64L-G09RevE.01 30-Nov-2015

 ----------------------------
 #P OPT Freq B3LYP/6-31G(d,p)
 ----------------------------

 --------
 Frag_812
 --------
 Symbolic Z-matrix:
 Charge =  0 Multiplicity = 1

 SCF Done:  E(RB3LYP) =  -265.667462627     A.U. after   13 cycles
 SCF Done:  E(RB3LYP) =  -265.667514095     A.U. after   10 cycles
 SCF Done:  E(RB3LYP) =  -265.667522488     A.U. after    8 cycles
 SCF Done:  E(RB3LYP) =  -265.667523707     A.U. after    8 cycles
 SCF Done:  E(RB3LYP) =  -265.667523780     A.U. after    7 cycles
 SCF Done:  E(RB3LYP) =  -265.667523834     A.U. after    6 cycles
 Optimization completed.
    -- Stationary point found.
 Normal termination of Gaussian 09 at Thu Sep  8 15:07:39 2022.

 ----------------------------------------------------------------------
 #P Geom=AllCheck Guess=TCheck SCRF=Check GenChk RB3LYP/6-31G(d,p) Freq
 ----------------------------------------------------------------------

 Structure from the checkpoint file:  "B3LYP6-31Gdp.Frag_812.chk"
 --------
 Frag_812
 --------
 Charge =  0 Multiplicity = 1

                         Standard orientation:
 ---------------------------------------------------------------------
 Center     Atomic      Atomic             Coordinates (Angstroms)
 Number     Number       Type             X           Y           Z
 ---------------------------------------------------------------------
      1          6           0       -1.919259   -0.051898   -0.144313
      2          8           0       -0.698077   -0.499380    0.422087
      3          7           0        0.396820    0.028502   -0.360324
      4          6           0        1.495150   -0.885879   -0.054874
      5          7           0        0.633139    1.344103    0.116490
      6          1           0       -2.039271   -0.411932   -1.174037
      7          1           0       -1.981241    1.042553   -0.130950
      8          1           0       -2.708093   -0.468033    0.488015
      9          1           0        2.382288   -0.549106   -0.597636
     10          1           0        1.715872   -0.917775    1.024751
     11          1           0        1.226529   -1.888925   -0.391109
     12          1           0        1.244184    1.341974    0.938664
     13          1           0        1.079290    1.864705   -0.632428
 ---------------------------------------------------------------------

 SCF Done:  E(RB3LYP) =  -265.667523834     A.U. after    1 cycles

 The electronic state is 1-A.
 Alpha  occ. eigenvalues --  -19.15798 -14.39722 -14.34447 -10.21037 -10.20641
 Alpha  occ. eigenvalues --   -1.06331  -0.92154  -0.77920  -0.67305  -0.61948
 Alpha  occ. eigenvalues --   -0.51087  -0.49589  -0.47890  -0.43588  -0.41719
 Alpha  occ. eigenvalues --   -0.40524  -0.38235  -0.34600  -0.27364  -0.25822
 Alpha  occ. eigenvalues --   -0.22266
 Alpha virt. eigenvalues --    0.07834   0.11041   0.13488   0.13687   0.15372
 Alpha virt. eigenvalues --    0.15960   0.16871   0.18328   0.19021   0.20124
 Alpha virt. eigenvalues --    0.21269   0.25884   0.53071   0.53494   0.55809

 Mulliken charges:
               1
     1  C   -0.042390
     2  O   -0.386662
     3  N   -0.132747
     4  C   -0.143634
     5  N   -0.419532
     6  H    0.094443
     7  H    0.109820
     8  H    0.104579
     9  H    0.105799
    10  H    0.095372
    11  H    0.129111
    12  H    0.227514
    13  H    0.258328
 Sum of Mulliken charges =  -0.00000

 Dipole moment (field-independent basis, Debye):
    X=              1.5673    Y=              0.4513    Z=             -0.3216  Tot=              1.6623
 Quadrupole moment (field-independent basis, Debye-Ang):
   XX=            -25.6716   YY=            -30.7492   ZZ=            -32.1279
   XY=              1.6464   XZ=              0.6679   YZ=             -0.2037

  Exact polarizability:  50.789   2.443  42.756   0.582   0.214  36.064
 Approx polarizability:  60.445   4.945  57.719  -0.085  -1.128  51.823

                      1                      2                      3
                      A                      A                      A
 Frequencies --    118.0820               203.9975               260.9059
 Red. masses --      2.6656                 1.1015                 1.2202
 Frc consts  --      0.0219                 0.0270                 0.0489
 IR Inten    --      9.9346                 3.9435                 6.6125

                      4                      5                      6
                      A                      A                      A
 Frequencies --    302.6245               323.8913               417.6280
 Red. masses --      1.0820                 2.2127                 2.4390
 Frc consts  --      0.0584                 0.1368                 0.2506
 IR Inten    --     41.0029                 1.9719                 3.7043

                      7                      8                      9
                      A                      A                      A
 Frequencies --    524.8211               557.2675               782.7430
 Red. masses --      2.8793                 3.4473                 2.4104
 Frc consts  --      0.4673                 0.6307                 0.8701
 IR Inten    --      2.4911                 0.6984                92.4451

                     10                     11                     12
                      A                      A                      A
 Frequencies --    806.5449              1008.4645              1080.7149
 Red. masses --      4.3635                 1.6749                 5.0855
 Frc consts  --      1.6724                 1.0036                 3.4995
 IR Inten    --     27.3958                28.1255               114.1705

                     13                     14                     15
                      A                      A                      A
 Frequencies --   1118.4530              1162.3019              1181.7154
 Red. masses --      2.4230                 1.7027                 1.3043
 Frc consts  --      1.7858                 1.3553                 1.0731
 IR Inten    --      1.5309                 2.9600                 2.3603

                     16                     17                     18
                      A                      A                      A
 Frequencies --   1201.6338              1240.4064              1327.1566
 Red. masses --      1.6983                 1.8658                 1.3228
 Frc consts  --      1.4448                 1.6914                 1.3728
 IR Inten    --     20.4747                 3.8134                 3.5209

                     19                     20                     21
                      A                      A                      A
 Frequencies --   1446.4945              1463.3923              1483.6845
 Red. masses --      1.1964                 1.1545                 1.0501
 Frc consts  --      1.4749                 1.4567                 1.3620
 IR Inten    --      0.7981                 2.2591                 2.6493

                     22                     23                     24
                      A                      A                      A
 Frequencies --   1489.8480              1510.2164              1529.5461
 Red. masses --      1.0480                 1.0488                 1.0494
 Frc consts  --      1.3705                 1.4094                 1.4465
 IR Inten    --      5.1516                 5.9806                 7.9863

                     25                     26                     27
                      A                      A                      A
 Frequencies --   1655.2596              2987.6173              3020.3788
 Red. masses --      1.0870                 1.0517                 1.0320
 Frc consts  --      1.7548                 5.5311                 5.5470
 IR Inten    --     10.9890                56.2857                59.7362

                     28                     29                     30
                      A                      A                      A
 Frequencies --   3088.2148              3104.5902              3130.5197
 Red. masses --      1.1051                 1.0821                 1.1025
 Frc consts  --      6.2098                 6.1452                 6.3658
 IR Inten    --     40.4953                29.0185                26.3506

                     31                     32                     33
                      A                      A                      A
 Frequencies --   3152.6993              3392.5564              3577.8867
 Red. masses --      1.1041                 1.0548                 1.0870
 Frc consts  --      6.4658                 7.1525                 8.1985
 IR Inten    --     17.9354                15.0441                 2.4837

 - Thermochemistry -
 -------------------
 Temperature   298.150 Kelvin.  Pressure   1.00000 Atm.
 Atom     1 has atomic number  6 and mass  12.00000

 Molecular mass:    76.06366 amu.
 Principal axes and moments of inertia in atomic units:
                           1         2         3
     Eigenvalues --   213.88872 445.62581 590.78741
           X            0.99962  -0.02276   0.01556
           Y            0.02265   0.99972   0.00734
           Z           -0.01572  -0.00698   0.99985
 This molecule is an asymmetric top.
 Rotational symmetry number  1.
 Rotational temperatures (Kelvin)      0.40495     0.19436     0.14661
 Rotational constants (GHZ):           8.43776     4.04990     3.05481
 Zero-point vibrational energy     296986.4 (Joules/Mol)
                                   70.98146 (Kcal/Mol)
 Warning -- explicit consideration of   8 degrees of freedom as
           vibrations may cause significant error
 Vibrational temperatures:    169.89   293.51   375.38   435.41   466.01
          (Kelvin)            600.87   755.10   801.78  1126.19  1160.44
                             1450.95  1554.91  1609.20  1672.29  1700.22
                             1728.88  1784.67  1909.48  2081.18  2105.49
                             2134.69  2143.56  2172.86  2200.67  2381.55
                             4298.51  4345.65  4443.25  4466.81  4504.11
                             4536.03  4881.13  5147.77

 Zero-point correction=                           0.113116 (Hartree/Particle)
 Thermal correction to Energy=                    0.119525
 Thermal correction to Enthalpy=                  0.120470
 Thermal correction to Gibbs Free Energy=         0.083905
 Sum of electronic and zero-point Energies=           -265.554408
 Sum of electronic and thermal Energies=              -265.547999
 Sum of electronic and thermal Enthalpies=            -265.547054
 Sum of electronic and thermal Free Energies=         -265.583619

                     E (Thermal)             CV                S
                      KCal/Mol        Cal/Mol-Kelvin    Cal/Mol-Kelvin
 Total                   75.003             22.254             76.957
 Electronic               0.000              0.000              0.000
 Translational            0.889              2.981             38.903
 Rotational               0.889              2.981             25.535
 Vibrational             73.226             16.292             12.519
 Vibration     1          0.608              1.934              3.132
 Vibration     2          0.640              1.834              2.097
 Vibration     3          0.669              1.744              1.656
 Vibration     4          0.694              1.669              1.402
 Vibration     5          0.708              1.628              1.290
 Vibration     6          0.781              1.432              0.900
 Vibration     7          0.880              1.195              0.599
 Vibration     8          0.913              1.124              0.529

 Optimization completed.
    -- Stationary point found.
 Normal termination of Gaussian 09 at Thu Sep  8 15:07:48 2022.
