 Gaussian 09, Revision E.01,
 Gaussian 09:  ES64L-G09RevE.01 30-Nov-2015

 ----------------------------
 #P OPT Freq B3LYP/6-31G(d,p)
 ----------------------------

 --------
 Frag_727
 --------
 Symbolic Z-matrix:
 Charge =  0 Multiplicity = 1

 SCF Done:  E(RB3LYP) =  -320.286838940     A.U. after   14 cycles
 SCF Done:  E(RB3LYP) =  -320.286962438     A.U. after   11 cycles
 SCF Done:  E(RB3LYP) =  -320.286978964     A.U. after   11 cycles
 SCF Done:  E(RB3LYP) =  -320.286984181     A.U. after    9 cycles
 SCF Done:  E(RB3LYP) =  -320.286984083     A.U. after    8 cycles
 SCF Done:  E(RB3LYP) =  -320.286985121     A.U. after    8 cycles
 Optimization completed.
    -- Stationary point found.
 Normal termination of Gaussian 09 at Thu Sep  8 15:22:09 2022.

 ----------------------------------------------------------------------
 #P Geom=AllCheck Guess=TCheck SCRF=Check GenChk RB3LYP/6-31G(d,p) Freq
 ----------------------------------------------------------------------

 Structure from the checkpoint file:  "B3LYP6-31Gdp.Frag_727.chk"
 --------
 Frag_727
 --------
 Charge =  0 Multiplicity = 1

                         Standard orientation:
 ---------------------------------------------------------------------
 Center     Atomic      Atomic             Coordinates (Angstroms)
 Number     Number       Type             X           Y           Z
 ---------------------------------------------------------------------
      1          8           0        0.332603    1.349211    0.005965
      2          6           0        0.487791    0.147403   -0.002277
      3          8           0        1.703910   -0.438420    0.028723
      4          7           0       -0.575600   -0.749450   -0.091874
      5          8           0       -1.835648   -0.111956   -0.011744
      6          1           0        1.634271   -1.363322   -0.253290
      7          1           0       -0.554911   -1.492039    0.603790
      8          1           0       -1.583818    0.826415    0.122732
 ---------------------------------------------------------------------

 SCF Done:  E(RB3LYP) =  -320.286985121     A.U. after    1 cycles

 The electronic state is 1-A.
 Alpha  occ. eigenvalues --  -19.21984 -19.19241 -19.15336 -14.42522 -10.36090
 Alpha  occ. eigenvalues --   -1.13934  -1.08537  -1.03725  -0.86165  -0.64842
 Alpha  occ. eigenvalues --   -0.61759  -0.54348  -0.48516  -0.45500  -0.43933
 Alpha  occ. eigenvalues --   -0.39916  -0.37128  -0.33652  -0.31100  -0.25731
 Alpha virt. eigenvalues --    0.01184   0.03051   0.08011   0.10212   0.14339
 Alpha virt. eigenvalues --    0.22160   0.34506   0.37812   0.51832   0.54625
 Alpha virt. eigenvalues --    0.57712   0.63996   0.66029   0.69150   0.74023

 Mulliken charges:
               1
     1  O   -0.474405
     2  C    0.727216
     3  O   -0.483255
     4  N   -0.287028
     5  O   -0.438816
     6  H    0.331276
     7  H    0.285237
     8  H    0.339775
 Sum of Mulliken charges =   0.00000

 Dipole moment (field-independent basis, Debye):
    X=              0.5864    Y=             -3.1858    Z=              0.8373  Tot=              3.3458
 Quadrupole moment (field-independent basis, Debye-Ang):
   XX=            -31.6882   YY=            -25.3437   ZZ=            -27.6477
   XY=             -5.3991   XZ=             -1.9782   YZ=             -0.9538

  Exact polarizability:  33.568  -2.094  33.159   0.045  -0.162  14.909
 Approx polarizability:  47.283  -2.499  55.625   1.268   0.640  20.850

                      1                      2                      3
                      A                      A                      A
 Frequencies --    188.2097               303.5955               371.2025
 Red. masses --      4.2414                 4.3046                 1.2201
 Frc consts  --      0.0885                 0.2338                 0.0991
 IR Inten    --     20.2401                31.7546                70.5737

                      4                      5                      6
                      A                      A                      A
 Frequencies --    433.1729               510.1665               573.7315
 Red. masses --      1.2689                 2.9301                 2.3343
 Frc consts  --      0.1403                 0.4493                 0.4527
 IR Inten    --    144.9682                24.8582                94.8251

                      7                      8                      9
                      A                      A                      A
 Frequencies --    708.2542               772.9354              1006.3824
 Red. masses --      5.2283                 4.4174                 3.3534
 Frc consts  --      1.5452                 1.5549                 2.0011
 IR Inten    --     24.8282               107.1613                 9.5702

                     10                     11                     12
                      A                      A                      A
 Frequencies --   1094.3041              1200.7385              1331.0963
 Red. masses --      9.4282                 1.4524                 1.6504
 Frc consts  --      6.6521                 1.2337                 1.7229
 IR Inten    --     44.0741                33.2300               168.7225

                     13                     14                     15
                      A                      A                      A
 Frequencies --   1407.7388              1529.6123              1860.4575
 Red. masses --      1.7905                 1.2618                 8.6679
 Frc consts  --      2.0906                 1.7394                17.6768
 IR Inten    --    393.1177                22.5730               261.7185

                     16                     17                     18
                      A                      A                      A
 Frequencies --   3521.1219              3591.7354              3784.7993
 Red. masses --      1.0770                 1.0656                 1.0656
 Frc consts  --      7.8671                 8.0992                 8.9931
 IR Inten    --     13.6539                68.5720                51.0553

 - Thermochemistry -
 -------------------
 Temperature   298.150 Kelvin.  Pressure   1.00000 Atm.
 Atom     1 has atomic number  8 and mass  15.99491

 Molecular mass:    77.01129 amu.
 Principal axes and moments of inertia in atomic units:
                           1         2         3
     Eigenvalues --   163.33519 413.53917 572.82788
           X            0.99923  -0.03836  -0.00796
           Y            0.03828   0.99922  -0.00988
           Z            0.00834   0.00957   0.99992
 This molecule is an asymmetric top.
 Rotational symmetry number  1.
 Rotational temperatures (Kelvin)      0.53028     0.20945     0.15120
 Rotational constants (GHZ):          11.04931     4.36414     3.15058
 Zero-point vibrational energy     144683.9 (Joules/Mol)
                                   34.58028 (Kcal/Mol)
 Warning -- explicit consideration of   6 degrees of freedom as
           vibrations may cause significant error
 Vibrational temperatures:    270.79   436.81   534.08   623.24   734.01
          (Kelvin)            825.47  1019.02  1112.08  1447.96  1574.46
                             1727.59  1915.15  2025.42  2200.77  2676.78
                             5066.10  5167.70  5445.48

 Zero-point correction=                           0.055107 (Hartree/Particle)
 Thermal correction to Energy=                    0.060240
 Thermal correction to Enthalpy=                  0.061184
 Thermal correction to Gibbs Free Energy=         0.027177
 Sum of electronic and zero-point Energies=           -320.231878
 Sum of electronic and thermal Energies=              -320.226745
 Sum of electronic and thermal Enthalpies=            -320.225801
 Sum of electronic and thermal Free Energies=         -320.259808

                     E (Thermal)             CV                S
                      KCal/Mol        Cal/Mol-Kelvin    Cal/Mol-Kelvin
 Total                   37.801             17.423             71.575
 Electronic               0.000              0.000              0.000
 Translational            0.889              2.981             38.939
 Rotational               0.889              2.981             25.162
 Vibrational             36.024             11.462              7.473
 Vibration     1          0.633              1.856              2.245
 Vibration     2          0.695              1.667              1.397
 Vibration     3          0.743              1.531              1.075
 Vibration     4          0.794              1.398              0.848
 Vibration     5          0.865              1.227              0.633
 Vibration     6          0.930              1.088              0.497

 Optimization completed.
    -- Stationary point found.
 Normal termination of Gaussian 09 at Thu Sep  8 15:22:15 2022.
