 Gaussian 09, Revision E.01,
 Gaussian 09:  ES64L-G09RevE.01 30-Nov-2015

 -------------------------
 #P OPT Freq B3LYP/6-31G**
 -------------------------

 --------
 Frag_260
 --------
 Symbolic Z-matrix:
 Charge =  0 Multiplicity = 1

 SCF Done:  E(RB3LYP) =  -247.271878230     A.U. after   14 cycles
 SCF Done:  E(RB3LYP) =  -247.283610843     A.U. after   12 cycles
 SCF Done:  E(RB3LYP) =  -247.284241098     A.U. after   12 cycles
 SCF Done:  E(RB3LYP) =  -247.284290618     A.U. after    9 cycles
 SCF Done:  E(RB3LYP) =  -247.284293875     A.U. after    8 cycles
 Optimization completed.
    -- Stationary point found.
 Normal termination of Gaussian 09 at Sat Aug 21 01:36:00 2021.

 ----------------------------------------------------------------------
 #P Geom=AllCheck Guess=TCheck SCRF=Check GenChk RB3LYP/6-31G(d,p) Freq
 ----------------------------------------------------------------------

 Structure from the checkpoint file:  "/public/home/users/caep010/.cache/gau_scr/Gau-17442.chk"
 --------
 Frag_260
 --------
 Charge =  0 Multiplicity = 1

                         Standard orientation:
 ---------------------------------------------------------------------
 Center     Atomic      Atomic             Coordinates (Angstroms)
 Number     Number       Type             X           Y           Z
 ---------------------------------------------------------------------
      1          6           0       -1.745777   -0.554856   -0.000003
      2          6           0       -0.419817    0.165391    0.000013
      3          8           0       -0.315436    1.378415   -0.000003
      4          6           0        0.839427   -0.690640   -0.000003
      5          7           0        2.008519   -0.193759   -0.000001
      6          1           0       -1.821799   -1.205231    0.879811
      7          1           0       -2.564989    0.164388   -0.000045
      8          1           0       -1.821755   -1.205287   -0.879779
      9          1           0        0.718532   -1.778256    0.000002
     10          1           0        1.910869    0.834013    0.000003
 ---------------------------------------------------------------------

 SCF Done:  E(RB3LYP) =  -247.284293875     A.U. after    1 cycles

 The electronic state is 1-A.
 Alpha  occ. eigenvalues --  -19.16368 -14.34530 -10.29603 -10.24544 -10.20817
 Alpha  occ. eigenvalues --   -1.06220  -0.91700  -0.77112  -0.65466  -0.56056
 Alpha  occ. eigenvalues --   -0.49880  -0.46516  -0.46090  -0.42265  -0.41606
 Alpha  occ. eigenvalues --   -0.38710  -0.33149  -0.30029  -0.26326
 Alpha virt. eigenvalues --   -0.07910   0.04086   0.09437   0.12105   0.14199
 Alpha virt. eigenvalues --    0.15143   0.16326   0.20944   0.28846   0.31464
 Alpha virt. eigenvalues --    0.34918   0.50841   0.53115   0.56230   0.56383

 Mulliken charges:
               1
     1  C   -0.397646
     2  C    0.404491
     3  O   -0.436175
     4  C    0.077893
     5  N   -0.434944
     6  H    0.140277
     7  H    0.146644
     8  H    0.140276
     9  H    0.104441
    10  H    0.254743
 Sum of Mulliken charges =  -0.00000

 Dipole moment (field-independent basis, Debye):
    X=             -2.2689    Y=             -1.7896    Z=              0.0000  Tot=              2.8897
 Quadrupole moment (field-independent basis, Debye-Ang):
   XX=            -32.7825   YY=            -30.7081   ZZ=            -28.8108
   XY=              3.8444   XZ=              0.0000   YZ=              0.0000

  Exact polarizability:  49.921   3.825  43.076   0.000  -0.000  23.713
 Approx polarizability:  70.904   6.758  70.022   0.000  -0.000  34.001

                      1                      2                      3
                      A                      A                      A
 Frequencies --    118.1833               135.3623               278.2841
 Red. masses --      1.0778                 2.3724                 3.7218
 Frc consts  --      0.0089                 0.0256                 0.1698
 IR Inten    --      0.2363                 0.0899                 8.4393

                      4                      5                      6
                      A                      A                      A
 Frequencies --    414.4230               490.6514               632.8365
 Red. masses --      3.6006                 2.1318                 3.9524
 Frc consts  --      0.3643                 0.3024                 0.9326
 IR Inten    --     10.2957                15.1038                12.2349

                      7                      8                      9
                      A                      A                      A
 Frequencies --    796.7909               819.4522               975.1559
 Red. masses --      1.6172                 3.1514                 1.9804
 Frc consts  --      0.6049                 1.2468                 1.1095
 IR Inten    --     11.1667                19.9236                 9.4512

                     10                     11                     12
                      A                      A                      A
 Frequencies --   1053.6856              1173.8884              1204.2479
 Red. masses --      1.9860                 1.0733                 2.2881
 Frc consts  --      1.2992                 0.8714                 1.9551
 IR Inten    --      3.7172                54.4410                43.4800

                     13                     14                     15
                      A                      A                      A
 Frequencies --   1253.1328              1398.2775              1433.9270
 Red. masses --      1.3247                 1.3192                 1.3010
 Frc consts  --      1.2257                 1.5196                 1.5761
 IR Inten    --    161.3665                45.2813                15.7541

                     16                     17                     18
                      A                      A                      A
 Frequencies --   1473.8572              1482.4301              1707.6102
 Red. masses --      1.0588                 1.0480                 9.5696
 Frc consts  --      1.3551                 1.3569                16.4408
 IR Inten    --     11.6279                10.1548                22.3988

                     19                     20                     21
                      A                      A                      A
 Frequencies --   1810.4378              3041.9871              3101.1322
 Red. masses --     10.3565                 1.0385                 1.0989
 Frc consts  --     20.0000                 5.6623                 6.2267
 IR Inten    --     79.7676                 0.5841                 6.0653

                     22                     23                     24
                      A                      A                      A
 Frequencies --   3109.7701              3171.5557              3360.6063
 Red. masses --      1.0900                 1.1019                 1.0716
 Frc consts  --      6.2107                 6.5306                 7.1307
 IR Inten    --     28.8788                 6.5093                 2.2808

 - Thermochemistry -
 -------------------
 Temperature   298.150 Kelvin.  Pressure   1.00000 Atm.
 Atom     1 has atomic number  6 and mass  12.00000

 Molecular mass:    71.03711 amu.
 Principal axes and moments of inertia in atomic units:
                           1         2         3
     Eigenvalues --   173.79780 444.18921 606.84390
           X            0.99830   0.05833   0.00000
           Y           -0.05833   0.99830   0.00000
           Z           -0.00000  -0.00000   1.00000
 This molecule is an asymmetric top.
 Rotational symmetry number  1.
 Rotational temperatures (Kelvin)      0.49836     0.19499     0.14273
 Rotational constants (GHZ):          10.38414     4.06300     2.97398
 Zero-point vibrational energy     205983.1 (Joules/Mol)
                                   49.23114 (Kcal/Mol)
 Warning -- explicit consideration of   5 degrees of freedom as
           vibrations may cause significant error
 Vibrational temperatures:    170.04   194.76   400.39   596.26   705.94
          (Kelvin)            910.51  1146.40  1179.01  1403.03  1516.02
                             1688.96  1732.64  1802.98  2011.81  2063.10
                             2120.55  2132.88  2456.87  2604.81  4376.74
                             4461.83  4474.26  4563.16  4835.16

 Zero-point correction=                           0.078455 (Hartree/Particle)
 Thermal correction to Energy=                    0.084074
 Thermal correction to Enthalpy=                  0.085018
 Thermal correction to Gibbs Free Energy=         0.049691
 Sum of electronic and zero-point Energies=           -247.205839
 Sum of electronic and thermal Energies=              -247.200220
 Sum of electronic and thermal Enthalpies=            -247.199276
 Sum of electronic and thermal Free Energies=         -247.234602

                     E (Thermal)             CV                S
                      KCal/Mol        Cal/Mol-Kelvin    Cal/Mol-Kelvin
 Total                   52.757             18.223             74.351
 Electronic               0.000              0.000              0.000
 Translational            0.889              2.981             38.699
 Rotational               0.889              2.981             25.352
 Vibrational             50.980             12.261             10.300
 Vibration     1          0.608              1.934              3.130
 Vibration     2          0.613              1.918              2.868
 Vibration     3          0.679              1.714              1.544
 Vibration     4          0.778              1.439              0.911
 Vibration     5          0.846              1.271              0.682

 Optimization completed.
    -- Stationary point found.
 Normal termination of Gaussian 09 at Sat Aug 21 01:36:07 2021.
