 Gaussian 09, Revision E.01,
 Gaussian 09:  ES64L-G09RevE.01 30-Nov-2015

 ----------------------------
 #P OPT Freq B3LYP/6-31G(d,p)
 ----------------------------

 --------
 Frag_471
 --------
 Symbolic Z-matrix:
 Charge =  0 Multiplicity = 1

 SCF Done:  E(RB3LYP) =  -324.935451650     A.U. after   13 cycles
 SCF Done:  E(RB3LYP) =  -324.935519861     A.U. after   10 cycles
 SCF Done:  E(RB3LYP) =  -324.935536957     A.U. after   10 cycles
 SCF Done:  E(RB3LYP) =  -324.935548269     A.U. after    9 cycles
 SCF Done:  E(RB3LYP) =  -324.935552886     A.U. after    8 cycles
 SCF Done:  E(RB3LYP) =  -324.935554096     A.U. after    7 cycles
 SCF Done:  E(RB3LYP) =  -324.935554595     A.U. after    7 cycles
 SCF Done:  E(RB3LYP) =  -324.935554747     A.U. after    7 cycles
 Optimization completed.
    -- Stationary point found.
 Normal termination of Gaussian 09 at Thu Sep  8 15:01:31 2022.

 ----------------------------------------------------------------------
 #P Geom=AllCheck Guess=TCheck SCRF=Check GenChk RB3LYP/6-31G(d,p) Freq
 ----------------------------------------------------------------------

 Structure from the checkpoint file:  "B3LYP6-31Gdp.Frag_471.chk"
 --------
 Frag_471
 --------
 Charge =  0 Multiplicity = 1

                         Standard orientation:
 ---------------------------------------------------------------------
 Center     Atomic      Atomic             Coordinates (Angstroms)
 Number     Number       Type             X           Y           Z
 ---------------------------------------------------------------------
      1          6           0       -1.817902   -0.605748    0.617419
      2          6           0       -0.692773   -0.290771   -0.367718
      3          8           0       -0.900669    0.970573   -0.996588
      4          6           0        0.694467   -0.345447    0.315227
      5          7           0        0.982940    0.947546    0.906032
      6          8           0        1.626486   -0.760232   -0.683951
      7          1           0       -1.738029   -1.627313    1.004622
      8          1           0       -2.786984   -0.497707    0.123189
      9          1           0       -1.782162    0.082189    1.470474
     10          1           0       -0.684525   -1.023943   -1.179424
     11          1           0       -0.961312    1.615501   -0.275806
     12          1           0        0.667479   -1.080169    1.133815
     13          1           0        1.229798    1.589747    0.156038
     14          1           0        1.768135    0.899505    1.548926
     15          1           0        2.497737   -0.821557   -0.269318
 ---------------------------------------------------------------------

 SCF Done:  E(RB3LYP) =  -324.935554747     A.U. after    1 cycles

 The electronic state is 1-A.
 Alpha  occ. eigenvalues --  -19.14206 -19.13400 -14.32610 -10.25778 -10.22630
 Alpha  occ. eigenvalues --  -10.17208  -1.02719  -1.00410  -0.87843  -0.75134
 Alpha  occ. eigenvalues --   -0.66284  -0.58817  -0.52719  -0.50579  -0.47737
 Alpha  occ. eigenvalues --   -0.43635  -0.42114  -0.41475  -0.37810  -0.36041
 Alpha  occ. eigenvalues --   -0.35430  -0.31634  -0.28910  -0.26183  -0.25087
 Alpha virt. eigenvalues --    0.06002   0.09691   0.11624   0.12886   0.14617
 Alpha virt. eigenvalues --    0.15457   0.17022   0.17707   0.19827   0.21149
 Alpha virt. eigenvalues --    0.23437   0.24665   0.28038   0.32247   0.53592

 Mulliken charges:
               1
     1  C   -0.342021
     2  C    0.183125
     3  O   -0.548453
     4  C    0.247094
     5  N   -0.610622
     6  O   -0.535086
     7  H    0.100037
     8  H    0.117187
     9  H    0.109416
    10  H    0.116271
    11  H    0.303967
    12  H    0.080935
    13  H    0.251445
    14  H    0.237364
    15  H    0.289342
 Sum of Mulliken charges =  -0.00000

 Dipole moment (field-independent basis, Debye):
    X=              1.7371    Y=             -0.0878    Z=              2.5389  Tot=              3.0776
 Quadrupole moment (field-independent basis, Debye-Ang):
   XX=            -30.8153   YY=            -35.4720   ZZ=            -41.1369
   XY=              1.3106   XZ=              2.2216   YZ=             -0.0935

  Exact polarizability:  51.348   0.588  46.409   1.170   0.482  43.735
 Approx polarizability:  62.138  -1.301  65.019   2.169   0.731  63.606

                      1                      2                      3
                      A                      A                      A
 Frequencies --     71.3070               237.9602               260.2035
 Red. masses --      3.9768                 1.5304                 1.0624
 Frc consts  --      0.0119                 0.0511                 0.0424
 IR Inten    --      1.6103                18.7164               101.4027

                      4                      5                      6
                      A                      A                      A
 Frequencies --    273.0620               309.3907               328.9670
 Red. masses --      1.6026                 2.6583                 1.3533
 Frc consts  --      0.0704                 0.1499                 0.0863
 IR Inten    --     15.8321                 6.0958               101.1815

                      7                      8                      9
                      A                      A                      A
 Frequencies --    355.6571               463.7258               549.4494
 Red. masses --      3.5425                 2.3358                 2.8072
 Frc consts  --      0.2640                 0.2959                 0.4993
 IR Inten    --      0.2980                19.0400                29.1166

                     10                     11                     12
                      A                      A                      A
 Frequencies --    556.7091               664.0677               805.0545
 Red. masses --      1.2143                 2.7502                 2.2813
 Frc consts  --      0.2217                 0.7146                 0.8711
 IR Inten    --    117.8925                 9.3493                 9.6583

                     13                     14                     15
                      A                      A                      A
 Frequencies --    861.6975               932.0351              1002.9394
 Red. masses --      1.7038                 1.9915                 2.2693
 Frc consts  --      0.7454                 1.0193                 1.3449
 IR Inten    --    110.0927                17.5895               104.5784

                     16                     17                     18
                      A                      A                      A
 Frequencies --   1058.4017              1075.7670              1083.1336
 Red. masses --      2.3631                 2.0627                 1.7255
 Frc consts  --      1.5597                 1.4064                 1.1927
 IR Inten    --    131.4625                22.5602                22.3053

                     19                     20                     21
                      A                      A                      A
 Frequencies --   1140.9832              1219.4275              1252.5288
 Red. masses --      1.6847                 1.6020                 1.3271
 Frc consts  --      1.2922                 1.4036                 1.2267
 IR Inten    --     52.3511                15.8102                39.5451

                     22                     23                     24
                      A                      A                      A
 Frequencies --   1319.4364              1337.9035              1405.2288
 Red. masses --      1.5558                 1.3111                 1.1924
 Frc consts  --      1.5958                 1.3827                 1.3873
 IR Inten    --      6.6851                 7.3930                18.2354

                     25                     26                     27
                      A                      A                      A
 Frequencies --   1414.2413              1435.1839              1454.3389
 Red. masses --      1.2935                 1.2312                 1.5699
 Frc consts  --      1.5243                 1.4942                 1.9563
 IR Inten    --      1.8203                49.3393                12.8564

                     28                     29                     30
                      A                      A                      A
 Frequencies --   1507.0351              1514.6070              1656.4751
 Red. masses --      1.0559                 1.0582                 1.1016
 Frc consts  --      1.4129                 1.4302                 1.7809
 IR Inten    --      8.8500                 1.2543                30.9462

                     31                     32                     33
                      A                      A                      A
 Frequencies --   3010.3031              3039.8215              3091.8354
 Red. masses --      1.0844                 1.0372                 1.0895
 Frc consts  --      5.7899                 5.6469                 6.1362
 IR Inten    --     51.8294                21.0005                 4.5482

                     34                     35                     36
                      A                      A                      A
 Frequencies --   3112.9985              3132.7115              3499.0608
 Red. masses --      1.0986                 1.1019                 1.0486
 Frc consts  --      6.2729                 6.3713                 7.5643
 IR Inten    --     41.5323                24.0367                 1.4322

                     37                     38                     39
                      A                      A                      A
 Frequencies --   3591.2949              3772.7236              3800.6878
 Red. masses --      1.0936                 1.0652                 1.0662
 Frc consts  --      8.3105                 8.9332                 9.0745
 IR Inten    --      2.7358                14.3981                 6.4601

 - Thermochemistry -
 -------------------
 Temperature   298.150 Kelvin.  Pressure   1.00000 Atm.
 Atom     1 has atomic number  6 and mass  12.00000

 Molecular mass:    91.06333 amu.
 Principal axes and moments of inertia in atomic units:
                           1         2         3
     Eigenvalues --   378.48478 705.79001 722.96236
           X            0.99904   0.04282  -0.00926
           Y           -0.04324   0.99780  -0.05030
           Z            0.00709   0.05065   0.99869
 This molecule is an asymmetric top.
 Rotational symmetry number  1.
 Rotational temperatures (Kelvin)      0.22884     0.12272     0.11980
 Rotational constants (GHZ):           4.76833     2.55705     2.49631
 Zero-point vibrational energy     344514.7 (Joules/Mol)
                                   82.34098 (Kcal/Mol)
 Warning -- explicit consideration of  10 degrees of freedom as
           vibrations may cause significant error
 Vibrational temperatures:    102.59   342.37   374.37   392.87   445.14
          (Kelvin)            473.31   511.71   667.20   790.53   800.98
                              955.44  1158.29  1239.79  1340.99  1443.00
                             1522.80  1547.79  1558.39  1641.62  1754.48
                             1802.11  1898.37  1924.94  2021.81  2034.78
                             2064.91  2092.47  2168.28  2179.18  2383.30
                             4331.15  4373.62  4448.46  4478.90  4507.27
                             5034.36  5167.07  5428.10  5468.34

 Zero-point correction=                           0.131219 (Hartree/Particle)
 Thermal correction to Energy=                    0.138594
 Thermal correction to Enthalpy=                  0.139538
 Thermal correction to Gibbs Free Energy=         0.100396
 Sum of electronic and zero-point Energies=           -324.804336
 Sum of electronic and thermal Energies=              -324.796961
 Sum of electronic and thermal Enthalpies=            -324.796017
 Sum of electronic and thermal Free Energies=         -324.835159

                     E (Thermal)             CV                S
                      KCal/Mol        Cal/Mol-Kelvin    Cal/Mol-Kelvin
 Total                   86.969             26.912             82.381
 Electronic               0.000              0.000              0.000
 Translational            0.889              2.981             39.439
 Rotational               0.889              2.981             26.760
 Vibrational             85.191             20.950             16.183
 Vibration     1          0.598              1.968              4.117
 Vibration     2          0.656              1.783              1.818
 Vibration     3          0.668              1.745              1.660
 Vibration     4          0.676              1.723              1.577
 Vibration     5          0.699              1.656              1.366
 Vibration     6          0.712              1.618              1.265
 Vibration     7          0.731              1.564              1.141
 Vibration     8          0.821              1.331              0.755
 Vibration     9          0.905              1.141              0.545
 Vibration    10          0.912              1.125              0.530

 Normal termination of Gaussian 09 at Thu Sep  8 15:01:44 2022.
