 Gaussian 09, Revision E.01,
 Gaussian 09:  ES64L-G09RevE.01 30-Nov-2015

 ----------------------------
 #P OPT Freq B3LYP/6-31G(d,p)
 ----------------------------

 --------
 Frag_904
 --------
 Symbolic Z-matrix:
 Charge =  0 Multiplicity = 1

 SCF Done:  E(RB3LYP) =  -154.736898765     A.U. after   12 cycles
 SCF Done:  E(RB3LYP) =  -154.737024154     A.U. after    9 cycles
 SCF Done:  E(RB3LYP) =  -154.737021675     A.U. after    9 cycles
 SCF Done:  E(RB3LYP) =  -154.737018244     A.U. after    9 cycles
 SCF Done:  E(RB3LYP) =  -154.737024986     A.U. after    9 cycles
 SCF Done:  E(RB3LYP) =  -154.737024989     A.U. after    7 cycles
 SCF Done:  E(RB3LYP) =  -154.737026162     A.U. after    7 cycles
 SCF Done:  E(RB3LYP) =  -154.737026423     A.U. after    8 cycles
 Optimization completed.
    -- Stationary point found.
 Normal termination of Gaussian 09 at Thu Sep  8 15:11:14 2022.

 ----------------------------------------------------------------------
 #P Geom=AllCheck Guess=TCheck SCRF=Check GenChk RB3LYP/6-31G(d,p) Freq
 ----------------------------------------------------------------------

 Structure from the checkpoint file:  "B3LYP6-31Gdp.Frag_904.chk"
 --------
 Frag_904
 --------
 Charge =  0 Multiplicity = 1

                         Standard orientation:
 ---------------------------------------------------------------------
 Center     Atomic      Atomic             Coordinates (Angstroms)
 Number     Number       Type             X           Y           Z
 ---------------------------------------------------------------------
      1          6           0        1.952835    0.000163   -0.000114
      2          6           0        0.635546   -0.000259   -0.000073
      3          6           0       -0.635546   -0.000313   -0.000050
      4          6           0       -1.952835    0.000172   -0.000049
      5          1           0        2.522449   -0.926291    0.000581
      6          1           0        2.521878    0.926969    0.000444
      7          1           0       -2.522492   -0.926256    0.000277
      8          1           0       -2.521836    0.927003    0.000414
 ---------------------------------------------------------------------

 SCF Done:  E(RB3LYP) =  -154.737026423     A.U. after    1 cycles

 The electronic state is 1-A.
 Alpha  occ. eigenvalues --  -10.20551 -10.20513 -10.20453 -10.20350  -0.79981
 Alpha  occ. eigenvalues --   -0.74451  -0.65326  -0.50003  -0.46589  -0.45179
 Alpha  occ. eigenvalues --   -0.43631  -0.34267  -0.25506  -0.24031
 Alpha virt. eigenvalues --   -0.05121   0.02664   0.12691   0.12981   0.15786
 Alpha virt. eigenvalues --    0.18783   0.23527   0.26936   0.32994   0.36254
 Alpha virt. eigenvalues --    0.42753   0.51476   0.53794   0.56258   0.64508

 Mulliken charges:
               1
     1  C   -0.442485
     2  C    0.182513
     3  C    0.182513
     4  C   -0.442485
     5  H    0.129972
     6  H    0.130000
     7  H    0.129965
     8  H    0.130006
 Sum of Mulliken charges =  -0.00000

 Dipole moment (field-independent basis, Debye):
    X=             -0.0000    Y=              0.0006    Z=              0.0014  Tot=              0.0015
 Quadrupole moment (field-independent basis, Debye-Ang):
   XX=            -18.1468   YY=            -22.5415   ZZ=            -25.7771
   XY=             -0.0001   XZ=              0.0009   YZ=              0.0000

  Exact polarizability:  99.338   0.000  25.914  -0.001  -0.000  14.702
 Approx polarizability: 193.918   0.001  33.170  -0.005  -0.000  19.657

                      1                      2                      3
                      A                      A                      A
 Frequencies --    233.9454               244.8030               382.9536
 Red. masses --      2.4720                 3.8900                 3.5680
 Frc consts  --      0.0797                 0.1374                 0.3083
 IR Inten    --      4.7795                 2.5328                 0.0000

                      4                      5                      6
                      A                      A                      A
 Frequencies --    614.8291               776.3063               882.0752
 Red. masses --      6.9399                 1.0078                 1.3373
 Frc consts  --      1.5457                 0.3579                 0.6131
 IR Inten    --      0.0000                 0.0000                 0.0005

                      7                      8                      9
                      A                      A                      A
 Frequencies --    882.5157               912.1391              1026.4213
 Red. masses --      1.3368                 3.7307                 1.4524
 Frc consts  --      0.6134                 1.8288                 0.9016
 IR Inten    --     92.6786                 0.0000                 0.0000

                     10                     11                     12
                      A                      A                      A
 Frequencies --   1048.2641              1421.0414              1483.2632
 Red. masses --      1.4348                 1.1230                 1.1820
 Frc consts  --      0.9289                 1.3361                 1.5321
 IR Inten    --      0.1338                 0.0270                 0.0000

                     13                     14                     15
                      A                      A                      A
 Frequencies --   1701.7459              2222.4525              3134.8751
 Red. masses --      6.1693                11.1985                 1.0551
 Frc consts  --     10.5263                32.5892                 6.1095
 IR Inten    --     11.5896                 0.0000                 0.0000

                     16                     17                     18
                      A                      A                      A
 Frequencies --   3137.1856              3213.1873              3213.3645
 Red. masses --      1.0584                 1.1162                 1.1160
 Frc consts  --      6.1375                 6.7899                 6.7895
 IR Inten    --      7.3166                 9.5371                 0.0000

 - Thermochemistry -
 -------------------
 Temperature   298.150 Kelvin.  Pressure   1.00000 Atm.
 Atom     1 has atomic number  6 and mass  12.00000

 Molecular mass:    52.03130 amu.
 Principal axes and moments of inertia in atomic units:
                           1         2         3
     Eigenvalues --    12.36106 453.03938 465.40043
           X            1.00000  -0.00000   0.00001
           Y            0.00000   1.00000  -0.00000
           Z           -0.00001   0.00000   1.00000
 This molecule is an asymmetric top.
 Rotational symmetry number  1.
 Rotational temperatures (Kelvin)      7.00699     0.19118     0.18611
 Rotational constants (GHZ):         146.00209     3.98363     3.87782
 Zero-point vibrational energy     158692.8 (Joules/Mol)
                                   37.92849 (Kcal/Mol)
 Warning -- explicit consideration of   4 degrees of freedom as
           vibrations may cause significant error
 Vibrational temperatures:    336.59   352.22   550.98   884.60  1116.93
          (Kelvin)           1269.11  1269.74  1312.36  1476.79  1508.22
                             2044.56  2134.08  2448.43  3197.61  4510.38
                             4513.70  4623.05  4623.31

 Zero-point correction=                           0.060443 (Hartree/Particle)
 Thermal correction to Energy=                    0.065088
 Thermal correction to Enthalpy=                  0.066032
 Thermal correction to Gibbs Free Energy=         0.034589
 Sum of electronic and zero-point Energies=           -154.676584
 Sum of electronic and thermal Energies=              -154.671939
 Sum of electronic and thermal Enthalpies=            -154.670994
 Sum of electronic and thermal Free Energies=         -154.702437

                     E (Thermal)             CV                S
                      KCal/Mol        Cal/Mol-Kelvin    Cal/Mol-Kelvin
 Total                   40.843             15.149             66.177
 Electronic               0.000              0.000              0.000
 Translational            0.889              2.981             37.771
 Rotational               0.889              2.981             22.482
 Vibrational             39.066              9.187              5.924
 Vibration     1          0.654              1.789              1.848
 Vibration     2          0.660              1.771              1.768
 Vibration     3          0.752              1.507              1.027
 Vibration     4          0.974              1.001              0.425

 Optimization completed.
    -- Stationary point found.
 Normal termination of Gaussian 09 at Thu Sep  8 15:11:20 2022.
