 Gaussian 09, Revision E.01,
 Gaussian 09:  ES64L-G09RevE.01 30-Nov-2015

 ----------------------------
 #P OPT Freq B3LYP/6-31G(d,p)
 ----------------------------

 ---------
 Frag_1138
 ---------
 Symbolic Z-matrix:
 Charge =  0 Multiplicity = 1

 SCF Done:  E(RB3LYP) =  -283.976806052     A.U. after   13 cycles
 SCF Done:  E(RB3LYP) =  -283.976864627     A.U. after   11 cycles
 SCF Done:  E(RB3LYP) =  -283.976871058     A.U. after   10 cycles
 SCF Done:  E(RB3LYP) =  -283.976875155     A.U. after    8 cycles
 SCF Done:  E(RB3LYP) =  -283.976876474     A.U. after    8 cycles
 SCF Done:  E(RB3LYP) =  -283.976877212     A.U. after    8 cycles
 SCF Done:  E(RB3LYP) =  -283.976877642     A.U. after    8 cycles
 Optimization completed.
    -- Stationary point found.
 Normal termination of Gaussian 09 at Thu Sep  8 14:48:58 2022.

 ----------------------------------------------------------------------
 #P Geom=AllCheck Guess=TCheck SCRF=Check GenChk RB3LYP/6-31G(d,p) Freq
 ----------------------------------------------------------------------

 Structure from the checkpoint file:  "B3LYP6-31Gdp.Frag_1138.chk"
 ---------
 Frag_1138
 ---------
 Charge =  0 Multiplicity = 1

                         Standard orientation:
 ---------------------------------------------------------------------
 Center     Atomic      Atomic             Coordinates (Angstroms)
 Number     Number       Type             X           Y           Z
 ---------------------------------------------------------------------
      1          6           0       -2.039421   -0.064668    0.000683
      2          7           0       -0.964928   -0.555763    0.458864
      3          6           0        0.324832    0.021657    0.027092
      4          6           0        0.958193   -0.999437   -0.936217
      5          7           0        1.067837    0.194237    1.285142
      6          7           0        0.193943    1.302114   -0.658736
      7          1           0       -2.986933   -0.509291    0.311996
      8          1           0       -2.064581    0.780871   -0.694768
      9          1           0        1.990381   -0.712816   -1.170678
     10          1           0        0.391512   -1.057749   -1.870219
     11          1           0        0.968587   -1.988713   -0.473502
     12          1           0        2.063709    0.277508    1.089371
     13          1           0        0.934840   -0.636103    1.858695
     14          1           0        0.158450    2.034989    0.046516
     15          1           0        1.004448    1.481879   -1.243656
 ---------------------------------------------------------------------

 SCF Done:  E(RB3LYP) =  -283.976877642     A.U. after    1 cycles

 The electronic state is 1-A.
 Alpha  occ. eigenvalues --  -14.32107 -14.31287 -14.30859 -10.26680 -10.21307
 Alpha  occ. eigenvalues --  -10.17837  -0.94892  -0.86616  -0.83563  -0.72218
 Alpha  occ. eigenvalues --   -0.63509  -0.54800  -0.50188  -0.48415  -0.47618
 Alpha  occ. eigenvalues --   -0.43783  -0.42147  -0.39568  -0.37940  -0.36716
 Alpha  occ. eigenvalues --   -0.30265  -0.25795  -0.25136  -0.23275
 Alpha virt. eigenvalues --    0.00258   0.07383   0.12262   0.13244   0.15227
 Alpha virt. eigenvalues --    0.15511   0.16343   0.17393   0.19363   0.19546
 Alpha virt. eigenvalues --    0.22865   0.25797   0.26921   0.29825   0.32530

 Mulliken charges:
               1
     1  C   -0.020065
     2  N   -0.338796
     3  C    0.346690
     4  C   -0.307406
     5  N   -0.584121
     6  N   -0.590998
     7  H    0.097813
     8  H    0.116948
     9  H    0.088129
    10  H    0.117981
    11  H    0.118726
    12  H    0.224835
    13  H    0.246234
    14  H    0.248805
    15  H    0.235226
 Sum of Mulliken charges =  -0.00000

 Dipole moment (field-independent basis, Debye):
    X=              1.5187    Y=              0.2579    Z=             -0.9478  Tot=              1.8087
 Quadrupole moment (field-independent basis, Debye-Ang):
   XX=            -31.6135   YY=            -36.9975   ZZ=            -39.4600
   XY=             -0.1917   XZ=             -0.0469   YZ=             -0.8925

  Exact polarizability:  65.974  -0.791  47.440   1.090  -4.262  46.373
 Approx polarizability:  89.510  -3.363  66.769   4.452  -9.085  66.186

                      1                      2                      3
                      A                      A                      A
 Frequencies --    120.3873               242.7725               274.8788
 Red. masses --      3.1532                 1.0777                 1.0267
 Frc consts  --      0.0269                 0.0374                 0.0457
 IR Inten    --      7.0871                14.0398                 8.7046

                      4                      5                      6
                      A                      A                      A
 Frequencies --    282.0351               338.7475               376.2630
 Red. masses --      1.1862                 2.6551                 2.4526
 Frc consts  --      0.0556                 0.1795                 0.2046
 IR Inten    --     41.8366                16.1621                 8.9951

                      7                      8                      9
                      A                      A                      A
 Frequencies --    377.7667               472.9027               489.3507
 Red. masses --      2.3412                 2.6084                 2.3925
 Frc consts  --      0.1969                 0.3437                 0.3376
 IR Inten    --     12.6610                 7.6352                16.3424

                     10                     11                     12
                      A                      A                      A
 Frequencies --    592.4964               753.4415               771.0537
 Red. masses --      3.1509                 3.4260                 1.3769
 Frc consts  --      0.6517                 1.1459                 0.4823
 IR Inten    --      2.0354                 9.7956                 7.3082

                     13                     14                     15
                      A                      A                      A
 Frequencies --    823.5261               894.1419               937.1531
 Red. masses --      2.1182                 1.4579                 1.5031
 Frc consts  --      0.8464                 0.6867                 0.7778
 IR Inten    --     87.8121               189.8179                36.2085

                     16                     17                     18
                      A                      A                      A
 Frequencies --    969.0022              1013.3701              1092.6428
 Red. masses --      1.5547                 1.6382                 1.3424
 Frc consts  --      0.8601                 0.9912                 0.9442
 IR Inten    --      1.3048                24.9185                18.7031

                     19                     20                     21
                      A                      A                      A
 Frequencies --   1115.9069              1207.2744              1245.9745
 Red. masses --      1.5385                 1.7946                 2.1073
 Frc consts  --      1.1287                 1.5411                 1.9275
 IR Inten    --     21.5223                13.4340                64.1619

                     22                     23                     24
                      A                      A                      A
 Frequencies --   1304.1874              1350.5548              1412.6841
 Red. masses --      2.0466                 1.8302                 1.2815
 Frc consts  --      2.0510                 1.9668                 1.5068
 IR Inten    --     43.9459                28.9198                 9.6203

                     25                     26                     27
                      A                      A                      A
 Frequencies --   1481.0197              1497.8118              1512.9402
 Red. masses --      1.1287                 1.0500                 1.0617
 Frc consts  --      1.4586                 1.3879                 1.4319
 IR Inten    --     14.9406                 1.6548                 1.8039

                     28                     29                     30
                      A                      A                      A
 Frequencies --   1637.3739              1662.1780              1747.9083
 Red. masses --      1.1075                 1.1012                 7.2381
 Frc consts  --      1.7494                 1.7925                13.0291
 IR Inten    --     38.7426                34.1628                30.4203

                     31                     32                     33
                      A                      A                      A
 Frequencies --   3040.6414              3062.2298              3115.8017
 Red. masses --      1.0390                 1.0543                 1.0990
 Frc consts  --      5.6598                 5.8250                 6.2860
 IR Inten    --     22.2598                32.2209                27.2578

                     34                     35                     36
                      A                      A                      A
 Frequencies --   3146.2597              3157.9752              3479.0549
 Red. masses --      1.1024                 1.1169                 1.0489
 Frc consts  --      6.4298                 6.5627                 7.4803
 IR Inten    --     15.1591                27.4881                 2.0405

                     37                     38                     39
                      A                      A                      A
 Frequencies --   3500.8276              3576.2176              3592.6811
 Red. masses --      1.0494                 1.0928                 1.0931
 Frc consts  --      7.5776                 8.2348                 8.3132
 IR Inten    --      0.9006                 0.1547                 2.1747

 - Thermochemistry -
 -------------------
 Temperature   298.150 Kelvin.  Pressure   1.00000 Atm.
 Atom     1 has atomic number  6 and mass  12.00000

 Molecular mass:    87.07965 amu.
 Principal axes and moments of inertia in atomic units:
                           1         2         3
     Eigenvalues --   387.54342 607.21983 611.11827
           X            0.99944   0.01041  -0.03170
           Y            0.03296  -0.45564   0.88955
           Z            0.00519   0.89010   0.45573
 This molecule is an asymmetric top.
 Rotational symmetry number  1.
 Rotational temperatures (Kelvin)      0.22349     0.14264     0.14173
 Rotational constants (GHZ):           4.65687     2.97214     2.95318
 Zero-point vibrational energy     344939.8 (Joules/Mol)
                                   82.44260 (Kcal/Mol)
 Warning -- explicit consideration of  10 degrees of freedom as
           vibrations may cause significant error
 Vibrational temperatures:    173.21   349.30   395.49   405.79   487.38
          (Kelvin)            541.36   543.52   680.40   704.07   852.47
                             1084.03  1109.37  1184.87  1286.47  1348.35
                             1394.18  1458.01  1572.07  1605.54  1737.00
                             1792.68  1876.43  1943.14  2032.53  2130.85
                             2155.01  2176.78  2355.81  2391.50  2514.85
                             4374.80  4405.86  4482.94  4526.76  4543.62
                             5005.58  5036.90  5145.37  5169.06

 Zero-point correction=                           0.131381 (Hartree/Particle)
 Thermal correction to Energy=                    0.138541
 Thermal correction to Enthalpy=                  0.139485
 Thermal correction to Gibbs Free Energy=         0.101295
 Sum of electronic and zero-point Energies=           -283.845497
 Sum of electronic and thermal Energies=              -283.838337
 Sum of electronic and thermal Enthalpies=            -283.837393
 Sum of electronic and thermal Free Energies=         -283.875582

                     E (Thermal)             CV                S
                      KCal/Mol        Cal/Mol-Kelvin    Cal/Mol-Kelvin
 Total                   86.936             26.789             80.377
 Electronic               0.000              0.000              0.000
 Translational            0.889              2.981             39.306
 Rotational               0.889              2.981             26.467
 Vibrational             85.158             20.828             14.604
 Vibration     1          0.609              1.932              3.094
 Vibration     2          0.659              1.775              1.782
 Vibration     3          0.677              1.720              1.565
 Vibration     4          0.681              1.707              1.521
 Vibration     5          0.719              1.598              1.218
 Vibration     6          0.747              1.521              1.054
 Vibration     7          0.748              1.518              1.048
 Vibration     8          0.830              1.310              0.729
 Vibration     9          0.845              1.274              0.685
 Vibration    10          0.950              1.048              0.463

 Optimization completed.
    -- Stationary point found.
 Normal termination of Gaussian 09 at Thu Sep  8 14:49:11 2022.
