 Gaussian 09, Revision E.01,
 Gaussian 09:  ES64L-G09RevE.01 30-Nov-2015

 ----------------------------
 #P OPT Freq B3LYP/6-31G(d,p)
 ----------------------------

 ---------
 Frag_1068
 ---------
 Symbolic Z-matrix:
 Charge =  0 Multiplicity = 1

 SCF Done:  E(RB3LYP) =  -281.722984737     A.U. after   13 cycles
 SCF Done:  E(RB3LYP) =  -281.723034287     A.U. after   10 cycles
 SCF Done:  E(RB3LYP) =  -281.723041503     A.U. after    8 cycles
 SCF Done:  E(RB3LYP) =  -281.723044381     A.U. after    8 cycles
 SCF Done:  E(RB3LYP) =  -281.723046215     A.U. after    8 cycles
 SCF Done:  E(RB3LYP) =  -281.723046976     A.U. after    7 cycles
 SCF Done:  E(RB3LYP) =  -281.723047318     A.U. after    7 cycles
 Optimization completed.
    -- Stationary point found.
 Normal termination of Gaussian 09 at Thu Sep  8 14:51:34 2022.

 ----------------------------------------------------------------------
 #P Geom=AllCheck Guess=TCheck SCRF=Check GenChk RB3LYP/6-31G(d,p) Freq
 ----------------------------------------------------------------------

 Structure from the checkpoint file:  "B3LYP6-31Gdp.Frag_1068.chk"
 ---------
 Frag_1068
 ---------
 Charge =  0 Multiplicity = 1

                         Standard orientation:
 ---------------------------------------------------------------------
 Center     Atomic      Atomic             Coordinates (Angstroms)
 Number     Number       Type             X           Y           Z
 ---------------------------------------------------------------------
      1          7           0       -0.531989    1.373123    0.105633
      2          7           0       -0.415790    0.027779   -0.335834
      3          7           0       -1.621303   -0.707982   -0.073730
      4          6           0        0.752600   -0.599553    0.287784
      5          8           0        1.949368    0.018102   -0.080776
      6          1           0       -1.235001    1.802255   -0.491201
      7          1           0       -0.917586    1.390683    1.057891
      8          1           0       -1.666246   -1.474744   -0.741505
      9          1           0       -1.597082   -1.121545    0.866561
     10          1           0        0.712942   -1.659407   -0.012348
     11          1           0        0.703284   -0.554507    1.391972
     12          1           0        1.872716    0.219324   -1.024350
 ---------------------------------------------------------------------

 SCF Done:  E(RB3LYP) =  -281.723047318     A.U. after    1 cycles

 The electronic state is 1-A.
 Alpha  occ. eigenvalues --  -19.14197 -14.38137 -14.35055 -14.34022 -10.25782
 Alpha  occ. eigenvalues --   -1.03633  -0.99198  -0.85913  -0.74464  -0.63540
 Alpha  occ. eigenvalues --   -0.52393  -0.52021  -0.50490  -0.47219  -0.43620
 Alpha  occ. eigenvalues --   -0.42104  -0.35952  -0.27811  -0.27285  -0.25646
 Alpha  occ. eigenvalues --   -0.23472
 Alpha virt. eigenvalues --    0.06464   0.08968   0.11261   0.13610   0.14828
 Alpha virt. eigenvalues --    0.15770   0.17635   0.17802   0.22139   0.25270
 Alpha virt. eigenvalues --    0.25976   0.54361   0.55268   0.60722   0.63807

 Mulliken charges:
               1
     1  N   -0.414695
     2  N   -0.269447
     3  N   -0.453587
     4  C    0.238419
     5  O   -0.521403
     6  H    0.258082
     7  H    0.220947
     8  H    0.258809
     9  H    0.223331
    10  H    0.074407
    11  H    0.075449
    12  H    0.309687
 Sum of Mulliken charges =  -0.00000

 Dipole moment (field-independent basis, Debye):
    X=             -1.7418    Y=             -1.5848    Z=              0.0316  Tot=              2.3551
 Quadrupole moment (field-independent basis, Debye-Ang):
   XX=            -35.2818   YY=            -28.1067   ZZ=            -27.4099
   XY=             -0.7584   XZ=             -3.2562   YZ=             -0.2904

  Exact polarizability:  38.954   1.640  40.625  -1.060  -0.358  35.773
 Approx polarizability:  50.366   3.966  53.682  -1.073  -0.663  51.852

                      1                      2                      3
                      A                      A                      A
 Frequencies --    113.2336               246.8119               264.4725
 Red. masses --      2.2828                 1.4389                 1.1343
 Frc consts  --      0.0172                 0.0516                 0.0467
 IR Inten    --      6.0435                84.6380                69.3862

                      4                      5                      6
                      A                      A                      A
 Frequencies --    322.8062               326.0523               432.7652
 Red. masses --      1.1027                 2.5504                 2.3326
 Frc consts  --      0.0677                 0.1597                 0.2574
 IR Inten    --      9.8662                42.1018                13.8300

                      7                      8                      9
                      A                      A                      A
 Frequencies --    464.8430               553.7052               821.6824
 Red. masses --      2.8347                 3.4737                 4.8411
 Frc consts  --      0.3609                 0.6275                 1.9257
 IR Inten    --     12.0616                40.9750                51.7403

                     10                     11                     12
                      A                      A                      A
 Frequencies --    897.5716               985.4651              1063.1219
 Red. masses --      2.3416                 1.7445                 1.5363
 Frc consts  --      1.1115                 0.9982                 1.0230
 IR Inten    --    117.0853                33.5733               102.3359

                     13                     14                     15
                      A                      A                      A
 Frequencies --   1101.8472              1153.3400              1229.7254
 Red. masses --      2.3215                 3.2317                 1.7904
 Frc consts  --      1.6606                 2.5328                 1.5952
 IR Inten    --     87.3271                46.6230                 2.7630

                     16                     17                     18
                      A                      A                      A
 Frequencies --   1244.3362              1304.5182              1369.0481
 Red. masses --      1.2199                 1.3672                 1.3980
 Frc consts  --      1.1129                 1.3708                 1.5438
 IR Inten    --      3.1249                 8.5176                25.1803

                     19                     20                     21
                      A                      A                      A
 Frequencies --   1384.2921              1451.4759              1533.9946
 Red. masses --      1.2395                 1.2347                 1.1001
 Frc consts  --      1.3994                 1.5327                 1.5252
 IR Inten    --      8.9407                84.3954                 2.3095

                     22                     23                     24
                      A                      A                      A
 Frequencies --   1660.1110              1686.6286              2947.0315
 Red. masses --      1.0875                 1.0796                 1.0611
 Frc consts  --      1.7658                 1.8095                 5.4295
 IR Inten    --     14.2755                24.8249                79.8784

                     25                     26                     27
                      A                      A                      A
 Frequencies --   2993.2172              3353.8600              3360.6432
 Red. masses --      1.1009                 1.0562                 1.0585
 Frc consts  --      5.8115                 6.9996                 7.0435
 IR Inten    --     79.1279                29.0793                16.0094

                     28                     29                     30
                      A                      A                      A
 Frequencies --   3541.4420              3549.3412              3800.0663
 Red. masses --      1.0849                 1.0820                 1.0651
 Frc consts  --      8.0165                 8.0310                 9.0624
 IR Inten    --      0.2912                 1.0992                21.3827

 - Thermochemistry -
 -------------------
 Temperature   298.150 Kelvin.  Pressure   1.00000 Atm.
 Atom     1 has atomic number  7 and mass  14.00307

 Molecular mass:    77.05891 amu.
 Principal axes and moments of inertia in atomic units:
                           1         2         3
     Eigenvalues --   207.51039 469.95947 616.28145
           X            0.99990  -0.00525  -0.01290
           Y            0.00516   0.99996  -0.00685
           Z            0.01293   0.00679   0.99989
 This molecule is an asymmetric top.
 Rotational symmetry number  1.
 Rotational temperatures (Kelvin)      0.41740     0.18430     0.14054
 Rotational constants (GHZ):           8.69711     3.84021     2.92844
 Zero-point vibrational energy     270101.5 (Joules/Mol)
                                   64.55581 (Kcal/Mol)
 Warning -- explicit consideration of   8 degrees of freedom as
           vibrations may cause significant error
 Vibrational temperatures:    162.92   355.11   380.52   464.45   469.12
          (Kelvin)            622.65   668.80   796.66  1182.22  1291.40
                             1417.86  1529.59  1585.31  1659.40  1769.30
                             1790.32  1876.91  1969.75  1991.69  2088.35
                             2207.07  2388.53  2426.68  4240.12  4306.57
                             4825.45  4835.21  5095.34  5106.70  5467.44

 Zero-point correction=                           0.102876 (Hartree/Particle)
 Thermal correction to Energy=                    0.109185
 Thermal correction to Enthalpy=                  0.110130
 Thermal correction to Gibbs Free Energy=         0.073715
 Sum of electronic and zero-point Energies=           -281.620171
 Sum of electronic and thermal Energies=              -281.613862
 Sum of electronic and thermal Enthalpies=            -281.612918
 Sum of electronic and thermal Free Energies=         -281.649333

                     E (Thermal)             CV                S
                      KCal/Mol        Cal/Mol-Kelvin    Cal/Mol-Kelvin
 Total                   68.515             21.835             76.641
 Electronic               0.000              0.000              0.000
 Translational            0.889              2.981             38.941
 Rotational               0.889              2.981             25.600
 Vibrational             66.737             15.873             12.100
 Vibration     1          0.607              1.938              3.213
 Vibration     2          0.661              1.768              1.753
 Vibration     3          0.671              1.738              1.632
 Vibration     4          0.708              1.630              1.296
 Vibration     5          0.710              1.623              1.280
 Vibration     6          0.794              1.399              0.850
 Vibration     7          0.822              1.328              0.752
 Vibration     8          0.909              1.132              0.537

 Normal termination of Gaussian 09 at Thu Sep  8 14:51:42 2022.
