 Gaussian 09, Revision E.01,
 Gaussian 09:  ES64L-G09RevE.01 30-Nov-2015

 ----------------------------
 #P OPT Freq B3LYP/6-31G(d,p)
 ----------------------------

 --------
 Frag_493
 --------
 Symbolic Z-matrix:
 Charge =  0 Multiplicity = 1

 SCF Done:  E(RB3LYP) =  -287.807237365     A.U. after   13 cycles
 SCF Done:  E(RB3LYP) =  -287.807296973     A.U. after    9 cycles
 SCF Done:  E(RB3LYP) =  -287.807300287     A.U. after    8 cycles
 SCF Done:  E(RB3LYP) =  -287.807301137     A.U. after    8 cycles
 SCF Done:  E(RB3LYP) =  -287.807301273     A.U. after    7 cycles
 Optimization completed.
    -- Stationary point found.
 Normal termination of Gaussian 09 at Thu Sep  8 15:08:18 2022.

 ----------------------------------------------------------------------
 #P Geom=AllCheck Guess=TCheck SCRF=Check GenChk RB3LYP/6-31G(d,p) Freq
 ----------------------------------------------------------------------

 Structure from the checkpoint file:  "B3LYP6-31Gdp.Frag_493.chk"
 --------
 Frag_493
 --------
 Charge =  0 Multiplicity = 1

                         Standard orientation:
 ---------------------------------------------------------------------
 Center     Atomic      Atomic             Coordinates (Angstroms)
 Number     Number       Type             X           Y           Z
 ---------------------------------------------------------------------
      1          6           0       -1.770599   -0.910713   -0.410152
      2          6           0       -0.817816   -0.029478   -0.065364
      3          7           0       -1.046554    1.175130    0.593969
      4          6           0        0.651163   -0.272507   -0.398299
      5          6           0        1.386296   -0.988609    0.735414
      6          8           0        1.351607    0.957327   -0.607056
      7          1           0       -1.520200   -1.792576   -0.987732
      8          1           0       -2.810771   -0.777266   -0.129723
      9          1           0       -0.234008    1.586191    1.031584
     10          1           0       -1.892074    1.235437    1.142575
     11          1           0        0.697008   -0.898878   -1.300886
     12          1           0        0.954466   -1.977964    0.903331
     13          1           0        2.444400   -1.096295    0.480679
     14          1           0        1.314020   -0.415144    1.664904
     15          1           0        0.865922    1.459809   -1.275657
 ---------------------------------------------------------------------

 SCF Done:  E(RB3LYP) =  -287.807301273     A.U. after    1 cycles

 The electronic state is 1-A.
 Alpha  occ. eigenvalues --  -19.14664 -14.33344 -10.23966 -10.21464 -10.17560
 Alpha  occ. eigenvalues --  -10.15105  -1.02092  -0.90223  -0.76465  -0.71201
 Alpha  occ. eigenvalues --   -0.62044  -0.55730  -0.51967  -0.51159  -0.44898
 Alpha  occ. eigenvalues --   -0.42162  -0.41001  -0.38690  -0.38076  -0.36121
 Alpha  occ. eigenvalues --   -0.33029  -0.32145  -0.27170  -0.19707
 Alpha virt. eigenvalues --    0.04010   0.07803   0.10503   0.13191   0.13557
 Alpha virt. eigenvalues --    0.15256   0.16347   0.17889   0.18779   0.20365
 Alpha virt. eigenvalues --    0.22735   0.24219   0.28244   0.36054   0.38042

 Mulliken charges:
               1
     1  C   -0.332798
     2  C    0.297519
     3  N   -0.640070
     4  C    0.112471
     5  C   -0.298149
     6  O   -0.550360
     7  H    0.081795
     8  H    0.073614
     9  H    0.265418
    10  H    0.256325
    11  H    0.089856
    12  H    0.112089
    13  H    0.116974
    14  H    0.102709
    15  H    0.312607
 Sum of Mulliken charges =  -0.00000

 Dipole moment (field-independent basis, Debye):
    X=             -0.4977    Y=              0.3389    Z=              0.6500  Tot=              0.8860
 Quadrupole moment (field-independent basis, Debye-Ang):
   XX=            -39.4561   YY=            -36.2268   ZZ=            -34.5459
   XY=             -2.3421   XZ=             -2.1687   YZ=              1.4288

  Exact polarizability:  60.634   5.714  55.720   1.748   7.437  42.403
 Approx polarizability:  81.437  14.981  84.021   3.629  13.846  58.819

                      1                      2                      3
                      A                      A                      A
 Frequencies --     70.5651               221.2595               228.1762
 Red. masses --      3.5133                 1.2314                 1.4467
 Frc consts  --      0.0103                 0.0355                 0.0444
 IR Inten    --      2.0400                 7.4765                27.5973

                      4                      5                      6
                      A                      A                      A
 Frequencies --    284.0082               307.2295               369.9269
 Red. masses --      1.8729                 1.8002                 2.5501
 Frc consts  --      0.0890                 0.1001                 0.2056
 IR Inten    --     55.7806                21.9687                 2.8881

                      7                      8                      9
                      A                      A                      A
 Frequencies --    445.3459               458.4427               529.8889
 Red. masses --      1.4908                 1.6163                 1.4678
 Frc consts  --      0.1742                 0.2001                 0.2428
 IR Inten    --     30.5273                59.9859               194.0241

                     10                     11                     12
                      A                      A                      A
 Frequencies --    605.1759               645.3446               720.4448
 Red. masses --      2.5075                 2.4663                 1.1819
 Frc consts  --      0.5411                 0.6052                 0.3614
 IR Inten    --     43.8568                 1.9157                 3.1774

                     13                     14                     15
                      A                      A                      A
 Frequencies --    788.2554               792.5147               937.0643
 Red. masses --      1.9059                 1.7836                 2.1208
 Frc consts  --      0.6977                 0.6600                 1.0972
 IR Inten    --     21.0006                42.6068                 8.9568

                     16                     17                     18
                      A                      A                      A
 Frequencies --    993.3880              1021.5556              1079.2177
 Red. masses --      1.5631                 2.0499                 1.6947
 Frc consts  --      0.9088                 1.2604                 1.1630
 IR Inten    --     11.0705                54.5755                20.7931

                     19                     20                     21
                      A                      A                      A
 Frequencies --   1136.9124              1143.7475              1283.7187
 Red. masses --      2.0408                 1.5801                 1.2119
 Frc consts  --      1.5542                 1.2179                 1.1766
 IR Inten    --     18.3300                24.7535                47.6822

                     22                     23                     24
                      A                      A                      A
 Frequencies --   1350.9136              1376.9966              1402.9883
 Red. masses --      1.2790                 2.1412                 1.5760
 Frc consts  --      1.3753                 2.3920                 1.8277
 IR Inten    --     23.5586                37.3250                37.0570

                     25                     26                     27
                      A                      A                      A
 Frequencies --   1423.9576              1461.1454              1500.2471
 Red. masses --      1.3832                 1.1705                 1.0532
 Frc consts  --      1.6524                 1.4723                 1.3966
 IR Inten    --     13.0403                 1.4663                 7.0280

                     28                     29                     30
                      A                      A                      A
 Frequencies --   1509.4128              1636.4871              1723.9890
 Red. masses --      1.0550                 1.1631                 5.4855
 Frc consts  --      1.4161                 1.8352                 9.6059
 IR Inten    --      0.1328                62.7442               107.4557

                     31                     32                     33
                      A                      A                      A
 Frequencies --   3014.4240              3055.2396              3129.0680
 Red. masses --      1.0850                 1.0350                 1.1026
 Frc consts  --      5.8089                 5.6921                 6.3605
 IR Inten    --     38.4220                17.0051                28.3899

                     34                     35                     36
                      A                      A                      A
 Frequencies --   3145.9586              3165.6087              3252.5254
 Red. masses --      1.1032                 1.0602                 1.1155
 Frc consts  --      6.4330                 6.2596                 6.9530
 IR Inten    --     18.7640                 4.5416                14.1721

                     37                     38                     39
                      A                      A                      A
 Frequencies --   3575.7315              3694.8409              3805.6691
 Red. masses --      1.0460                 1.1006                 1.0662
 Frc consts  --      7.8801                 8.8523                 9.0977
 IR Inten    --     17.5567                20.5202                18.8966

 - Thermochemistry -
 -------------------
 Temperature   298.150 Kelvin.  Pressure   1.00000 Atm.
 Atom     1 has atomic number  6 and mass  12.00000

 Molecular mass:    87.06841 amu.
 Principal axes and moments of inertia in atomic units:
                           1         2         3
     Eigenvalues --   373.05387 621.83019 767.77200
           X            0.99936  -0.03283   0.01445
           Y            0.03243   0.99909   0.02757
           Z           -0.01534  -0.02708   0.99952
 This molecule is an asymmetric top.
 Rotational symmetry number  1.
 Rotational temperatures (Kelvin)      0.23218     0.13929     0.11281
 Rotational constants (GHZ):           4.83775     2.90231     2.35062
 Zero-point vibrational energy     342654.7 (Joules/Mol)
                                   81.89643 (Kcal/Mol)
 Warning -- explicit consideration of  10 degrees of freedom as
           vibrations may cause significant error
 Vibrational temperatures:    101.53   318.34   328.29   408.62   442.03
          (Kelvin)            532.24   640.75   659.60   762.39   870.71
                              928.51  1036.56  1134.12  1140.25  1348.22
                             1429.26  1469.79  1552.75  1635.76  1645.60
                             1846.98  1943.66  1981.19  2018.58  2048.75
                             2102.26  2158.52  2171.71  2354.54  2480.43
                             4337.08  4395.80  4502.03  4526.33  4554.60
                             4679.65  5144.67  5316.05  5475.50

 Zero-point correction=                           0.130510 (Hartree/Particle)
 Thermal correction to Energy=                    0.137913
 Thermal correction to Enthalpy=                  0.138857
 Thermal correction to Gibbs Free Energy=         0.099773
 Sum of electronic and zero-point Energies=           -287.676791
 Sum of electronic and thermal Energies=              -287.669388
 Sum of electronic and thermal Enthalpies=            -287.668444
 Sum of electronic and thermal Free Energies=         -287.707529

                     E (Thermal)             CV                S
                      KCal/Mol        Cal/Mol-Kelvin    Cal/Mol-Kelvin
 Total                   86.542             27.307             82.260
 Electronic               0.000              0.000              0.000
 Translational            0.889              2.981             39.305
 Rotational               0.889              2.981             26.679
 Vibrational             84.764             21.346             16.275
 Vibration     1          0.598              1.968              4.138
 Vibration     2          0.648              1.809              1.949
 Vibration     3          0.651              1.798              1.893
 Vibration     4          0.682              1.703              1.509
 Vibration     5          0.697              1.660              1.377
 Vibration     6          0.742              1.534              1.080
 Vibration     7          0.805              1.371              0.810
 Vibration     8          0.816              1.342              0.771
 Vibration     9          0.885              1.184              0.587
 Vibration    10          0.964              1.021              0.441

 Normal termination of Gaussian 09 at Thu Sep  8 15:08:31 2022.
