 Gaussian 09, Revision E.01,
 Gaussian 09:  ES64L-G09RevE.01 30-Nov-2015

 ----------------------------
 #P OPT Freq B3LYP/6-31G(d,p)
 ----------------------------

 --------
 Frag_836
 --------
 Symbolic Z-matrix:
 Charge =  0 Multiplicity = 1

 SCF Done:  E(RB3LYP) =  -379.086507878     A.U. after   13 cycles
 SCF Done:  E(RB3LYP) =  -379.086577605     A.U. after   11 cycles
 SCF Done:  E(RB3LYP) =  -379.086514886     A.U. after   11 cycles
 SCF Done:  E(RB3LYP) =  -379.086593426     A.U. after   11 cycles
 SCF Done:  E(RB3LYP) =  -379.086595099     A.U. after    8 cycles
 SCF Done:  E(RB3LYP) =  -379.086596017     A.U. after    8 cycles
 SCF Done:  E(RB3LYP) =  -379.086597053     A.U. after    9 cycles
 SCF Done:  E(RB3LYP) =  -379.086597524     A.U. after    8 cycles
 SCF Done:  E(RB3LYP) =  -379.086598031     A.U. after    8 cycles
 SCF Done:  E(RB3LYP) =  -379.086598573     A.U. after    8 cycles
 SCF Done:  E(RB3LYP) =  -379.086598854     A.U. after    8 cycles
 Optimization completed.
    -- Stationary point found.
 Normal termination of Gaussian 09 at Thu Sep  8 15:23:03 2022.

 ----------------------------------------------------------------------
 #P Geom=AllCheck Guess=TCheck SCRF=Check GenChk RB3LYP/6-31G(d,p) Freq
 ----------------------------------------------------------------------

 Structure from the checkpoint file:  "B3LYP6-31Gdp.Frag_836.chk"
 --------
 Frag_836
 --------
 Charge =  0 Multiplicity = 1

                         Standard orientation:
 ---------------------------------------------------------------------
 Center     Atomic      Atomic             Coordinates (Angstroms)
 Number     Number       Type             X           Y           Z
 ---------------------------------------------------------------------
      1          6           0       -1.773139   -1.038416   -0.010433
      2          6           0       -0.913956    0.192344   -0.038433
      3          7           0       -1.292351    1.407289   -0.081400
      4          6           0        0.614207   -0.015826    0.001709
      5          7           0        1.042077   -0.860739   -1.103118
      6          8           0        1.264064    1.206371   -0.083861
      7          8           0        0.865127   -0.642761    1.261232
      8          1           0       -1.546806   -1.625234    0.885481
      9          1           0       -2.836470   -0.785184   -0.015691
     10          1           0       -1.545461   -1.661896   -0.880188
     11          1           0       -2.309952    1.501210   -0.100109
     12          1           0        1.293897   -1.776947   -0.745055
     13          1           0        1.860022   -0.438900   -1.531979
     14          1           0        0.546451    1.875495   -0.029935
     15          1           0        1.694038   -0.251895    1.573085
 ---------------------------------------------------------------------

 SCF Done:  E(RB3LYP) =  -379.086598854     A.U. after    1 cycles

 The electronic state is 1-A.
 Alpha  occ. eigenvalues --  -19.14720 -19.14515 -14.32859 -14.31369 -10.31206
 Alpha  occ. eigenvalues --  -10.24327 -10.19171  -1.07086  -0.99244  -0.91082
 Alpha  occ. eigenvalues --   -0.86871  -0.73904  -0.66056  -0.57391  -0.54209
 Alpha  occ. eigenvalues --   -0.49101  -0.47134  -0.46454  -0.44429  -0.42188
 Alpha  occ. eigenvalues --   -0.41242  -0.38822  -0.34712  -0.31674  -0.30657
 Alpha  occ. eigenvalues --   -0.28655  -0.27401  -0.24482
 Alpha virt. eigenvalues --   -0.00085   0.08107   0.09695   0.12034   0.13533
 Alpha virt. eigenvalues --    0.14609   0.16101   0.17500   0.18285   0.23759
 Alpha virt. eigenvalues --    0.26098   0.26735   0.29099   0.30694   0.41614

 Mulliken charges:
               1
     1  C   -0.376138
     2  C    0.349201
     3  N   -0.588004
     4  C    0.545519
     5  N   -0.604168
     6  O   -0.573296
     7  O   -0.546293
     8  H    0.152008
     9  H    0.107963
    10  H    0.152464
    11  H    0.232109
    12  H    0.247400
    13  H    0.256682
    14  H    0.334619
    15  H    0.309933
 Sum of Mulliken charges =  -0.00000

 Dipole moment (field-independent basis, Debye):
    X=             -0.5412    Y=             -1.1304    Z=              0.2821  Tot=              1.2846
 Quadrupole moment (field-independent basis, Debye-Ang):
   XX=            -33.6868   YY=            -42.0577   ZZ=            -43.7016
   XY=             -2.0951   XZ=              0.5375   YZ=              0.9840

  Exact polarizability:  57.144  -3.183  57.232  -0.454  -0.084  39.640
 Approx polarizability:  73.168  -6.145  87.753  -0.539  -1.684  56.711

                      1                      2                      3
                      A                      A                      A
 Frequencies --     80.9628                97.7099               138.9681
 Red. masses --      1.4483                 2.1145                 1.1899
 Frc consts  --      0.0056                 0.0119                 0.0135
 IR Inten    --     34.9174                22.1307                58.1098

                      4                      5                      6
                      A                      A                      A
 Frequencies --    170.4592               238.7924               271.3709
 Red. masses --      1.0865                 3.3736                 3.1516
 Frc consts  --      0.0186                 0.1133                 0.1367
 IR Inten    --     10.0481                15.1171                 8.7663

                      7                      8                      9
                      A                      A                      A
 Frequencies --    404.2000               422.3300               480.7401
 Red. masses --      3.6296                 4.2397                 4.2233
 Frc consts  --      0.3494                 0.4455                 0.5751
 IR Inten    --      9.4040                 6.0763                 6.7988

                     10                     11                     12
                      A                      A                      A
 Frequencies --    532.7595               587.5129               600.0451
 Red. masses --      3.0297                 1.6781                 3.0875
 Frc consts  --      0.5067                 0.3413                 0.6550
 IR Inten    --      9.0102                22.4998                32.9703

                     13                     14                     15
                      A                      A                      A
 Frequencies --    639.0352               741.9462               824.4860
 Red. masses --      1.7167                 3.2478                 1.5992
 Frc consts  --      0.4130                 1.0534                 0.6405
 IR Inten    --     50.6853                 7.8239               132.9562

                     16                     17                     18
                      A                      A                      A
 Frequencies --    882.4261               988.1992              1016.7177
 Red. masses --      1.2624                 2.2670                 2.5377
 Frc consts  --      0.5792                 1.3043                 1.5456
 IR Inten    --      5.5139                 8.9147               328.8544

                     19                     20                     21
                      A                      A                      A
 Frequencies --   1035.8233              1080.6316              1097.4986
 Red. masses --      2.2018                 1.6423                 1.4679
 Frc consts  --      1.3919                 1.1300                 1.0418
 IR Inten    --     29.3457                13.9898                58.1573

                     22                     23                     24
                      A                      A                      A
 Frequencies --   1162.2933              1263.5570              1326.1951
 Red. masses --      2.6885                 1.4718                 1.9695
 Frc consts  --      2.1399                 1.3845                 2.0409
 IR Inten    --    112.4335                 5.9963               155.3191

                     25                     26                     27
                      A                      A                      A
 Frequencies --   1398.1839              1429.8203              1480.2733
 Red. masses --      1.3151                 1.7531                 1.5815
 Frc consts  --      1.5147                 2.1117                 2.0417
 IR Inten    --      3.6597                59.4261               206.9103

                     28                     29                     30
                      A                      A                      A
 Frequencies --   1482.5325              1502.6596              1638.5586
 Red. masses --      1.0483                 1.0877                 1.1265
 Frc consts  --      1.3575                 1.4470                 1.7820
 IR Inten    --     11.2937                35.2159                23.6197

                     31                     32                     33
                      A                      A                      A
 Frequencies --   1752.3163              3054.8770              3129.1671
 Red. masses --      9.0866                 1.0345                 1.1004
 Frc consts  --     16.4391                 5.6881                 6.3481
 IR Inten    --     58.0001                 6.5408                 3.1804

                     34                     35                     36
                      A                      A                      A
 Frequencies --   3140.2485              3473.4279              3519.3030
 Red. masses --      1.1045                 1.0758                 1.0484
 Frc consts  --      6.4172                 7.6473                 7.6502
 IR Inten    --     15.3351                 3.4925                 3.8129

                     37                     38                     39
                      A                      A                      A
 Frequencies --   3530.3162              3620.4049              3804.3117
 Red. masses --      1.0646                 1.0949                 1.0656
 Frc consts  --      7.8175                 8.4553                 9.0865
 IR Inten    --    181.5202                 9.0728                43.4666

 - Thermochemistry -
 -------------------
 Temperature   298.150 Kelvin.  Pressure   1.00000 Atm.
 Atom     1 has atomic number  6 and mass  12.00000

 Molecular mass:   104.05858 amu.
 Principal axes and moments of inertia in atomic units:
                           1         2         3
     Eigenvalues --   522.33515 730.96488 898.68209
           X            0.99967   0.02461  -0.00776
           Y           -0.02437   0.99924   0.03034
           Z            0.00850  -0.03014   0.99951
 This molecule is an asymmetric top.
 Rotational symmetry number  1.
 Warning -- assumption of classical behavior for rotation
           may cause significant error
 Rotational temperatures (Kelvin)      0.16582     0.11849     0.09638
 Rotational constants (GHZ):           3.45514     2.46898     2.00821
 Zero-point vibrational energy     323237.3 (Joules/Mol)
                                   77.25557 (Kcal/Mol)
 Warning -- explicit consideration of  12 degrees of freedom as
           vibrations may cause significant error
 Vibrational temperatures:    116.49   140.58   199.94   245.25   343.57
          (Kelvin)            390.44   581.55   607.64   691.68   766.52
                              845.30   863.33   919.43  1067.49  1186.25
                             1269.61  1421.80  1462.83  1490.32  1554.79
                             1579.05  1672.28  1817.97  1908.10  2011.67
                             2057.19  2129.78  2133.03  2161.99  2357.52
                             2521.19  4395.28  4502.17  4518.11  4997.48
                             5063.49  5079.33  5208.95  5473.55

 Zero-point correction=                           0.123115 (Hartree/Particle)
 Thermal correction to Energy=                    0.131649
 Thermal correction to Enthalpy=                  0.132593
 Thermal correction to Gibbs Free Energy=         0.090405
 Sum of electronic and zero-point Energies=           -378.963484
 Sum of electronic and thermal Energies=              -378.954950
 Sum of electronic and thermal Enthalpies=            -378.954006
 Sum of electronic and thermal Free Energies=         -378.996194

                     E (Thermal)             CV                S
                      KCal/Mol        Cal/Mol-Kelvin    Cal/Mol-Kelvin
 Total                   82.611             30.170             88.792
 Electronic               0.000              0.000              0.000
 Translational            0.889              2.981             39.837
 Rotational               0.889              2.981             27.331
 Vibrational             80.833             24.208             21.625
 Vibration     1          0.600              1.962              3.867
 Vibration     2          0.603              1.951              3.499
 Vibration     3          0.615              1.914              2.818
 Vibration     4          0.626              1.879              2.430
 Vibration     5          0.657              1.781              1.812
 Vibration     6          0.675              1.726              1.587
 Vibration     7          0.769              1.461              0.947
 Vibration     8          0.785              1.422              0.884
 Vibration     9          0.837              1.293              0.708
 Vibration    10          0.888              1.178              0.581
 Vibration    11          0.945              1.058              0.472
 Vibration    12          0.958              1.032              0.450

 Normal termination of Gaussian 09 at Thu Sep  8 15:23:17 2022.
