 Gaussian 09, Revision E.01,
 Gaussian 09:  ES64L-G09RevE.01 30-Nov-2015

 ----------------------------
 #P OPT Freq B3LYP/6-31G(d,p)
 ----------------------------

 --------
 Frag_442
 --------
 Symbolic Z-matrix:
 Charge =  0 Multiplicity = 1

 SCF Done:  E(RB3LYP) =  -276.415653991     A.U. after   12 cycles
 SCF Done:  E(RB3LYP) =  -276.415662987     A.U. after    7 cycles
 SCF Done:  E(RB3LYP) =  -276.415664090     A.U. after    6 cycles
 Optimization completed.
    -- Stationary point found.
 Normal termination of Gaussian 09 at Thu Sep  8 15:23:08 2022.

 ----------------------------------------------------------------------
 #P Geom=AllCheck Guess=TCheck SCRF=Check GenChk RB3LYP/6-31G(d,p) Freq
 ----------------------------------------------------------------------

 Structure from the checkpoint file:  "B3LYP6-31Gdp.Frag_442.chk"
 --------
 Frag_442
 --------
 Charge =  0 Multiplicity = 1

                         Standard orientation:
 ---------------------------------------------------------------------
 Center     Atomic      Atomic             Coordinates (Angstroms)
 Number     Number       Type             X           Y           Z
 ---------------------------------------------------------------------
      1          6           0        1.640695    1.253047   -0.016703
      2          6           0        0.857754   -0.000006   -0.448762
      3          6           0        1.640717   -1.253050   -0.016714
      4          6           0       -0.646422   -0.000006    0.000255
      5          6           0       -1.359402   -1.245559   -0.569012
      6          6           0       -0.795974   -0.000146    1.534865
      7          6           0       -1.359303    1.245712   -0.568774
      8          1           0        1.181461    2.179420   -0.371321
      9          1           0        2.657811    1.218025   -0.421610
     10          1           0        1.730436    1.317555    1.073419
     11          1           0        0.833721    0.000003   -1.549414
     12          1           0        2.657854   -1.217972   -0.421563
     13          1           0        1.730401   -1.317601    1.073411
     14          1           0        1.181540   -2.179426   -0.371396
     15          1           0       -1.233993   -1.312660   -1.656200
     16          1           0       -2.434297   -1.199173   -0.362172
     17          1           0       -0.984544   -2.174456   -0.129729
     18          1           0       -1.855906   -0.000157    1.813425
     19          1           0       -0.340224   -0.885433    1.989631
     20          1           0       -0.340200    0.885044    1.989795
     21          1           0       -2.434191    1.199408   -0.361883
     22          1           0       -1.233943    1.312974   -1.655957
     23          1           0       -0.984320    2.174498   -0.129362
 ---------------------------------------------------------------------

 SCF Done:  E(RB3LYP) =  -276.415664090     A.U. after    1 cycles

 The electronic state is 1-A.
 Alpha  occ. eigenvalues --  -10.19131 -10.18281 -10.16731 -10.16730 -10.16659
 Alpha  occ. eigenvalues --  -10.16651 -10.16650  -0.82154  -0.74980  -0.68666
 Alpha  occ. eigenvalues --   -0.67772  -0.66313  -0.59696  -0.51425  -0.46180
 Alpha  occ. eigenvalues --   -0.44513  -0.43208  -0.42398  -0.40121  -0.38904
 Alpha  occ. eigenvalues --   -0.37302  -0.37049  -0.36167  -0.35493  -0.34089
 Alpha  occ. eigenvalues --   -0.33481  -0.30663  -0.30293  -0.29649
 Alpha virt. eigenvalues --    0.07500   0.12306   0.12908   0.13069   0.13180
 Alpha virt. eigenvalues --    0.14444   0.15210   0.16058   0.17614   0.18502
 Alpha virt. eigenvalues --    0.18891   0.20781   0.20919   0.21915   0.22153

 Mulliken charges:
               1
     1  C   -0.319057
     2  C   -0.031459
     3  C   -0.319058
     4  C    0.052530
     5  C   -0.303900
     6  C   -0.306173
     7  C   -0.303900
     8  H    0.100144
     9  H    0.096130
    10  H    0.100823
    11  H    0.076974
    12  H    0.096131
    13  H    0.100825
    14  H    0.100143
    15  H    0.093862
    16  H    0.092884
    17  H    0.098352
    18  H    0.094633
    19  H    0.097509
    20  H    0.097508
    21  H    0.092882
    22  H    0.093862
    23  H    0.098354
 Sum of Mulliken charges =  -0.00000

 Dipole moment (field-independent basis, Debye):
    X=              0.0133    Y=             -0.0000    Z=             -0.0313  Tot=              0.0340
 Quadrupole moment (field-independent basis, Debye-Ang):
   XX=            -48.2982   YY=            -48.5505   ZZ=            -48.1920
   XY=              0.0000   XZ=             -0.2098   YZ=             -0.0000

  Exact polarizability:  80.708   0.000  75.022  -0.232  -0.000  70.841
 Approx polarizability: 105.520   0.000 102.091  -0.671  -0.000 102.905

                      1                      2                      3
                      A                      A                      A
 Frequencies --     41.7454               189.8479               230.5917
 Red. masses --      2.0964                 1.0186                 1.3835
 Frc consts  --      0.0022                 0.0216                 0.0433
 IR Inten    --      0.0004                 0.0021                 0.0113

                      4                      5                      6
                      A                      A                      A
 Frequencies --    230.7102               255.6056               257.5349
 Red. masses --      1.0615                 1.3217                 1.0546
 Frc consts  --      0.0333                 0.0509                 0.0412
 IR Inten    --      0.0166                 0.1024                 0.0040

                      7                      8                      9
                      A                      A                      A
 Frequencies --    293.2855               296.1739               352.8467
 Red. masses --      1.8697                 1.7538                 2.2418
 Frc consts  --      0.0948                 0.0906                 0.1644
 IR Inten    --      0.0098                 0.0009                 0.0020

                     10                     11                     12
                      A                      A                      A
 Frequencies --    374.5416               387.9029               440.3792
 Red. masses --      2.1496                 1.9914                 2.0803
 Frc consts  --      0.1777                 0.1765                 0.2377
 IR Inten    --      0.0305                 0.0344                 0.0772

                     13                     14                     15
                      A                      A                      A
 Frequencies --    454.5735               521.1365               683.1293
 Red. masses --      2.5995                 2.2538                 2.8056
 Frc consts  --      0.3165                 0.3606                 0.7714
 IR Inten    --      0.0192                 0.8450                 0.3845

                     16                     17                     18
                      A                      A                      A
 Frequencies --    832.3949               922.6694               926.8077
 Red. masses --      2.3745                 2.0282                 1.2395
 Frc consts  --      0.9694                 1.0173                 0.6273
 IR Inten    --      1.3943                 0.1562                 1.2168

                     19                     20                     21
                      A                      A                      A
 Frequencies --    934.0448               934.5331               958.9311
 Red. masses --      1.6096                 1.8024                 1.1999
 Frc consts  --      0.8274                 0.9274                 0.6501
 IR Inten    --      0.0768                 0.6129                 0.0831

                     22                     23                     24
                      A                      A                      A
 Frequencies --    970.6968              1017.2036              1034.1548
 Red. masses --      1.4415                 1.3064                 1.4434
 Frc consts  --      0.8003                 0.7964                 0.9095
 IR Inten    --      0.1544                 1.2013                 0.2708

                     25                     26                     27
                      A                      A                      A
 Frequencies --   1110.8956              1128.8193              1191.0190
 Red. masses --      1.4240                 2.0555                 1.9134
 Frc consts  --      1.0354                 1.5432                 1.5992
 IR Inten    --      6.0274                 2.2466                 8.7723

                     28                     29                     30
                      A                      A                      A
 Frequencies --   1239.0817              1249.3586              1276.6298
 Red. masses --      2.2355                 2.5896                 2.6770
 Frc consts  --      2.0222                 2.3816                 2.5705
 IR Inten    --      8.1667                 3.1008                 2.1580

                     31                     32                     33
                      A                      A                      A
 Frequencies --   1357.7820              1366.2323              1409.6018
 Red. masses --      1.3590                 1.4155                 1.2733
 Frc consts  --      1.4761                 1.5567                 1.4906
 IR Inten    --      1.3626                 1.1967                 0.2071

                     34                     35                     36
                      A                      A                      A
 Frequencies --   1411.1805              1417.7817              1431.0531
 Red. masses --      1.2581                 1.2326                 1.2375
 Frc consts  --      1.4762                 1.4598                 1.4932
 IR Inten    --      5.8120                 7.0649                11.7608

                     37                     38                     39
                      A                      A                      A
 Frequencies --   1448.2354              1490.8593              1497.9499
 Red. masses --      1.2167                 1.0496                 1.0490
 Frc consts  --      1.5035                 1.3745                 1.3868
 IR Inten    --      1.5792                 0.4379                 0.5616

                     40                     41                     42
                      A                      A                      A
 Frequencies --   1500.2627              1503.5144              1517.0783
 Red. masses --      1.0440                 1.0428                 1.0462
 Frc consts  --      1.3844                 1.3889                 1.4187
 IR Inten    --      0.0450                 0.0282                 9.4795

                     43                     44                     45
                      A                      A                      A
 Frequencies --   1517.7757              1522.9158              1524.4334
 Red. masses --      1.0435                 1.0540                 1.0635
 Frc consts  --      1.4163                 1.4403                 1.4561
 IR Inten    --      3.4308                 2.2493                 1.5638

                     46                     47                     48
                      A                      A                      A
 Frequencies --   1532.0131              1538.0502              2998.6719
 Red. masses --      1.0502                 1.0560                 1.0834
 Frc consts  --      1.4523                 1.4718                 5.7396
 IR Inten    --     11.7515                 1.5649                24.4741

                     49                     50                     51
                      A                      A                      A
 Frequencies --   3033.1588              3036.4092              3041.3849
 Red. masses --      1.0359                 1.0359                 1.0372
 Frc consts  --      5.6150                 5.6271                 5.6526
 IR Inten    --     16.3929                34.1139                26.1393

                     52                     53                     54
                      A                      A                      A
 Frequencies --   3041.5119              3049.2911              3098.5877
 Red. masses --      1.0367                 1.0379                 1.1021
 Frc consts  --      5.6507                 5.6859                 6.2346
 IR Inten    --     26.9544                 8.5102                 0.0075

                     55                     56                     57
                      A                      A                      A
 Frequencies --   3100.2558              3101.0650              3106.4371
 Red. masses --      1.1020                 1.1018                 1.1007
 Frc consts  --      6.2407                 6.2429                 6.2581
 IR Inten    --      1.7009                 2.9006                99.4440

                     58                     59                     60
                      A                      A                      A
 Frequencies --   3108.6654              3109.5795              3114.9099
 Red. masses --      1.1008                 1.1028                 1.1009
 Frc consts  --      6.2678                 6.2830                 6.2937
 IR Inten    --     52.2616                 0.0717                90.5371

                     61                     62                     63
                      A                      A                      A
 Frequencies --   3119.1881              3127.7967              3128.2764
 Red. masses --      1.1013                 1.0999                 1.0995
 Frc consts  --      6.3131                 6.3396                 6.3396
 IR Inten    --     37.5901                52.7355                 9.5744

 - Thermochemistry -
 -------------------
 Temperature   298.150 Kelvin.  Pressure   1.00000 Atm.
 Atom     1 has atomic number  6 and mass  12.00000

 Molecular mass:   100.12520 amu.
 Principal axes and moments of inertia in atomic units:
                           1         2         3
     Eigenvalues --   605.01232 842.113921011.79811
           X            0.99998   0.00000   0.00601
           Y           -0.00000   1.00000  -0.00000
           Z           -0.00601   0.00000   0.99998
 This molecule is an asymmetric top.
 Rotational symmetry number  1.
 Warning -- assumption of classical behavior for rotation
           may cause significant error
 Rotational temperatures (Kelvin)      0.14316     0.10285     0.08560
 Rotational constants (GHZ):           2.98298     2.14311     1.78370
 Zero-point vibrational energy     568460.4 (Joules/Mol)
                                  135.86529 (Kcal/Mol)
 Warning -- explicit consideration of  14 degrees of freedom as
           vibrations may cause significant error
 Vibrational temperatures:     60.06   273.15   331.77   331.94   367.76
          (Kelvin)            370.53   421.97   426.13   507.67   538.88
                              558.11   633.61   654.03   749.80   982.87
                             1197.63  1327.51  1333.47  1343.88  1344.58
                             1379.69  1396.61  1463.53  1487.92  1598.33
                             1624.12  1713.61  1782.76  1797.55  1836.78
                             1953.54  1965.70  2028.10  2030.37  2039.87
                             2058.96  2083.69  2145.01  2155.21  2158.54
                             2163.22  2182.73  2183.74  2191.13  2193.32
                             2204.22  2212.91  4314.41  4364.03  4368.71
                             4375.87  4376.05  4387.24  4458.17  4460.57
                             4461.74  4469.46  4472.67  4473.99  4481.66
                             4487.81  4500.20  4500.89

 Zero-point correction=                           0.216515 (Hartree/Particle)
 Thermal correction to Energy=                    0.226104
 Thermal correction to Enthalpy=                  0.227048
 Thermal correction to Gibbs Free Energy=         0.183245
 Sum of electronic and zero-point Energies=           -276.199149
 Sum of electronic and thermal Energies=              -276.189560
 Sum of electronic and thermal Enthalpies=            -276.188616
 Sum of electronic and thermal Free Energies=         -276.232419

                     E (Thermal)             CV                S
                      KCal/Mol        Cal/Mol-Kelvin    Cal/Mol-Kelvin
 Total                  141.882             36.318             92.191
 Electronic               0.000              0.000              0.000
 Translational            0.889              2.981             39.722
 Rotational               0.889              2.981             27.735
 Vibrational            140.105             30.357             24.734
 Vibration     1          0.594              1.980              5.174
 Vibration     2          0.633              1.854              2.229
 Vibration     3          0.652              1.794              1.874
 Vibration     4          0.652              1.794              1.873
 Vibration     5          0.666              1.753              1.692
 Vibration     6          0.667              1.750              1.678
 Vibration     7          0.688              1.686              1.455
 Vibration     8          0.690              1.681              1.438
 Vibration     9          0.729              1.569              1.153
 Vibration    10          0.746              1.524              1.061
 Vibration    11          0.756              1.496              1.008
 Vibration    12          0.800              1.382              0.825
 Vibration    13          0.813              1.351              0.782
 Vibration    14          0.876              1.203              0.607

 Optimization completed.
    -- Stationary point found.
 Normal termination of Gaussian 09 at Thu Sep  8 15:23:34 2022.
