 Gaussian 09, Revision E.01,
 Gaussian 09:  ES64L-G09RevE.01 30-Nov-2015

 ----------------------------
 #P OPT Freq B3LYP/6-31G(d,p)
 ----------------------------

 ---------
 Frag_1130
 ---------
 Symbolic Z-matrix:
 Charge =  0 Multiplicity = 1

 SCF Done:  E(RB3LYP) =  -302.556303090     A.U. after   15 cycles
 SCF Done:  E(RB3LYP) =  -302.556413263     A.U. after   12 cycles
 SCF Done:  E(RB3LYP) =  -302.556422039     A.U. after   11 cycles
 SCF Done:  E(RB3LYP) =  -302.556427216     A.U. after    9 cycles
 SCF Done:  E(RB3LYP) =  -302.556427993     A.U. after    9 cycles
 SCF Done:  E(RB3LYP) =  -302.556428540     A.U. after    8 cycles
 SCF Done:  E(RB3LYP) =  -302.556428692     A.U. after    8 cycles
 Optimization completed.
    -- Stationary point found.
 Normal termination of Gaussian 09 at Thu Sep  8 14:49:38 2022.

 ----------------------------------------------------------------------
 #P Geom=AllCheck Guess=TCheck SCRF=Check GenChk RB3LYP/6-31G(d,p) Freq
 ----------------------------------------------------------------------

 Structure from the checkpoint file:  "B3LYP6-31Gdp.Frag_1130.chk"
 ---------
 Frag_1130
 ---------
 Charge =  0 Multiplicity = 1

                         Standard orientation:
 ---------------------------------------------------------------------
 Center     Atomic      Atomic             Coordinates (Angstroms)
 Number     Number       Type             X           Y           Z
 ---------------------------------------------------------------------
      1          6           0        1.321417    1.232043   -0.191026
      2          6           0        0.710859    0.061738   -0.001350
      3          7           0        1.300044   -1.202111    0.108134
      4          7           0       -0.764494    0.047195    0.007271
      5          6           0       -1.397657   -1.078008   -0.231040
      6          8           0       -1.337621    1.154262    0.248986
      7          1           0        2.402473    1.303527   -0.173430
      8          1           0        0.727855    2.116822   -0.368495
      9          1           0        1.015093   -1.711337    0.939356
     10          1           0        2.310109   -1.157330    0.049725
     11          1           0       -2.476263   -1.041307   -0.200311
     12          1           0       -0.834869   -1.954699   -0.506074
 ---------------------------------------------------------------------

 SCF Done:  E(RB3LYP) =  -302.556428692     A.U. after    1 cycles

 The electronic state is 1-A.
 Alpha  occ. eigenvalues --  -19.11309 -14.47821 -14.36315 -10.26721 -10.21606
 Alpha  occ. eigenvalues --  -10.18414  -1.10080  -0.94052  -0.84061  -0.76486
 Alpha  occ. eigenvalues --   -0.65654  -0.56030  -0.54592  -0.51242  -0.47937
 Alpha  occ. eigenvalues --   -0.45251  -0.44184  -0.42277  -0.39187  -0.34115
 Alpha  occ. eigenvalues --   -0.24134  -0.23618  -0.21714
 Alpha virt. eigenvalues --   -0.03992   0.05210   0.06785   0.10881   0.13791
 Alpha virt. eigenvalues --    0.14737   0.16245   0.17571   0.22123   0.25764
 Alpha virt. eigenvalues --    0.30678   0.32332   0.36130   0.51064   0.53049

 Mulliken charges:
               1
     1  C   -0.272085
     2  C    0.438692
     3  N   -0.652170
     4  N    0.056057
     5  C   -0.115720
     6  O   -0.504069
     7  H    0.094981
     8  H    0.145819
     9  H    0.268906
    10  H    0.268640
    11  H    0.133743
    12  H    0.137207
 Sum of Mulliken charges =  -0.00000

 Dipole moment (field-independent basis, Debye):
    X=              2.8468    Y=             -2.9866    Z=              0.4065  Tot=              4.1460
 Quadrupole moment (field-independent basis, Debye-Ang):
   XX=            -31.3458   YY=            -35.0451   ZZ=            -36.5160
   XY=              2.8771   XZ=              2.0130   YZ=             -2.9465

  Exact polarizability:  59.368  10.738  70.133  -0.658  -0.153  24.074
 Approx polarizability:  80.095  20.879 142.280  -2.274   5.015  35.950

                      1                      2                      3
                      A                      A                      A
 Frequencies --     95.2468               308.1107               346.2290
 Red. masses --      4.2858                 1.2460                 2.7442
 Frc consts  --      0.0229                 0.0697                 0.1938
 IR Inten    --      2.6558                25.9630                20.1367

                      4                      5                      6
                      A                      A                      A
 Frequencies --    407.7668               431.8060               544.8098
 Red. masses --      2.4213                 2.7919                 2.6771
 Frc consts  --      0.2372                 0.3067                 0.4682
 IR Inten    --      8.0118                 1.6815                13.6196

                      7                      8                      9
                      A                      A                      A
 Frequencies --    558.4420               616.6660               723.4767
 Red. masses --      4.1065                 1.3563                 1.2434
 Frc consts  --      0.7545                 0.3039                 0.3835
 IR Inten    --     11.7130                58.7024                13.6917

                     10                     11                     12
                      A                      A                      A
 Frequencies --    746.1863               773.4138               786.9711
 Red. masses --      1.8123                 1.8818                 1.7552
 Frc consts  --      0.5945                 0.6632                 0.6405
 IR Inten    --     45.4213                 6.7552                58.8763

                     13                     14                     15
                      A                      A                      A
 Frequencies --    810.6212               865.3436               970.5928
 Red. masses --      1.7374                 1.3496                 1.6619
 Frc consts  --      0.6726                 0.5954                 0.9224
 IR Inten    --    112.5020                44.2314                 3.9264

                     16                     17                     18
                      A                      A                      A
 Frequencies --   1097.6629              1135.5427              1302.0785
 Red. masses --      2.0002                 1.5272                 2.2161
 Frc consts  --      1.4199                 1.1603                 2.2137
 IR Inten    --     26.2809                10.2309                40.0313

                     19                     20                     21
                      A                      A                      A
 Frequencies --   1361.0979              1422.3616              1454.3676
 Red. masses --      3.1199                 1.1738                 1.4845
 Frc consts  --      3.4054                 1.3992                 1.8500
 IR Inten    --      5.1865                 6.0283                34.2420

                     22                     23                     24
                      A                      A                      A
 Frequencies --   1610.8390              1641.0837              1753.5882
 Red. masses --      5.2560                 1.1781                 5.4961
 Frc consts  --      8.0355                 1.8693                 9.9578
 IR Inten    --    157.5107                40.4460                51.2593

                     25                     26                     27
                      A                      A                      A
 Frequencies --   3194.7921              3217.2889              3305.9752
 Red. masses --      1.0619                 1.0505                 1.1155
 Frc consts  --      6.3858                 6.4067                 7.1833
 IR Inten    --      8.7284                 3.7034                 1.7000

                     28                     29                     30
                      A                      A                      A
 Frequencies --   3350.4053              3523.4227              3635.1330
 Red. masses --      1.1258                 1.0503                 1.0943
 Frc consts  --      7.4454                 7.6820                 8.5194
 IR Inten    --      0.3907                 7.7734                 8.4104

 - Thermochemistry -
 -------------------
 Temperature   298.150 Kelvin.  Pressure   1.00000 Atm.
 Atom     1 has atomic number  6 and mass  12.00000

 Molecular mass:    86.04801 amu.
 Principal axes and moments of inertia in atomic units:
                           1         2         3
     Eigenvalues --   329.64981 480.27199 784.53055
           X            0.99452   0.10411   0.00952
           Y           -0.10395   0.99445  -0.01648
           Z           -0.01119   0.01540   0.99982
 This molecule is an asymmetric top.
 Rotational symmetry number  1.
 Rotational temperatures (Kelvin)      0.26274     0.18034     0.11040
 Rotational constants (GHZ):           5.47472     3.75775     2.30041
 Zero-point vibrational energy     251163.9 (Joules/Mol)
                                   60.02961 (Kcal/Mol)
 Warning -- explicit consideration of   8 degrees of freedom as
           vibrations may cause significant error
 Vibrational temperatures:    137.04   443.30   498.15   586.68   621.27
          (Kelvin)            783.86   803.47   887.24  1040.92  1073.59
                             1112.77  1132.27  1166.30  1245.03  1396.46
                             1579.29  1633.79  1873.40  1958.31  2046.46
                             2092.51  2317.64  2361.15  2523.02  4596.59
                             4628.96  4756.55  4820.48  5069.41  5230.14

 Zero-point correction=                           0.095663 (Hartree/Particle)
 Thermal correction to Energy=                    0.101758
 Thermal correction to Enthalpy=                  0.102702
 Thermal correction to Gibbs Free Energy=         0.066284
 Sum of electronic and zero-point Energies=           -302.460765
 Sum of electronic and thermal Energies=              -302.454671
 Sum of electronic and thermal Enthalpies=            -302.453727
 Sum of electronic and thermal Free Energies=         -302.490145

                     E (Thermal)             CV                S
                      KCal/Mol        Cal/Mol-Kelvin    Cal/Mol-Kelvin
 Total                   63.854             22.881             76.649
 Electronic               0.000              0.000              0.000
 Translational            0.889              2.981             39.270
 Rotational               0.889              2.981             26.321
 Vibrational             62.077             16.919             11.058
 Vibration     1          0.603              1.953              3.549
 Vibration     2          0.698              1.658              1.372
 Vibration     3          0.724              1.583              1.183
 Vibration     4          0.772              1.453              0.935
 Vibration     5          0.793              1.401              0.853
 Vibration     6          0.900              1.151              0.555
 Vibration     7          0.914              1.121              0.527
 Vibration     8          0.976              0.997              0.422

 Optimization completed.
    -- Stationary point found.
 Normal termination of Gaussian 09 at Thu Sep  8 14:49:48 2022.
