 Gaussian 09, Revision E.01,
 Gaussian 09:  ES64L-G09RevE.01 30-Nov-2015

 ----------------------------
 #P OPT Freq B3LYP/6-31G(d,p)
 ----------------------------

 ---------
 Frag_1128
 ---------
 Symbolic Z-matrix:
 Charge =  0 Multiplicity = 1

 SCF Done:  E(RB3LYP) =  -280.563328883     A.U. after   13 cycles
 Optimization completed.
    -- Stationary point found.
 Normal termination of Gaussian 09 at Thu Sep  8 19:56:39 2022.

 ----------------------------------------------------------------------
 #P Geom=AllCheck Guess=TCheck SCRF=Check GenChk RB3LYP/6-31G(d,p) Freq
 ----------------------------------------------------------------------

 Structure from the checkpoint file:  "B3LYP6-31Gdp.Frag_1128.chk"
 ---------
 Frag_1128
 ---------
 Charge =  0 Multiplicity = 1

                         Standard orientation:
 ---------------------------------------------------------------------
 Center     Atomic      Atomic             Coordinates (Angstroms)
 Number     Number       Type             X           Y           Z
 ---------------------------------------------------------------------
      1          7           0        0.444797    1.364133    0.012616
      2          6           0        0.489641    0.086713    0.026955
      3          8           0        1.580793   -0.739901   -0.017216
      4          7           0       -0.650887   -0.677834    0.109112
      5          7           0       -1.908689   -0.066476   -0.085002
      6          1           0        1.372339    1.784804    0.001779
      7          1           0        2.374749   -0.194951   -0.090488
      8          1           0       -0.583280   -1.605394   -0.286219
      9          1           0       -2.175351    0.347737    0.807032
     10          1           0       -1.769189    0.727972   -0.713192
 ---------------------------------------------------------------------

 SCF Done:  E(RB3LYP) =  -280.563328883     A.U. after    1 cycles

 The electronic state is 1-A.
 Alpha  occ. eigenvalues --  -19.19416 -14.37122 -14.34707 -14.29692 -10.30699
 Alpha  occ. eigenvalues --   -1.08661  -0.98226  -0.87342  -0.78964  -0.62429
 Alpha  occ. eigenvalues --   -0.56368  -0.49720  -0.48698  -0.46404  -0.42747
 Alpha  occ. eigenvalues --   -0.41731  -0.29652  -0.28019  -0.26349  -0.23477
 Alpha virt. eigenvalues --    0.05058   0.05775   0.09963   0.11734   0.14217
 Alpha virt. eigenvalues --    0.17347   0.20592   0.25056   0.33525   0.46192
 Alpha virt. eigenvalues --    0.56127   0.57254   0.59509   0.61261   0.66693

 Mulliken charges:
               1
     1  N   -0.588406
     2  C    0.614860
     3  O   -0.513367
     4  N   -0.403951
     5  N   -0.452817
     6  H    0.211434
     7  H    0.319309
     8  H    0.280634
     9  H    0.268242
    10  H    0.264061
 Sum of Mulliken charges =  -0.00000

 Dipole moment (field-independent basis, Debye):
    X=              2.1125    Y=              0.0395    Z=             -0.3344  Tot=              2.1391
 Quadrupole moment (field-independent basis, Debye-Ang):
   XX=            -24.1897   YY=            -30.8530   ZZ=            -29.5873
   XY=              0.9813   XZ=             -1.4419   YZ=              0.6199

  Exact polarizability:  43.043   1.565  39.291  -1.143   0.067  20.098
 Approx polarizability:  55.021   1.170  64.244  -1.822  -0.810  28.241

                      1                      2                      3
                      A                      A                      A
 Frequencies --    168.9472               214.0616               299.9002
 Red. masses --      2.6293                 1.4492                 2.9690
 Frc consts  --      0.0442                 0.0391                 0.1573
 IR Inten    --      1.1086                 6.8089                21.8042

                      4                      5                      6
                      A                      A                      A
 Frequencies --    340.5252               506.4673               553.6155
 Red. masses --      1.0560                 4.3870                 1.4172
 Frc consts  --      0.0721                 0.6630                 0.2559
 IR Inten    --    123.5444                23.1231                99.6912

                      7                      8                      9
                      A                      A                      A
 Frequencies --    658.6816               719.6287               737.5439
 Red. masses --      2.6643                 2.3384                 1.8365
 Frc consts  --      0.6811                 0.7135                 0.5886
 IR Inten    --     74.5054                20.2546               140.9450

                     10                     11                     12
                      A                      A                      A
 Frequencies --    946.9248              1037.1225              1114.2757
 Red. masses --      2.3212                 3.6254                 1.3868
 Frc consts  --      1.2263                 2.2976                 1.0145
 IR Inten    --     69.3625                99.4645                63.3963

                     13                     14                     15
                      A                      A                      A
 Frequencies --   1156.2187              1262.5708              1360.2733
 Red. masses --      1.5528                 2.0800                 1.2435
 Frc consts  --      1.2230                 1.9535                 1.3556
 IR Inten    --    171.3648               100.0419                13.3309

                     16                     17                     18
                      A                      A                      A
 Frequencies --   1386.0591              1533.4290              1722.0160
 Red. masses --      1.3886                 2.0595                 1.0728
 Frc consts  --      1.5718                 2.8533                 1.8744
 IR Inten    --     24.6781               129.8145                45.4316

                     19                     20                     21
                      A                      A                      A
 Frequencies --   1759.4805              3441.8422              3520.7736
 Red. masses --      6.1972                 1.0506                 1.0905
 Frc consts  --     11.3035                 7.3325                 7.9647
 IR Inten    --    289.5330                 5.1931                 0.7997

                     22                     23                     24
                      A                      A                      A
 Frequencies --   3526.1775              3621.2483              3839.8987
 Red. masses --      1.0765                 1.0773                 1.0660
 Frc consts  --      7.8864                 8.3232                 9.2609
 IR Inten    --      3.2388                32.3106                46.0749

 - Thermochemistry -
 -------------------
 Temperature   298.150 Kelvin.  Pressure   1.00000 Atm.
 Atom     1 has atomic number  7 and mass  14.00307

 Molecular mass:    75.04326 amu.
 Principal axes and moments of inertia in atomic units:
                           1         2         3
     Eigenvalues --   176.47277 428.37126 593.85381
           X            0.99992   0.01211  -0.00452
           Y           -0.01209   0.99991   0.00501
           Z            0.00458  -0.00496   0.99998
 This molecule is an asymmetric top.
 Rotational symmetry number  1.
 Rotational temperatures (Kelvin)      0.49081     0.20219     0.14585
 Rotational constants (GHZ):          10.22674     4.21303     3.03903
 Zero-point vibrational energy     211904.6 (Joules/Mol)
                                   50.64641 (Kcal/Mol)
 Warning -- explicit consideration of   6 degrees of freedom as
           vibrations may cause significant error
 Vibrational temperatures:    243.08   307.99   431.49   489.94   728.69
          (Kelvin)            796.53   947.69  1035.38  1061.16  1362.41
                             1492.19  1603.19  1663.54  1816.56  1957.13
                             1994.23  2206.26  2477.59  2531.50  4952.04
                             5065.60  5073.38  5210.16  5524.75

 Zero-point correction=                           0.080710 (Hartree/Particle)
 Thermal correction to Energy=                    0.086384
 Thermal correction to Enthalpy=                  0.087328
 Thermal correction to Gibbs Free Energy=         0.052293
 Sum of electronic and zero-point Energies=           -280.482619
 Sum of electronic and thermal Energies=              -280.476945
 Sum of electronic and thermal Enthalpies=            -280.476001
 Sum of electronic and thermal Free Energies=         -280.511036

                     E (Thermal)             CV                S
                      KCal/Mol        Cal/Mol-Kelvin    Cal/Mol-Kelvin
 Total                   54.207             19.569             73.737
 Electronic               0.000              0.000              0.000
 Translational            0.889              2.981             38.862
 Rotational               0.889              2.981             25.310
 Vibrational             52.429             13.608              9.565
 Vibration     1          0.625              1.881              2.447
 Vibration     2          0.644              1.820              2.009
 Vibration     3          0.692              1.674              1.417
 Vibration     4          0.720              1.595              1.210
 Vibration     5          0.862              1.236              0.642
 Vibration     6          0.909              1.132              0.537

 Normal termination of Gaussian 09 at Thu Sep  8 19:56:48 2022.
