 Gaussian 09, Revision E.01,
 Gaussian 09:  ES64L-G09RevE.01 30-Nov-2015

 ----------------------------
 #P OPT Freq B3LYP/6-31G(d,p)
 ----------------------------

 --------
 Frag_808
 --------
 Symbolic Z-matrix:
 Charge =  0 Multiplicity = 1

 SCF Done:  E(RB3LYP) =  -229.042730649     A.U. after   13 cycles
 SCF Done:  E(RB3LYP) =  -229.042800795     A.U. after    9 cycles
 SCF Done:  E(RB3LYP) =  -229.042803291     A.U. after    8 cycles
 Optimization completed.
    -- Stationary point found.
 Normal termination of Gaussian 09 at Thu Sep  8 15:22:07 2022.

 ----------------------------------------------------------------------
 #P Geom=AllCheck Guess=TCheck SCRF=Check GenChk RB3LYP/6-31G(d,p) Freq
 ----------------------------------------------------------------------

 Structure from the checkpoint file:  "B3LYP6-31Gdp.Frag_808.chk"
 --------
 Frag_808
 --------
 Charge =  0 Multiplicity = 1

                         Standard orientation:
 ---------------------------------------------------------------------
 Center     Atomic      Atomic             Coordinates (Angstroms)
 Number     Number       Type             X           Y           Z
 ---------------------------------------------------------------------
      1          6           0       -1.400987   -0.215705    0.000001
      2          6           0       -0.076434   -0.034732   -0.000001
      3          8           0        0.578839    1.164018   -0.000002
      4          8           0        0.811909   -1.053890   -0.000002
      5          1           0       -2.080005    0.627210   -0.000004
      6          1           0       -1.809054   -1.215985    0.000006
      7          1           0       -0.071473    1.878382    0.000012
      8          1           0        1.699074   -0.668005    0.000020
 ---------------------------------------------------------------------

 SCF Done:  E(RB3LYP) =  -229.042803291     A.U. after    1 cycles

 The electronic state is 1-A.
 Alpha  occ. eigenvalues --  -19.19198 -19.18022 -10.29719 -10.15499  -1.10455
 Alpha  occ. eigenvalues --   -1.03046  -0.74105  -0.61744  -0.56691  -0.48078
 Alpha  occ. eigenvalues --   -0.43298  -0.41318  -0.39006  -0.37705  -0.33171
 Alpha  occ. eigenvalues --   -0.20982
 Alpha virt. eigenvalues --    0.05777   0.06592   0.09302   0.15804   0.16610
 Alpha virt. eigenvalues --    0.24063   0.32203   0.36415   0.55445   0.56518
 Alpha virt. eigenvalues --    0.58388   0.59472   0.64753   0.66820   0.75080

 Mulliken charges:
               1
     1  C   -0.339638
     2  C    0.558976
     3  O   -0.541672
     4  O   -0.516612
     5  H    0.075923
     6  H    0.104809
     7  H    0.329055
     8  H    0.329160
 Sum of Mulliken charges =   0.00000

 Dipole moment (field-independent basis, Debye):
    X=              0.4527    Y=              1.8318    Z=              0.0001  Tot=              1.8869
 Quadrupole moment (field-independent basis, Debye-Ang):
   XX=            -20.5781   YY=            -21.3349   ZZ=            -25.3105
   XY=             -2.0770   XZ=              0.0001   YZ=              0.0000

  Exact polarizability:  40.167   0.690  28.947   0.000   0.000  12.849
 Approx polarizability:  61.669   1.777  39.223   0.000   0.000  17.431

                      1                      2                      3
                      A                      A                      A
 Frequencies --    140.4799               371.3450               454.5353
 Red. masses --      1.0848                 1.1114                 2.2923
 Frc consts  --      0.0126                 0.0903                 0.2790
 IR Inten    --    212.6610                13.3218                 2.6370

                      4                      5                      6
                      A                      A                      A
 Frequencies --    527.8034               650.1272               685.9211
 Red. masses --      3.7355                 3.6886                 1.1908
 Frc consts  --      0.6131                 0.9186                 0.3301
 IR Inten    --     24.8112                 1.8104                64.3298

                      7                      8                      9
                      A                      A                      A
 Frequencies --    720.0711               944.4699               979.4399
 Red. masses --      1.3520                 4.5402                 1.7825
 Frc consts  --      0.4130                 2.3862                 1.0075
 IR Inten    --     53.6316                41.4409                27.7431

                     10                     11                     12
                      A                      A                      A
 Frequencies --   1192.9582              1238.4881              1426.2479
 Red. masses --      1.4656                 1.2855                 2.5552
 Frc consts  --      1.2289                 1.1617                 3.0625
 IR Inten    --    168.6583                96.4748               203.0077

                     13                     14                     15
                      A                      A                      A
 Frequencies --   1456.6874              1783.0121              3199.4461
 Red. masses --      1.2546                 5.6553                 1.0612
 Frc consts  --      1.5685                10.5930                 6.4001
 IR Inten    --      8.1982               302.1862                 3.3773

                     16                     17                     18
                      A                      A                      A
 Frequencies --   3296.6168              3817.8994              3838.0012
 Red. masses --      1.1171                 1.0656                 1.0655
 Frc consts  --      7.1531                 9.1512                 9.2470
 IR Inten    --      4.3358                80.7159                44.6803

 - Thermochemistry -
 -------------------
 Temperature   298.150 Kelvin.  Pressure   1.00000 Atm.
 Atom     1 has atomic number  6 and mass  12.00000

 Molecular mass:    60.02113 amu.
 Principal axes and moments of inertia in atomic units:
                           1         2         3
     Eigenvalues --   163.76417 178.74461 342.50877
           X            0.99552  -0.09460   0.00000
           Y            0.09460   0.99552  -0.00000
           Z           -0.00000   0.00000   1.00000
 This molecule is an asymmetric top.
 Rotational symmetry number  1.
 Rotational temperatures (Kelvin)      0.52889     0.48457     0.25288
 Rotational constants (GHZ):          11.02037    10.09676     5.26918
 Zero-point vibrational energy     159842.3 (Joules/Mol)
                                   38.20323 (Kcal/Mol)
 Warning -- explicit consideration of   4 degrees of freedom as
           vibrations may cause significant error
 Vibrational temperatures:    202.12   534.28   653.97   759.39   935.39
          (Kelvin)            986.89  1036.02  1358.88  1409.19  1716.40
                             1781.91  2052.05  2095.85  2565.35  4603.28
                             4743.09  5493.10  5522.02

 Zero-point correction=                           0.060881 (Hartree/Particle)
 Thermal correction to Energy=                    0.065665
 Thermal correction to Enthalpy=                  0.066609
 Thermal correction to Gibbs Free Energy=         0.034029
 Sum of electronic and zero-point Energies=           -228.981923
 Sum of electronic and thermal Energies=              -228.977139
 Sum of electronic and thermal Enthalpies=            -228.976194
 Sum of electronic and thermal Free Energies=         -229.008774

                     E (Thermal)             CV                S
                      KCal/Mol        Cal/Mol-Kelvin    Cal/Mol-Kelvin
 Total                   41.205             15.964             68.570
 Electronic               0.000              0.000              0.000
 Translational            0.889              2.981             38.196
 Rotational               0.889              2.981             23.820
 Vibrational             39.428             10.002              6.553
 Vibration     1          0.615              1.913              2.797
 Vibration     2          0.743              1.531              1.074
 Vibration     3          0.813              1.351              0.782
 Vibration     4          0.883              1.188              0.592

 Optimization completed.
    -- Stationary point found.
 Normal termination of Gaussian 09 at Thu Sep  8 15:22:13 2022.
