 Gaussian 09, Revision E.01,
 Gaussian 09:  ES64L-G09RevE.01 30-Nov-2015

 ----------------------------
 #P OPT Freq B3LYP/6-31G(d,p)
 ----------------------------

 --------
 Frag_859
 --------
 Symbolic Z-matrix:
 Charge =  0 Multiplicity = 1

 SCF Done:  E(RB3LYP) =  -323.720371928     A.U. after   14 cycles
 SCF Done:  E(RB3LYP) =  -323.720434763     A.U. after   11 cycles
 SCF Done:  E(RB3LYP) =  -323.720435261     A.U. after   11 cycles
 SCF Done:  E(RB3LYP) =  -323.720440103     A.U. after    9 cycles
 SCF Done:  E(RB3LYP) =  -323.720440359     A.U. after    7 cycles
 Optimization completed.
    -- Stationary point found.
 Normal termination of Gaussian 09 at Thu Sep  8 15:13:26 2022.

 ----------------------------------------------------------------------
 #P Geom=AllCheck Guess=TCheck SCRF=Check GenChk RB3LYP/6-31G(d,p) Freq
 ----------------------------------------------------------------------

 Structure from the checkpoint file:  "B3LYP6-31Gdp.Frag_859.chk"
 --------
 Frag_859
 --------
 Charge =  0 Multiplicity = 1

                         Standard orientation:
 ---------------------------------------------------------------------
 Center     Atomic      Atomic             Coordinates (Angstroms)
 Number     Number       Type             X           Y           Z
 ---------------------------------------------------------------------
      1          6           0        1.796589   -0.795476    0.046478
      2          6           0        0.744848    0.280117    0.042483
      3          7           0        1.057224    1.493948   -0.182486
      4          6           0       -0.690342   -0.159640    0.371994
      5          8           0       -0.936613   -1.358122   -0.327326
      6          8           0       -1.646476    0.830297    0.072352
      7          1           0        1.590020   -1.535437   -0.732337
      8          1           0        1.796848   -1.335868    1.000850
      9          1           0        2.777456   -0.346918   -0.115641
     10          1           0        0.212718    2.075852   -0.119287
     11          1           0       -0.777698   -0.306054    1.459470
     12          1           0       -1.806370   -1.678336   -0.050223
     13          1           0       -1.635406    0.941721   -0.891371
 ---------------------------------------------------------------------

 SCF Done:  E(RB3LYP) =  -323.720440359     A.U. after    1 cycles

 The electronic state is 1-A.
 Alpha  occ. eigenvalues --  -19.17095 -19.16963 -14.31466 -10.29885 -10.23482
 Alpha  occ. eigenvalues --  -10.18017  -1.08008  -1.01122  -0.90141  -0.73731
 Alpha  occ. eigenvalues --   -0.68686  -0.57922  -0.53738  -0.50430  -0.48300
 Alpha  occ. eigenvalues --   -0.43358  -0.41100  -0.40328  -0.38845  -0.35116
 Alpha  occ. eigenvalues --   -0.32753  -0.30158  -0.29502  -0.25761
 Alpha virt. eigenvalues --   -0.00234   0.07217   0.08288   0.12132   0.14455
 Alpha virt. eigenvalues --    0.15921   0.17143   0.17628   0.20903   0.24201
 Alpha virt. eigenvalues --    0.25295   0.30256   0.41308   0.51527   0.54272

 Mulliken charges:
               1
     1  C   -0.347929
     2  C    0.248591
     3  N   -0.510102
     4  C    0.317402
     5  O   -0.524288
     6  O   -0.528568
     7  H    0.141410
     8  H    0.114391
     9  H    0.132296
    10  H    0.224210
    11  H    0.112599
    12  H    0.314936
    13  H    0.305053
 Sum of Mulliken charges =  -0.00000

 Dipole moment (field-independent basis, Debye):
    X=             -1.9500    Y=             -1.6998    Z=              0.2466  Tot=              2.5986
 Quadrupole moment (field-independent basis, Debye-Ang):
   XX=            -36.1413   YY=            -37.2078   ZZ=            -34.3675
   XY=             -1.0925   XZ=              2.1226   YZ=             -2.3399

  Exact polarizability:  47.142   0.334  53.036  -0.418  -3.033  34.670
 Approx polarizability:  59.998   2.910  81.049  -1.700  -4.996  50.614

                      1                      2                      3
                      A                      A                      A
 Frequencies --     82.5629               173.6439               266.3765
 Red. masses --      4.2736                 1.0561                 3.7373
 Frc consts  --      0.0172                 0.0188                 0.1562
 IR Inten    --      0.9289                 0.3008                 0.9965

                      4                      5                      6
                      A                      A                      A
 Frequencies --    323.5317               372.9874               401.8754
 Red. masses --      2.0247                 1.6856                 2.0140
 Frc consts  --      0.1249                 0.1382                 0.1916
 IR Inten    --     13.6979               112.1072                26.9907

                      7                      8                      9
                      A                      A                      A
 Frequencies --    436.0960               522.0901               578.9460
 Red. masses --      1.6483                 3.3420                 2.7130
 Frc consts  --      0.1847                 0.5367                 0.5358
 IR Inten    --     31.3222                20.9228                92.1990

                     10                     11                     12
                      A                      A                      A
 Frequencies --    639.4727               779.9508               971.4953
 Red. masses --      2.9868                 2.3245                 1.6448
 Frc consts  --      0.7196                 0.8331                 0.9146
 IR Inten    --     15.4873                21.9189                50.2322

                     13                     14                     15
                      A                      A                      A
 Frequencies --    991.6924              1052.6089              1093.1786
 Red. masses --      1.8530                 3.0563                 1.4196
 Frc consts  --      1.0737                 1.9952                 0.9995
 IR Inten    --     59.5358               107.4084                23.1392

                     16                     17                     18
                      A                      A                      A
 Frequencies --   1113.3537              1130.3805              1239.7334
 Red. masses --      3.6629                 1.7230                 1.1564
 Frc consts  --      2.6751                 1.2972                 1.0471
 IR Inten    --    117.2560                27.6079                65.1718

                     19                     20                     21
                      A                      A                      A
 Frequencies --   1296.5672              1363.6326              1419.8513
 Red. masses --      1.3682                 1.3593                 1.3657
 Frc consts  --      1.3552                 1.4893                 1.6221
 IR Inten    --      7.8343                58.9357                42.6350

                     22                     23                     24
                      A                      A                      A
 Frequencies --   1421.0956              1455.6639              1485.5197
 Red. masses --      1.2152                 1.6919                 1.0691
 Frc consts  --      1.4459                 2.1122                 1.3901
 IR Inten    --     17.8319                40.4525                 6.8421

                     25                     26                     27
                      A                      A                      A
 Frequencies --   1490.4939              1745.8732              3014.4961
 Red. masses --      1.0507                 9.1321                 1.0837
 Frc consts  --      1.3752                16.4001                 5.8020
 IR Inten    --      9.2873                45.2128                42.2692

                     28                     29                     30
                      A                      A                      A
 Frequencies --   3048.4961              3112.6791              3163.8839
 Red. masses --      1.0406                 1.0947                 1.1036
 Frc consts  --      5.6978                 6.2493                 6.5086
 IR Inten    --     11.8145                10.7245                 9.2719

                     31                     32                     33
                      A                      A                      A
 Frequencies --   3410.8569              3767.6313              3804.2062
 Red. masses --      1.0722                 1.0651                 1.0660
 Frc consts  --      7.3493                 8.9083                 9.0898
 IR Inten    --      1.1395                21.8112                25.8126

 - Thermochemistry -
 -------------------
 Temperature   298.150 Kelvin.  Pressure   1.00000 Atm.
 Atom     1 has atomic number  6 and mass  12.00000

 Molecular mass:    89.04768 amu.
 Principal axes and moments of inertia in atomic units:
                           1         2         3
     Eigenvalues --   361.63993 546.52076 847.73134
           X            0.99748  -0.07065   0.00575
           Y            0.07075   0.99731  -0.01939
           Z           -0.00436   0.01975   0.99980
 This molecule is an asymmetric top.
 Rotational symmetry number  1.
 Rotational temperatures (Kelvin)      0.23950     0.15848     0.10217
 Rotational constants (GHZ):           4.99044     3.30224     2.12891
 Zero-point vibrational energy     282144.8 (Joules/Mol)
                                   67.43422 (Kcal/Mol)
 Warning -- explicit consideration of   9 degrees of freedom as
           vibrations may cause significant error
 Vibrational temperatures:    118.79   249.83   383.26   465.49   536.64
          (Kelvin)            578.21   627.44   751.17   832.97   920.06
                             1122.17  1397.76  1426.82  1514.47  1572.84
                             1601.87  1626.36  1783.70  1865.47  1961.96
                             2042.85  2044.64  2094.37  2137.33  2144.49
                             2511.92  4337.18  4386.10  4478.45  4552.12
                             4907.46  5420.77  5473.40

 Zero-point correction=                           0.107463 (Hartree/Particle)
 Thermal correction to Energy=                    0.114294
 Thermal correction to Enthalpy=                  0.115238
 Thermal correction to Gibbs Free Energy=         0.077081
 Sum of electronic and zero-point Energies=           -323.612977
 Sum of electronic and thermal Energies=              -323.606147
 Sum of electronic and thermal Enthalpies=            -323.605203
 Sum of electronic and thermal Free Energies=         -323.643359

                     E (Thermal)             CV                S
                      KCal/Mol        Cal/Mol-Kelvin    Cal/Mol-Kelvin
 Total                   71.720             24.309             80.308
 Electronic               0.000              0.000              0.000
 Translational            0.889              2.981             39.372
 Rotational               0.889              2.981             26.619
 Vibrational             69.943             18.347             14.317
 Vibration     1          0.600              1.961              3.829
 Vibration     2          0.627              1.875              2.396
 Vibration     3          0.672              1.735              1.620
 Vibration     4          0.708              1.628              1.292
 Vibration     5          0.744              1.528              1.067
 Vibration     6          0.767              1.466              0.956
 Vibration     7          0.797              1.392              0.839
 Vibration     8          0.877              1.201              0.605
 Vibration     9          0.936              1.077              0.487

 Optimization completed.
    -- Stationary point found.
 Normal termination of Gaussian 09 at Thu Sep  8 15:13:36 2022.
