 Gaussian 09, Revision E.01,
 Gaussian 09:  ES64L-G09RevE.01 30-Nov-2015

 ----------------------------
 #P OPT Freq B3LYP/6-31G(d,p)
 ----------------------------

 --------
 Frag_461
 --------
 Symbolic Z-matrix:
 Charge =  0 Multiplicity = 1

 SCF Done:  E(RB3LYP) =  -284.385865120     A.U. after   14 cycles
 SCF Done:  E(RB3LYP) =  -284.385960918     A.U. after   11 cycles
 SCF Done:  E(RB3LYP) =  -284.385944252     A.U. after   11 cycles
 SCF Done:  E(RB3LYP) =  -284.385980844     A.U. after   10 cycles
 SCF Done:  E(RB3LYP) =  -284.385985454     A.U. after    8 cycles
 SCF Done:  E(RB3LYP) =  -284.385985810     A.U. after    8 cycles
 SCF Done:  E(RB3LYP) =  -284.385986043     A.U. after    7 cycles
 SCF Done:  E(RB3LYP) =  -284.385986241     A.U. after    7 cycles
 SCF Done:  E(RB3LYP) =  -284.385986605     A.U. after    8 cycles
 SCF Done:  E(RB3LYP) =  -284.385987141     A.U. after    8 cycles
 SCF Done:  E(RB3LYP) =  -284.385987951     A.U. after    9 cycles
 SCF Done:  E(RB3LYP) =  -284.385988188     A.U. after    8 cycles
 SCF Done:  E(RB3LYP) =  -284.385988250     A.U. after    7 cycles
 Optimization completed.
    -- Stationary point found.
 Normal termination of Gaussian 09 at Thu Sep  8 15:25:00 2022.

 ----------------------------------------------------------------------
 #P Geom=AllCheck Guess=TCheck SCRF=Check GenChk RB3LYP/6-31G(d,p) Freq
 ----------------------------------------------------------------------

 Structure from the checkpoint file:  "B3LYP6-31Gdp.Frag_461.chk"
 --------
 Frag_461
 --------
 Charge =  0 Multiplicity = 1

                         Standard orientation:
 ---------------------------------------------------------------------
 Center     Atomic      Atomic             Coordinates (Angstroms)
 Number     Number       Type             X           Y           Z
 ---------------------------------------------------------------------
      1          6           0        1.794154   -0.481536   -0.001710
      2          6           0        0.436681    0.171884   -0.018461
      3          8           0        0.222770    1.366794   -0.017020
      4          8           0       -0.546155   -0.760996    0.006431
      5          7           0       -1.884619   -0.210201    0.119538
      6          1           0        2.469295    0.086573   -0.643805
      7          1           0        2.189186   -0.446335    1.018667
      8          1           0        1.744230   -1.522696   -0.322392
      9          1           0       -2.286636   -0.438732   -0.792014
     10          1           0       -1.721674    0.804136    0.108520
 ---------------------------------------------------------------------

 SCF Done:  E(RB3LYP) =  -284.385988250     A.U. after    1 cycles

 The electronic state is 1-A.
 Alpha  occ. eigenvalues --  -19.22200 -19.14623 -14.38495 -10.32546 -10.20593
 Alpha  occ. eigenvalues --   -1.12564  -1.03045  -0.84986  -0.74678  -0.59457
 Alpha  occ. eigenvalues --   -0.52798  -0.49695  -0.47525  -0.45001  -0.41823
 Alpha  occ. eigenvalues --   -0.39787  -0.38089  -0.34205  -0.28803  -0.26338
 Alpha virt. eigenvalues --    0.00479   0.06295   0.09449   0.11853   0.14946
 Alpha virt. eigenvalues --    0.16415   0.16707   0.22189   0.28027   0.34797
 Alpha virt. eigenvalues --    0.51468   0.54247   0.55636   0.57976   0.60041

 Mulliken charges:
               1
     1  C   -0.388260
     2  C    0.595159
     3  O   -0.474983
     4  O   -0.378927
     5  N   -0.346961
     6  H    0.148899
     7  H    0.156432
     8  H    0.140839
     9  H    0.269498
    10  H    0.278303
 Sum of Mulliken charges =  -0.00000

 Dipole moment (field-independent basis, Debye):
    X=              0.7615    Y=             -0.8930    Z=             -1.3309  Tot=              1.7745
 Quadrupole moment (field-independent basis, Debye-Ang):
   XX=            -24.9191   YY=            -33.2329   ZZ=            -28.3665
   XY=             -3.0808   XZ=              3.7536   YZ=              0.9551

  Exact polarizability:  46.697  -0.443  34.789   1.629   0.668  24.567
 Approx polarizability:  57.497   1.133  59.180   1.343   0.694  34.105

                      1                      2                      3
                      A                      A                      A
 Frequencies --     50.8102               169.3052               212.8564
 Red. masses --      1.0709                 1.3335                 2.3399
 Frc consts  --      0.0016                 0.0225                 0.0625
 IR Inten    --      0.9382                57.5957                26.3346

                      4                      5                      6
                      A                      A                      A
 Frequencies --    320.0993               437.9362               604.4574
 Red. masses --      3.5866                 4.0723                 3.0780
 Frc consts  --      0.2165                 0.4602                 0.6626
 IR Inten    --     13.4315                12.9132                 6.9098

                      7                      8                      9
                      A                      A                      A
 Frequencies --    652.1375               868.1963               960.5110
 Red. masses --      4.4892                 4.8064                 6.2643
 Frc consts  --      1.1249                 2.1346                 3.4051
 IR Inten    --      5.1753                26.1638                 3.0214

                     10                     11                     12
                      A                      A                      A
 Frequencies --   1030.9637              1066.3175              1236.9630
 Red. masses --      1.7455                 1.7399                 1.5017
 Frc consts  --      1.0931                 1.1656                 1.3538
 IR Inten    --      5.3078                12.2506                18.9642

                     13                     14                     15
                      A                      A                      A
 Frequencies --   1284.0199              1389.0790              1410.9125
 Red. masses --      2.6382                 1.1948                 1.2880
 Frc consts  --      2.5627                 1.3583                 1.5107
 IR Inten    --    318.3811                 9.4546                33.3725

                     16                     17                     18
                      A                      A                      A
 Frequencies --   1487.0932              1491.3645              1633.3082
 Red. masses --      1.0535                 1.0675                 1.0993
 Frc consts  --      1.3727                 1.3989                 1.7278
 IR Inten    --      9.4321                 9.3266                66.4721

                     19                     20                     21
                      A                      A                      A
 Frequencies --   1824.7892              3069.7207              3143.5546
 Red. masses --      8.8058                 1.0375                 1.0976
 Frc consts  --     17.2760                 5.7603                 6.3903
 IR Inten    --    199.8919                 1.3566                 4.2162

                     22                     23                     24
                      A                      A                      A
 Frequencies --   3176.3674              3379.7262              3502.5915
 Red. masses --      1.1060                 1.0506                 1.0909
 Frc consts  --      6.5745                 7.0707                 7.8854
 IR Inten    --      5.2721                18.7346                 6.4308

 - Thermochemistry -
 -------------------
 Temperature   298.150 Kelvin.  Pressure   1.00000 Atm.
 Atom     1 has atomic number  6 and mass  12.00000

 Molecular mass:    75.03203 amu.
 Principal axes and moments of inertia in atomic units:
                           1         2         3
     Eigenvalues --   173.02085 432.29512 588.24997
           X            0.99850  -0.05282   0.01411
           Y            0.05271   0.99857   0.00845
           Z           -0.01453  -0.00769   0.99986
 This molecule is an asymmetric top.
 Rotational symmetry number  1.
 Rotational temperatures (Kelvin)      0.50060     0.20036     0.14724
 Rotational constants (GHZ):          10.43077     4.17479     3.06798
 Zero-point vibrational energy     205776.1 (Joules/Mol)
                                   49.18167 (Kcal/Mol)
 Warning -- explicit consideration of   6 degrees of freedom as
           vibrations may cause significant error
 Vibrational temperatures:     73.10   243.59   306.25   460.55   630.09
          (Kelvin)            869.68   938.28  1249.14  1381.96  1483.32
                             1534.19  1779.71  1847.42  1998.57  2029.99
                             2139.59  2145.74  2349.96  2625.46  4416.64
                             4522.87  4570.08  4862.67  5039.44

 Zero-point correction=                           0.078376 (Hartree/Particle)
 Thermal correction to Energy=                    0.084374
 Thermal correction to Enthalpy=                  0.085319
 Thermal correction to Gibbs Free Energy=         0.048776
 Sum of electronic and zero-point Energies=           -284.307612
 Sum of electronic and thermal Energies=              -284.301614
 Sum of electronic and thermal Enthalpies=            -284.300670
 Sum of electronic and thermal Free Energies=         -284.337212

                     E (Thermal)             CV                S
                      KCal/Mol        Cal/Mol-Kelvin    Cal/Mol-Kelvin
 Total                   52.946             19.006             76.910
 Electronic               0.000              0.000              0.000
 Translational            0.889              2.981             38.862
 Rotational               0.889              2.981             25.290
 Vibrational             51.168             13.045             12.758
 Vibration     1          0.595              1.977              4.786
 Vibration     2          0.625              1.880              2.443
 Vibration     3          0.644              1.821              2.019
 Vibration     4          0.706              1.635              1.310
 Vibration     5          0.798              1.387              0.833
 Vibration     6          0.963              1.022              0.442

 Optimization completed.
    -- Stationary point found.
 Normal termination of Gaussian 09 at Thu Sep  8 15:25:08 2022.
