 Gaussian 09, Revision E.01,
 Gaussian 09:  ES64L-G09RevE.01 30-Nov-2015

 ----------------------------
 #P OPT Freq B3LYP/6-31G(d,p)
 ----------------------------

 --------
 Frag_846
 --------
 Symbolic Z-matrix:
 Charge =  0 Multiplicity = 1

 SCF Done:  E(RB3LYP) =  -248.491159203     A.U. after   13 cycles
 SCF Done:  E(RB3LYP) =  -248.491221448     A.U. after    9 cycles
 SCF Done:  E(RB3LYP) =  -248.491229296     A.U. after    9 cycles
 SCF Done:  E(RB3LYP) =  -248.491235441     A.U. after    9 cycles
 SCF Done:  E(RB3LYP) =  -248.491238771     A.U. after    9 cycles
 SCF Done:  E(RB3LYP) =  -248.491240620     A.U. after    8 cycles
 SCF Done:  E(RB3LYP) =  -248.491240944     A.U. after    7 cycles
 Optimization completed.
    -- Stationary point found.
 Normal termination of Gaussian 09 at Thu Sep  8 15:20:18 2022.

 ----------------------------------------------------------------------
 #P Geom=AllCheck Guess=TCheck SCRF=Check GenChk RB3LYP/6-31G(d,p) Freq
 ----------------------------------------------------------------------

 Structure from the checkpoint file:  "B3LYP6-31Gdp.Frag_846.chk"
 --------
 Frag_846
 --------
 Charge =  0 Multiplicity = 1

                         Standard orientation:
 ---------------------------------------------------------------------
 Center     Atomic      Atomic             Coordinates (Angstroms)
 Number     Number       Type             X           Y           Z
 ---------------------------------------------------------------------
      1          6           0        1.769120   -0.665352   -0.002487
      2          6           0        0.422660   -0.002347    0.008493
      3          7           0        0.426839    1.399529   -0.087244
      4          6           0       -0.718825   -0.707265    0.013149
      5          8           0       -1.941284   -0.048185   -0.069751
      6          1           0        2.379708   -0.334352    0.849063
      7          1           0        1.676908   -1.752497    0.056256
      8          1           0        2.324466   -0.412181   -0.913440
      9          1           0        1.122399    1.841133    0.504344
     10          1           0       -0.494236    1.788492    0.082863
     11          1           0       -0.732929   -1.792643   -0.030982
     12          1           0       -2.571655   -0.499389    0.505679
 ---------------------------------------------------------------------

 SCF Done:  E(RB3LYP) =  -248.491240944     A.U. after    1 cycles

 The electronic state is 1-A.
 Alpha  occ. eigenvalues --  -19.15535 -14.31947 -10.20440 -10.20242 -10.18010
 Alpha  occ. eigenvalues --   -1.02638  -0.89108  -0.74504  -0.67360  -0.54639
 Alpha  occ. eigenvalues --   -0.51890  -0.49395  -0.44085  -0.41600  -0.38787
 Alpha  occ. eigenvalues --   -0.38092  -0.36469  -0.31537  -0.28967  -0.17864
 Alpha virt. eigenvalues --    0.06209   0.07328   0.10066   0.13851   0.14993
 Alpha virt. eigenvalues --    0.16083   0.18884   0.20311   0.23241   0.25509
 Alpha virt. eigenvalues --    0.37394   0.43968   0.53095   0.53304   0.55669

 Mulliken charges:
               1
     1  C   -0.365092
     2  C    0.258116
     3  N   -0.630978
     4  C    0.045979
     5  O   -0.541406
     6  H    0.101841
     7  H    0.111333
     8  H    0.126522
     9  H    0.241749
    10  H    0.263137
    11  H    0.074126
    12  H    0.314673
 Sum of Mulliken charges =  -0.00000

 Dipole moment (field-independent basis, Debye):
    X=             -0.0093    Y=             -0.5928    Z=              2.0547  Tot=              2.1386
 Quadrupole moment (field-independent basis, Debye-Ang):
   XX=            -26.3460   YY=            -27.5962   ZZ=            -32.2161
   XY=              2.1391   XZ=             -1.8615   YZ=              1.8976

  Exact polarizability:  58.345   6.363  46.715  -0.706   0.190  26.307
 Approx polarizability:  83.173  15.122  66.649  -0.750  -1.173  37.186

                      1                      2                      3
                      A                      A                      A
 Frequencies --    195.8293               237.5691               264.5105
 Red. masses --      1.1709                 1.2024                 3.0140
 Frc consts  --      0.0265                 0.0400                 0.1242
 IR Inten    --      0.9678               120.8394                58.2517

                      4                      5                      6
                      A                      A                      A
 Frequencies --    283.6046               359.9951               391.1669
 Red. masses --      2.3274                 1.1946                 2.1503
 Frc consts  --      0.1103                 0.0912                 0.1939
 IR Inten    --      4.1751                47.5922                 8.1646

                      7                      8                      9
                      A                      A                      A
 Frequencies --    531.2753               602.9175               711.8722
 Red. masses --      2.5067                 4.2140                 1.4178
 Frc consts  --      0.4169                 0.9025                 0.4233
 IR Inten    --     43.7183                21.2127               195.7907

                     10                     11                     12
                      A                      A                      A
 Frequencies --    791.7470               891.5274              1013.5603
 Red. masses --      1.3150                 3.0960                 1.4122
 Frc consts  --      0.4857                 1.4498                 0.8547
 IR Inten    --     67.8584                 6.7893                 2.1264

                     13                     14                     15
                      A                      A                      A
 Frequencies --   1069.0808              1105.9193              1190.5499
 Red. masses --      1.4600                 2.3903                 1.9070
 Frc consts  --      0.9832                 1.7225                 1.5926
 IR Inten    --     11.7029                29.3840                87.3166

                     16                     17                     18
                      A                      A                      A
 Frequencies --   1218.0889              1343.3631              1403.4284
 Red. masses --      1.2427                 1.7203                 1.5809
 Frc consts  --      1.0863                 1.8292                 1.8346
 IR Inten    --    105.6315                 2.3999                28.0084

                     19                     20                     21
                      A                      A                      A
 Frequencies --   1435.8016              1486.8830              1510.6167
 Red. masses --      1.4811                 1.0457                 1.0589
 Frc consts  --      1.7989                 1.3622                 1.4237
 IR Inten    --     11.4862                 5.9822                 5.5800

                     22                     23                     24
                      A                      A                      A
 Frequencies --   1647.9153              1780.8649              3021.5239
 Red. masses --      1.1381                 5.8726                 1.0430
 Frc consts  --      1.8209                10.9733                 5.6103
 IR Inten    --     50.0241                25.4124                45.5942

                     25                     26                     27
                      A                      A                      A
 Frequencies --   3074.8962              3132.9222              3183.4077
 Red. masses --      1.0957                 1.0990                 1.0922
 Frc consts  --      6.1041                 6.3553                 6.5211
 IR Inten    --     27.6352                18.4013                20.0516

                     28                     29                     30
                      A                      A                      A
 Frequencies --   3519.8299              3629.0500              3815.8286
 Red. masses --      1.0474                 1.0965                 1.0667
 Frc consts  --      7.6454                 8.5085                 9.1507
 IR Inten    --      3.7103                 6.2320                34.0651

 - Thermochemistry -
 -------------------
 Temperature   298.150 Kelvin.  Pressure   1.00000 Atm.
 Atom     1 has atomic number  6 and mass  12.00000

 Molecular mass:    73.05276 amu.
 Principal axes and moments of inertia in atomic units:
                           1         2         3
     Eigenvalues --   194.69540 476.80301 655.45305
           X            0.99991  -0.01205  -0.00557
           Y            0.01214   0.99978   0.01711
           Z            0.00536  -0.01718   0.99984
 This molecule is an asymmetric top.
 Rotational symmetry number  1.
 Rotational temperatures (Kelvin)      0.44487     0.18166     0.13214
 Rotational constants (GHZ):           9.26956     3.78509     2.75343
 Zero-point vibrational energy     268235.9 (Joules/Mol)
                                   64.10993 (Kcal/Mol)
 Warning -- explicit consideration of   8 degrees of freedom as
           vibrations may cause significant error
 Vibrational temperatures:    281.75   341.81   380.57   408.04   517.95
          (Kelvin)            562.80   764.39   867.46  1024.22  1139.15
                             1282.71  1458.29  1538.17  1591.17  1712.93
                             1752.56  1932.80  2019.22  2065.80  2139.29
                             2173.44  2370.98  2562.26  4347.29  4424.08
                             4507.57  4580.21  5064.24  5221.39  5490.12

 Zero-point correction=                           0.102166 (Hartree/Particle)
 Thermal correction to Energy=                    0.108408
 Thermal correction to Enthalpy=                  0.109352
 Thermal correction to Gibbs Free Energy=         0.073376
 Sum of electronic and zero-point Energies=           -248.389075
 Sum of electronic and thermal Energies=              -248.382833
 Sum of electronic and thermal Enthalpies=            -248.381889
 Sum of electronic and thermal Free Energies=         -248.417865

                     E (Thermal)             CV                S
                      KCal/Mol        Cal/Mol-Kelvin    Cal/Mol-Kelvin
 Total                   68.027             22.164             75.720
 Electronic               0.000              0.000              0.000
 Translational            0.889              2.981             38.782
 Rotational               0.889              2.981             25.612
 Vibrational             66.250             16.202             11.325
 Vibration     1          0.636              1.846              2.172
 Vibration     2          0.656              1.783              1.821
 Vibration     3          0.671              1.738              1.632
 Vibration     4          0.682              1.704              1.512
 Vibration     5          0.734              1.555              1.122
 Vibration     6          0.759              1.489              0.996
 Vibration     7          0.886              1.181              0.584
 Vibration     8          0.961              1.026              0.445

 Normal termination of Gaussian 09 at Thu Sep  8 15:20:26 2022.
