 Gaussian 09, Revision D.01,
 Gaussian 09:  ES64L-G09RevD.01 24-Apr-2013

 -------------------------
 #P OPT Freq B3LYP/6-31G**
 -------------------------

 ---------------------
 B3LYP6-31Gxx.Frag_108
 ---------------------
 Symbolic Z-matrix:
 Charge =  0 Multiplicity = 1

 SCF Done:  E(RB3LYP) =  -193.119457566     A.U. after   13 cycles
 SCF Done:  E(RB3LYP) =  -193.121516761     A.U. after   13 cycles
 SCF Done:  E(RB3LYP) =  -193.122818790     A.U. after   12 cycles
 SCF Done:  E(RB3LYP) =  -193.122848859     A.U. after    9 cycles
 SCF Done:  E(RB3LYP) =  -193.122851033     A.U. after    7 cycles
 Optimization completed.
    -- Stationary point found.
 Normal termination of Gaussian 09 at Mon Jul 26 01:30:35 2021.

 ----------------------------------------------------------------------
 #P Geom=AllCheck Guess=TCheck SCRF=Check GenChk RB3LYP/6-31G(d,p) Freq
 ----------------------------------------------------------------------

 Structure from the checkpoint file:  "/home/liujian/Isodesmic/Sample60/Ring26/Running/Gau-36673.chk"
 ---------------------
 B3LYP6-31Gxx.Frag_108
 ---------------------
 Charge =  0 Multiplicity = 1

                         Standard orientation:
 ---------------------------------------------------------------------
 Center     Atomic      Atomic             Coordinates (Angstroms)
 Number     Number       Type             X           Y           Z
 ---------------------------------------------------------------------
      1          6           0        1.451288    0.568201   -0.000001
      2          6           0        0.742572   -0.564639   -0.000001
      3          8           0       -0.606947   -0.715178    0.000000
      4          6           0       -1.380555    0.475206    0.000000
      5          1           0        2.532542    0.509252    0.000005
      6          1           0        1.005564    1.555048   -0.000001
      7          1           0        1.218545   -1.541323    0.000004
      8          1           0       -1.177365    1.080753   -0.892554
      9          1           0       -1.177352    1.080760    0.892547
     10          1           0       -2.426183    0.164330    0.000010
 ---------------------------------------------------------------------

 SCF Done:  E(RB3LYP) =  -193.122851033     A.U. after    1 cycles

 The electronic state is 1-A.
 Alpha  occ. eigenvalues --  -19.17718 -10.23694 -10.23678 -10.16645  -1.06035
 Alpha  occ. eigenvalues --   -0.75577  -0.70134  -0.56786  -0.50649  -0.47128
 Alpha  occ. eigenvalues --   -0.46181  -0.40974  -0.37557  -0.34052  -0.33336
 Alpha  occ. eigenvalues --   -0.22544
 Alpha virt. eigenvalues --    0.04337   0.10529   0.12020   0.13381   0.16242
 Alpha virt. eigenvalues --    0.16832   0.16981   0.20976   0.29656   0.35374
 Alpha virt. eigenvalues --    0.48552   0.53304   0.54090   0.56926   0.57805

 Mulliken charges:
               1
     1  C   -0.301915
     2  C    0.193623
     3  O   -0.450508
     4  C   -0.079417
     5  H    0.097851
     6  H    0.093533
     7  H    0.100152
     8  H    0.112324
     9  H    0.112324
    10  H    0.122033
 Sum of Mulliken charges =   0.00000

 Dipole moment (field-independent basis, Debye):
    X=             -0.4108    Y=              0.8640    Z=              0.0000  Tot=              0.9567
 Quadrupole moment (field-independent basis, Debye-Ang):
   XX=            -22.4751   YY=            -24.2166   ZZ=            -26.4658
   XY=             -2.2989   XZ=              0.0000   YZ=              0.0000

  Exact polarizability:  45.635   2.966  37.321   0.000   0.000  21.516
 Approx polarizability:  59.590  11.129  58.423   0.000   0.000  29.032

                      1                      2                      3
                      A                      A                      A
 Frequencies --    240.6138               259.1561               323.0083
 Red. masses --      1.5094                 1.2161                 2.6613
 Frc consts  --      0.0515                 0.0481                 0.1636
 IR Inten    --      5.9867                 1.8096                 3.5644

                      4                      5                      6
                      A                      A                      A
 Frequencies --    596.6895               720.8387               826.4299
 Red. masses --      2.1510                 1.5340                 1.3568
 Frc consts  --      0.4512                 0.4696                 0.5460
 IR Inten    --      2.4709                 0.1023                59.7232

                      7                      8                      9
                      A                      A                      A
 Frequencies --    917.6117               998.4023              1038.3430
 Red. masses --      3.0054                 1.1371                 2.2182
 Frc consts  --      1.4910                 0.6678                 1.4090
 IR Inten    --     30.3711                12.9021                25.5075

                     10                     11                     12
                      A                      A                      A
 Frequencies --   1182.5767              1223.6095              1255.8987
 Red. masses --      1.2834                 1.4926                 3.6595
 Frc consts  --      1.0574                 1.3167                 3.4008
 IR Inten    --      1.3316                 2.4051               146.1070

                     13                     14                     15
                      A                      A                      A
 Frequencies --   1363.5432              1439.5000              1495.3045
 Red. masses --      1.2405                 1.1721                 1.1779
 Frc consts  --      1.3589                 1.4310                 1.5518
 IR Inten    --     32.8870                 7.7669                 2.3358

                     16                     17                     18
                      A                      A                      A
 Frequencies --   1500.8790              1521.5138              1712.7500
 Red. masses --      1.0459                 1.0478                 4.2936
 Frc consts  --      1.3881                 1.4291                 7.4210
 IR Inten    --      5.9696                13.5923               134.4297

                     19                     20                     21
                      A                      A                      A
 Frequencies --   3018.1028              3078.9555              3151.2228
 Red. masses --      1.0342                 1.1057                 1.1008
 Frc consts  --      5.5504                 6.1761                 6.4404
 IR Inten    --     35.6697                43.6949                21.9133

                     22                     23                     24
                      A                      A                      A
 Frequencies --   3188.2840              3202.6198              3277.5174
 Red. masses --      1.0609                 1.0924                 1.1161
 Frc consts  --      6.3541                 6.6017                 7.0639
 IR Inten    --      7.0890                 7.6887                10.9016

 - Thermochemistry -
 -------------------
 Temperature   298.150 Kelvin.  Pressure   1.00000 Atm.
 Atom     1 has atomic number  6 and mass  12.00000

 Molecular mass:    58.04186 amu.
 Principal axes and moments of inertia in atomic units:
                           1         2         3
     Eigenvalues --    98.06555 285.82644 372.42344
           X            0.99931  -0.03715   0.00000
           Y            0.03715   0.99931   0.00000
           Z            0.00000   0.00000   1.00000
 This molecule is an asymmetric top.
 Rotational symmetry number  1.
 Rotational temperatures (Kelvin)      0.88322     0.30303     0.23257
 Rotational constants (GHZ):          18.40342     6.31412     4.84594
 Zero-point vibrational energy     224499.4 (Joules/Mol)
                                   53.65665 (Kcal/Mol)
 Warning -- explicit consideration of   4 degrees of freedom as
           vibrations may cause significant error
 Vibrational temperatures:    346.19   372.87   464.74   858.50  1037.12
          (Kelvin)           1189.05  1320.24  1436.48  1493.94  1701.46
                             1760.50  1806.96  1961.83  2071.12  2151.41
                             2159.43  2189.12  2464.26  4342.37  4429.92
                             4533.90  4587.22  4607.85  4715.61

 Zero-point correction=                           0.085507 (Hartree/Particle)
 Thermal correction to Energy=                    0.090240
 Thermal correction to Enthalpy=                  0.091185
 Thermal correction to Gibbs Free Energy=         0.058811
 Sum of electronic and zero-point Energies=           -193.037344
 Sum of electronic and thermal Energies=              -193.032611
 Sum of electronic and thermal Enthalpies=            -193.031666
 Sum of electronic and thermal Free Energies=         -193.064041

                     E (Thermal)             CV                S
                      KCal/Mol        Cal/Mol-Kelvin    Cal/Mol-Kelvin
 Total                   56.627             15.792             68.137
 Electronic               0.000              0.000              0.000
 Translational            0.889              2.981             38.096
 Rotational               0.889              2.981             23.861
 Vibrational             54.849              9.830              6.180
 Vibration     1          0.658              1.778              1.798
 Vibration     2          0.668              1.747              1.667
 Vibration     3          0.708              1.629              1.295
 Vibration     4          0.955              1.039              0.455

 Optimization completed.
    -- Stationary point found.
 Normal termination of Gaussian 09 at Mon Jul 26 01:30:54 2021.
