 Gaussian 09, Revision D.01,
 Gaussian 09:  ES64L-G09RevD.01 24-Apr-2013

 -------------------------
 #P OPT Freq B3LYP/6-31G**
 -------------------------

 -------
 Frag_67
 -------
 Symbolic Z-matrix:
 Charge =  0 Multiplicity = 1

 SCF Done:  E(RB3LYP) =  -229.081690763     A.U. after   14 cycles
 Optimization completed.
    -- Stationary point found.
 Normal termination of Gaussian 09 at Fri Jul 23 03:01:32 2021.

 ----------------------------------------------------------------------
 #P Geom=AllCheck Guess=TCheck SCRF=Check GenChk RB3LYP/6-31G(d,p) Freq
 ----------------------------------------------------------------------

 Structure from the checkpoint file:  "/vol2/users/liuj201281/HOFBenchmark/IsodesmicSplit/Sample60/Ring26/Running/Gau-502372.chk"
 -------
 Frag_67
 -------
 Charge =  0 Multiplicity = 1

                         Standard orientation:
 ---------------------------------------------------------------------
 Center     Atomic      Atomic             Coordinates (Angstroms)
 Number     Number       Type             X           Y           Z
 ---------------------------------------------------------------------
      1          6           0       -1.374898   -0.041862   -0.000003
      2          6           0        0.133020    0.138087   -0.000003
      3          8           0        0.696627    1.201330   -0.000103
      4          8           0        0.857404   -1.017486    0.000097
      5          1           0       -1.852500    0.936786   -0.000203
      6          1           0       -1.697354   -0.600730   -0.885603
      7          1           0       -1.697454   -0.600530    0.885697
      8          1           0        0.266327   -1.783627    0.000197
 ---------------------------------------------------------------------

 SCF Done:  E(RB3LYP) =  -229.081690763     A.U. after    1 cycles

 The electronic state is 1-A.
 Alpha  occ. eigenvalues --  -19.19615 -19.13427 -10.32299 -10.21148  -1.09893
 Alpha  occ. eigenvalues --   -1.01826  -0.75780  -0.61587  -0.51637  -0.47087
 Alpha  occ. eigenvalues --   -0.46295  -0.41904  -0.39803  -0.37647  -0.31610
 Alpha  occ. eigenvalues --   -0.27214
 Alpha virt. eigenvalues --    0.00956   0.04940   0.11645   0.14935   0.15637
 Alpha virt. eigenvalues --    0.19435   0.30777   0.33261   0.51368   0.52853
 Alpha virt. eigenvalues --    0.56870   0.59043   0.61550   0.67029   0.72521

 Mulliken charges:
               1
     1  C   -0.423882
     2  C    0.568767
     3  O   -0.425559
     4  O   -0.468596
     5  H    0.157617
     6  H    0.136701
     7  H    0.136704
     8  H    0.318249
 Sum of Mulliken charges =   0.00000

 Dipole moment (field-independent basis, Debye):
    X=             -3.1498    Y=             -2.9098    Z=              0.0003  Tot=              4.2882
 Quadrupole moment (field-independent basis, Debye-Ang):
   XX=            -24.8308   YY=            -22.5280   ZZ=            -22.7024
   XY=             -0.4558   XZ=              0.0001   YZ=             -0.0003

  Exact polarizability:  27.690   2.147  33.048   0.000  -0.002  19.147
 Approx polarizability:  36.046   5.748  53.066  -0.001  -0.003  26.181

                      1                      2                      3
                      A                      A                      A
 Frequencies --    107.3258               427.9907               461.3167
 Red. masses --      1.0735                 2.6597                 1.2375
 Frc consts  --      0.0073                 0.2870                 0.1552
 IR Inten    --      0.1588                 3.7775               104.9627

                      4                      5                      6
                      A                      A                      A
 Frequencies --    595.2183               595.4506               861.4433
 Red. masses --      5.6507                 2.0967                 5.7461
 Frc consts  --      1.1795                 0.4380                 2.5123
 IR Inten    --      6.7150                 2.6912                21.8368

                      7                      8                      9
                      A                      A                      A
 Frequencies --    992.3879              1060.8380              1215.3095
 Red. masses --      1.5067                 1.7708                 1.6152
 Frc consts  --      0.8742                 1.1741                 1.4055
 IR Inten    --      6.8951                 5.9405                 2.3770

                     10                     11                     12
                      A                      A                      A
 Frequencies --   1310.4677              1405.8486              1486.1656
 Red. masses --      2.2444                 1.3699                 1.0498
 Frc consts  --      2.2709                 1.5952                 1.3661
 IR Inten    --    385.9294                57.4381                 4.0434

                     13                     14                     15
                      A                      A                      A
 Frequencies --   1500.0973              1889.4372              3049.5630
 Red. masses --      1.0454                 9.9321                 1.0393
 Frc consts  --      1.3860                20.8909                 5.6945
 IR Inten    --      8.7731               248.2168                 4.3348

                     16                     17                     18
                      A                      A                      A
 Frequencies --   3112.8397              3181.7944              3802.1323
 Red. masses --      1.1010                 1.1003                 1.0661
 Frc consts  --      6.2859                 6.5633                 9.0801
 IR Inten    --      9.4342                 3.9009                30.7878

 - Thermochemistry -
 -------------------
 Temperature   298.150 Kelvin.  Pressure   1.00000 Atm.
 Atom     1 has atomic number  6 and mass  12.00000

 Molecular mass:    60.02113 amu.
 Principal axes and moments of inertia in atomic units:
                           1         2         3
     Eigenvalues --   165.06495 189.01687 342.78991
           X            1.00000  -0.00049  -0.00001
           Y            0.00049   1.00000   0.00009
           Z            0.00001  -0.00009   1.00000
 This molecule is an asymmetric top.
 Rotational symmetry number  1.
 Rotational temperatures (Kelvin)      0.52473     0.45823     0.25267
 Rotational constants (GHZ):          10.93352     9.54804     5.26486
 Zero-point vibrational energy     161828.6 (Joules/Mol)
                                   38.67796 (Kcal/Mol)
 Warning -- explicit consideration of   5 degrees of freedom as
           vibrations may cause significant error
 Vibrational temperatures:    154.42   615.78   663.73   856.39   856.72
          (Kelvin)           1239.42  1427.82  1526.31  1748.56  1885.47
                             2022.70  2138.26  2158.30  2718.48  4387.64
                             4478.68  4577.89  5470.41

 Zero-point correction=                           0.061637 (Hartree/Particle)
 Thermal correction to Energy=                    0.066227
 Thermal correction to Enthalpy=                  0.067171
 Thermal correction to Gibbs Free Energy=         0.034681
 Sum of electronic and zero-point Energies=           -229.020054
 Sum of electronic and thermal Energies=              -229.015463
 Sum of electronic and thermal Enthalpies=            -229.014519
 Sum of electronic and thermal Free Energies=         -229.047010

                     E (Thermal)             CV                S
                      KCal/Mol        Cal/Mol-Kelvin    Cal/Mol-Kelvin
 Total                   41.558             14.603             68.382
 Electronic               0.000              0.000              0.000
 Translational            0.889              2.981             38.196
 Rotational               0.889              2.981             23.885
 Vibrational             39.781              8.641              6.301
 Vibration     1          0.606              1.943              3.317
 Vibration     2          0.789              1.409              0.865
 Vibration     3          0.819              1.336              0.762
 Vibration     4          0.953              1.042              0.458
 Vibration     5          0.953              1.041              0.458

 Optimization completed.
    -- Stationary point found.
 Normal termination of Gaussian 09 at Fri Jul 23 03:01:44 2021.
