 Gaussian 09, Revision E.01,
 Gaussian 09:  ES64L-G09RevE.01 30-Nov-2015

 -------------------------
 #P OPT Freq B3LYP/6-31G**
 -------------------------

 --------
 Frag_230
 --------
 Symbolic Z-matrix:
 Charge =  0 Multiplicity = 1

 SCF Done:  E(RB3LYP) =  -228.617389477     A.U. after   12 cycles
 SCF Done:  E(RB3LYP) =  -228.622821580     A.U. after   11 cycles
 SCF Done:  E(RB3LYP) =  -228.623464930     A.U. after   11 cycles
 SCF Done:  E(RB3LYP) =  -228.623760467     A.U. after   10 cycles
 SCF Done:  E(RB3LYP) =  -228.623785238     A.U. after    8 cycles
 SCF Done:  E(RB3LYP) =  -228.623788802     A.U. after    7 cycles
 SCF Done:  E(RB3LYP) =  -228.623789279     A.U. after    7 cycles
 Optimization completed.
    -- Stationary point found.
 Normal termination of Gaussian 09 at Sat Aug 21 01:38:27 2021.

 ----------------------------------------------------------------------
 #P Geom=AllCheck Guess=TCheck SCRF=Check GenChk RB3LYP/6-31G(d,p) Freq
 ----------------------------------------------------------------------

 Structure from the checkpoint file:  "/public/home/users/caep010/.cache/gau_scr/Gau-210488.chk"
 --------
 Frag_230
 --------
 Charge =  0 Multiplicity = 1

                         Standard orientation:
 ---------------------------------------------------------------------
 Center     Atomic      Atomic             Coordinates (Angstroms)
 Number     Number       Type             X           Y           Z
 ---------------------------------------------------------------------
      1          6           0       -0.979896    0.786940    0.062261
      2          6           0       -0.979925   -0.786913    0.062233
      3          7           0        0.425720   -1.193726   -0.137293
      4          6           0        1.182613   -0.000009    0.268607
      5          7           0        0.425748    1.193711   -0.137329
      6          1           0       -1.616973    1.217940   -0.715282
      7          1           0       -1.337686    1.164381    1.026719
      8          1           0       -1.616967   -1.217855   -0.715371
      9          1           0       -1.337796   -1.164380    1.026650
     10          1           0        0.578277   -1.332481   -1.135109
     11          1           0        2.191424   -0.000029   -0.151860
     12          1           0        1.264415    0.000009    1.363164
     13          1           0        0.578278    1.332410   -1.135158
 ---------------------------------------------------------------------

 SCF Done:  E(RB3LYP) =  -228.623789279     A.U. after    1 cycles

 The electronic state is 1-A.
 Alpha  occ. eigenvalues --  -14.31578 -14.31577 -10.22552 -10.20475 -10.20459
 Alpha  occ. eigenvalues --   -0.94583  -0.84002  -0.72867  -0.61887  -0.59471
 Alpha  occ. eigenvalues --   -0.51876  -0.45933  -0.44809  -0.42989  -0.38709
 Alpha  occ. eigenvalues --   -0.36389  -0.34922  -0.34088  -0.24655  -0.22136
 Alpha virt. eigenvalues --    0.06072   0.11637   0.12738   0.14302   0.15380
 Alpha virt. eigenvalues --    0.16512   0.17276   0.18398   0.20002   0.23318
 Alpha virt. eigenvalues --    0.25451   0.28269   0.32285   0.51885   0.53727

 Mulliken charges:
               1
     1  C   -0.080670
     2  C   -0.080665
     3  N   -0.478503
     4  C    0.026144
     5  N   -0.478498
     6  H    0.096924
     7  H    0.111974
     8  H    0.096923
     9  H    0.111972
    10  H    0.226145
    11  H    0.102283
    12  H    0.119826
    13  H    0.226144
 Sum of Mulliken charges =   0.00000

 Dipole moment (field-independent basis, Debye):
    X=             -0.6110    Y=             -0.0000    Z=             -1.6504  Tot=              1.7599
 Quadrupole moment (field-independent basis, Debye-Ang):
   XX=            -29.6811   YY=            -37.5411   ZZ=            -28.3627
   XY=             -0.0002   XZ=             -1.1341   YZ=              0.0002

  Exact polarizability:  47.708  -0.000  40.505  -0.990   0.000  41.888
 Approx polarizability:  62.484  -0.000  55.669  -1.768   0.000  60.476

                      1                      2                      3
                      A                      A                      A
 Frequencies --    105.1318               324.0603               675.0783
 Red. masses --      1.7045                 1.7482                 2.0712
 Frc consts  --      0.0111                 0.1082                 0.5561
 IR Inten    --      0.4151                13.3218                 5.9993

                      4                      5                      6
                      A                      A                      A
 Frequencies --    716.9569               803.9658               819.3536
 Red. masses --      5.1272                 1.1953                 1.4636
 Frc consts  --      1.5528                 0.4552                 0.5789
 IR Inten    --      5.7821                 6.5420               235.7759

                      7                      8                      9
                      A                      A                      A
 Frequencies --    867.6203               901.5071               924.5495
 Red. masses --      2.4925                 3.1525                 1.9534
 Frc consts  --      1.1055                 1.5095                 0.9838
 IR Inten    --     22.5068                 5.8557                 6.6700

                     10                     11                     12
                      A                      A                      A
 Frequencies --    965.6080              1061.8538              1071.9099
 Red. masses --      2.6148                 2.8348                 2.5936
 Frc consts  --      1.4365                 1.8832                 1.7558
 IR Inten    --      3.5270                60.1207                24.2810

                     13                     14                     15
                      A                      A                      A
 Frequencies --   1085.0137              1086.8541              1225.2502
 Red. masses --      1.8599                 1.5391                 1.1849
 Frc consts  --      1.2900                 1.0712                 1.0481
 IR Inten    --      0.2503                 6.1814                 0.7342

                     16                     17                     18
                      A                      A                      A
 Frequencies --   1295.0592              1312.0789              1327.8290
 Red. masses --      1.4713                 1.1840                 1.2539
 Frc consts  --      1.4538                 1.2009                 1.3025
 IR Inten    --      0.6079                 0.3837                 0.4738

                     19                     20                     21
                      A                      A                      A
 Frequencies --   1331.9836              1382.0225              1457.6753
 Red. masses --      1.2762                 1.3250                 1.1005
 Frc consts  --      1.3341                 1.4911                 1.3777
 IR Inten    --      0.2303                 5.8993                 3.0069

                     22                     23                     24
                      A                      A                      A
 Frequencies --   1476.7307              1513.6664              1515.6496
 Red. masses --      1.1761                 1.0854                 1.0870
 Frc consts  --      1.5111                 1.4653                 1.4713
 IR Inten    --      6.9664                 0.3549                 0.5546

                     25                     26                     27
                      A                      A                      A
 Frequencies --   1530.9076              3042.2226              3048.1786
 Red. masses --      1.0941                 1.0665                 1.0652
 Frc consts  --      1.5108                 5.8155                 5.8310
 IR Inten    --      0.0923                55.6917                27.0949

                     28                     29                     30
                      A                      A                      A
 Frequencies --   3060.2613              3095.3824              3115.4217
 Red. masses --      1.0630                 1.1030                 1.1059
 Frc consts  --      5.8653                 6.2268                 6.3240
 IR Inten    --     67.5637                 4.1022                50.8625

                     31                     32                     33
                      A                      A                      A
 Frequencies --   3121.7641              3488.5114              3488.7843
 Red. masses --      1.1012                 1.0744                 1.0752
 Frc consts  --      6.3231                 7.7034                 7.7108
 IR Inten    --     27.1294                 3.1691                 0.5403

 - Thermochemistry -
 -------------------
 Temperature   298.150 Kelvin.  Pressure   1.00000 Atm.
 Atom     1 has atomic number  6 and mass  12.00000

 Molecular mass:    72.06875 amu.
 Principal axes and moments of inertia in atomic units:
                           1         2         3
     Eigenvalues --   250.03607 261.40980 446.22956
           X            0.00003   0.99998  -0.00666
           Y            1.00000  -0.00003   0.00000
           Z           -0.00000   0.00666   0.99998
 This molecule is an asymmetric top.
 Rotational symmetry number  1.
 Rotational temperatures (Kelvin)      0.34641     0.33133     0.19410
 Rotational constants (GHZ):           7.21792     6.90388     4.04442
 Zero-point vibrational energy     312457.7 (Joules/Mol)
                                   74.67917 (Kcal/Mol)
 Warning -- explicit consideration of   2 degrees of freedom as
           vibrations may cause significant error
 Vibrational temperatures:    151.26   466.25   971.29  1031.54  1156.73
          (Kelvin)           1178.87  1248.31  1297.07  1330.22  1389.29
                             1527.77  1542.24  1561.09  1563.74  1762.86
                             1863.30  1887.79  1910.45  1916.42  1988.42
                             2097.27  2124.68  2177.83  2180.68  2202.63
                             4377.07  4385.64  4403.03  4453.56  4482.39
                             4491.52  5019.18  5019.58

 Zero-point correction=                           0.119009 (Hartree/Particle)
 Thermal correction to Energy=                    0.123742
 Thermal correction to Enthalpy=                  0.124686
 Thermal correction to Gibbs Free Energy=         0.091278
 Sum of electronic and zero-point Energies=           -228.504780
 Sum of electronic and thermal Energies=              -228.500047
 Sum of electronic and thermal Enthalpies=            -228.499103
 Sum of electronic and thermal Free Energies=         -228.532512

                     E (Thermal)             CV                S
                      KCal/Mol        Cal/Mol-Kelvin    Cal/Mol-Kelvin
 Total                   77.649             16.844             70.314
 Electronic               0.000              0.000              0.000
 Translational            0.889              2.981             38.742
 Rotational               0.889              2.981             24.881
 Vibrational             75.872             10.883              6.691
 Vibration     1          0.605              1.945              3.357
 Vibration     2          0.709              1.627              1.290

 Optimization completed.
    -- Stationary point found.
 Normal termination of Gaussian 09 at Sat Aug 21 01:38:38 2021.
