 Gaussian 09, Revision E.01,
 Gaussian 09:  ES64L-G09RevE.01 30-Nov-2015

 ----------------------------
 #P OPT Freq B3LYP/6-31G(d,p)
 ----------------------------

 --------
 Frag_455
 --------
 Symbolic Z-matrix:
 Charge =  0 Multiplicity = 1

 SCF Done:  E(RB3LYP) =  -344.387455623     A.U. after   13 cycles
 SCF Done:  E(RB3LYP) =  -344.387429595     A.U. after   10 cycles
 SCF Done:  E(RB3LYP) =  -344.387501647     A.U. after   10 cycles
 SCF Done:  E(RB3LYP) =  -344.387525318     A.U. after    8 cycles
 SCF Done:  E(RB3LYP) =  -344.387529922     A.U. after    8 cycles
 SCF Done:  E(RB3LYP) =  -344.387532718     A.U. after    8 cycles
 SCF Done:  E(RB3LYP) =  -344.387533413     A.U. after    7 cycles
 SCF Done:  E(RB3LYP) =  -344.387533918     A.U. after    7 cycles
 SCF Done:  E(RB3LYP) =  -344.387534051     A.U. after    7 cycles
 SCF Done:  E(RB3LYP) =  -344.387534146     A.U. after    7 cycles
 Optimization completed.
    -- Stationary point found.
 Normal termination of Gaussian 09 at Thu Sep  8 15:11:59 2022.

 ----------------------------------------------------------------------
 #P Geom=AllCheck Guess=TCheck SCRF=Check GenChk RB3LYP/6-31G(d,p) Freq
 ----------------------------------------------------------------------

 Structure from the checkpoint file:  "B3LYP6-31Gdp.Frag_455.chk"
 --------
 Frag_455
 --------
 Charge =  0 Multiplicity = 1

                         Standard orientation:
 ---------------------------------------------------------------------
 Center     Atomic      Atomic             Coordinates (Angstroms)
 Number     Number       Type             X           Y           Z
 ---------------------------------------------------------------------
      1          6           0        1.624929    1.230345   -0.066376
      2          6           0        0.823177   -0.010539   -0.495967
      3          7           0        1.436578   -1.275603   -0.071531
      4          6           0       -0.655491   -0.029799    0.016781
      5          6           0       -1.459299    1.195540   -0.427550
      6          7           0       -1.359454   -1.227925   -0.407128
      7          8           0       -0.629418   -0.109428    1.453455
      8          1           0        1.687903    1.300107    1.026713
      9          1           0        2.651364    1.166730   -0.443784
     10          1           0        1.196238    2.163289   -0.446900
     11          1           0        0.775640   -0.022840   -1.594117
     12          1           0        1.425774   -1.306831    0.946606
     13          1           0        2.407613   -1.318548   -0.368638
     14          1           0       -2.494785    1.070214   -0.103066
     15          1           0       -1.442178    1.312688   -1.516916
     16          1           0       -1.066977    2.118001    0.010722
     17          1           0       -1.615003   -1.135017   -1.386890
     18          1           0       -0.703630   -2.006448   -0.348773
     19          1           0       -0.326375    0.745487    1.786682
 ---------------------------------------------------------------------

 SCF Done:  E(RB3LYP) =  -344.387534146     A.U. after    1 cycles

 The electronic state is 1-A.
 Alpha  occ. eigenvalues --  -19.13732 -14.31094 -14.29617 -10.25907 -10.21158
 Alpha  occ. eigenvalues --  -10.18238 -10.17685  -1.01795  -0.88838  -0.85610
 Alpha  occ. eigenvalues --   -0.74577  -0.71063  -0.63404  -0.57380  -0.50564
 Alpha  occ. eigenvalues --   -0.49231  -0.45684  -0.44455  -0.42989  -0.41293
 Alpha  occ. eigenvalues --   -0.40365  -0.39322  -0.37330  -0.35960  -0.35540
 Alpha  occ. eigenvalues --   -0.32475  -0.26830  -0.23688  -0.22889
 Alpha virt. eigenvalues --    0.05660   0.10420   0.10656   0.12348   0.13182
 Alpha virt. eigenvalues --    0.15231   0.16327   0.16864   0.18044   0.18688
 Alpha virt. eigenvalues --    0.19367   0.20447   0.22364   0.24736   0.26194

 Mulliken charges:
               1
     1  C   -0.332827
     2  C    0.062915
     3  N   -0.606928
     4  C    0.364326
     5  C   -0.335307
     6  N   -0.573294
     7  O   -0.542212
     8  H    0.089013
     9  H    0.100000
    10  H    0.104145
    11  H    0.080555
    12  H    0.248159
    13  H    0.233735
    14  H    0.134872
    15  H    0.096478
    16  H    0.092423
    17  H    0.227338
    18  H    0.258135
    19  H    0.298474
 Sum of Mulliken charges =  -0.00000

 Dipole moment (field-independent basis, Debye):
    X=              2.2394    Y=              2.1668    Z=             -1.1261  Tot=              3.3133
 Quadrupole moment (field-independent basis, Debye-Ang):
   XX=            -44.5810   YY=            -45.4974   ZZ=            -42.7023
   XY=             -2.9507   XZ=              3.4599   YZ=              2.6289

  Exact polarizability:  64.297  -0.209  62.237   2.353   0.625  57.003
 Approx polarizability:  82.026   0.642  85.145   2.154   0.050  85.686

                      1                      2                      3
                      A                      A                      A
 Frequencies --    109.0988               206.1579               230.0706
 Red. masses --      2.9008                 1.0785                 1.4515
 Frc consts  --      0.0203                 0.0270                 0.0453
 IR Inten    --      2.2515                11.2034                15.0958

                      4                      5                      6
                      A                      A                      A
 Frequencies --    250.7628               276.9690               277.3202
 Red. masses --      1.2726                 2.3338                 1.2638
 Frc consts  --      0.0472                 0.1055                 0.0573
 IR Inten    --     15.3319                31.9535                18.4786

                      7                      8                      9
                      A                      A                      A
 Frequencies --    305.6019               343.6981               372.7155
 Red. masses --      1.2091                 1.2810                 2.5939
 Frc consts  --      0.0665                 0.0892                 0.2123
 IR Inten    --     27.1626                94.1927                17.3756

                     10                     11                     12
                      A                      A                      A
 Frequencies --    382.7833               417.5292               491.4737
 Red. masses --      2.9129                 2.4108                 2.5694
 Frc consts  --      0.2515                 0.2476                 0.3657
 IR Inten    --      2.9729                 4.2594                 7.8159

                     13                     14                     15
                      A                      A                      A
 Frequencies --    530.8827               604.6757               725.7080
 Red. masses --      3.3615                 2.9019                 2.9827
 Frc consts  --      0.5582                 0.6251                 0.9255
 IR Inten    --     14.8650                 9.5050                 6.6808

                     16                     17                     18
                      A                      A                      A
 Frequencies --    869.8387               873.8735               920.6216
 Red. masses --      2.3630                 1.7248                 1.6495
 Frc consts  --      1.0534                 0.7760                 0.8237
 IR Inten    --     82.0460                76.2392               146.8853

                     19                     20                     21
                      A                      A                      A
 Frequencies --    931.0979               989.8327              1013.3873
 Red. masses --      1.4526                 1.4329                 1.4041
 Frc consts  --      0.7420                 0.8272                 0.8496
 IR Inten    --     12.7426                70.7333                 5.5815

                     22                     23                     24
                      A                      A                      A
 Frequencies --   1032.6315              1081.9555              1115.8174
 Red. masses --      1.8222                 2.9696                 1.3569
 Frc consts  --      1.1448                 2.0482                 0.9954
 IR Inten    --     10.5735                33.4201                20.1126

                     25                     26                     27
                      A                      A                      A
 Frequencies --   1148.1927              1219.5352              1229.9408
 Red. masses --      1.6335                 2.4459                 1.7269
 Frc consts  --      1.2688                 2.1432                 1.5391
 IR Inten    --     57.4485                42.9105                64.1118

                     28                     29                     30
                      A                      A                      A
 Frequencies --   1314.1604              1372.9452              1381.7992
 Red. masses --      1.6341                 1.3947                 1.5178
 Frc consts  --      1.6627                 1.5490                 1.7075
 IR Inten    --     29.4734                 2.5328                23.8149

                     31                     32                     33
                      A                      A                      A
 Frequencies --   1407.3301              1417.2512              1425.4056
 Red. masses --      1.3939                 1.2748                 1.4852
 Frc consts  --      1.6265                 1.5086                 1.7779
 IR Inten    --      2.4450                 8.4515                31.1655

                     34                     35                     36
                      A                      A                      A
 Frequencies --   1502.4697              1508.6524              1513.4028
 Red. masses --      1.0480                 1.0684                 1.0554
 Frc consts  --      1.3938                 1.4328                 1.4242
 IR Inten    --      4.1053                 4.7048                 3.8281

                     37                     38                     39
                      A                      A                      A
 Frequencies --   1518.1547              1646.4659              1675.5115
 Red. masses --      1.0471                 1.0929                 1.0976
 Frc consts  --      1.4220                 1.7455                 1.8155
 IR Inten    --      1.8571                36.8734                29.9932

                     40                     41                     42
                      A                      A                      A
 Frequencies --   3022.8775              3031.0010              3048.5260
 Red. masses --      1.0835                 1.0372                 1.0382
 Frc consts  --      5.8335                 5.6144                 5.6847
 IR Inten    --     23.0895                24.9262                13.6212

                     43                     44                     45
                      A                      A                      A
 Frequencies --   3098.8435              3107.9324              3117.5913
 Red. masses --      1.1005                 1.1021                 1.1000
 Frc consts  --      6.2263                 6.2722                 6.2990
 IR Inten    --     37.1149                40.9005                27.9716

                     46                     47                     48
                      A                      A                      A
 Frequencies --   3145.0393              3481.3271              3487.9499
 Red. masses --      1.1021                 1.0509                 1.0489
 Frc consts  --      6.4231                 7.5043                 7.5185
 IR Inten    --     15.0833                 9.1591                 3.2781

                     49                     50                     51
                      A                      A                      A
 Frequencies --   3574.2805              3579.6956              3816.1836
 Red. masses --      1.0901                 1.0927                 1.0657
 Frc consts  --      8.2049                 8.2499                 9.1441
 IR Inten    --      5.4062                 1.1097                 7.0187

 - Thermochemistry -
 -------------------
 Temperature   298.150 Kelvin.  Pressure   1.00000 Atm.
 Atom     1 has atomic number  6 and mass  12.00000

 Molecular mass:   104.09496 amu.
 Principal axes and moments of inertia in atomic units:
                           1         2         3
     Eigenvalues --   563.26367 779.33943 957.75942
           X            0.99938  -0.01542   0.03154
           Y            0.01510   0.99983   0.01065
           Z           -0.03170  -0.01017   0.99945
 This molecule is an asymmetric top.
 Rotational symmetry number  1.
 Warning -- assumption of classical behavior for rotation
           may cause significant error
 Rotational temperatures (Kelvin)      0.15377     0.11114     0.09043
 Rotational constants (GHZ):           3.20408     2.31573     1.88434
 Zero-point vibrational energy     449478.7 (Joules/Mol)
                                  107.42798 (Kcal/Mol)
 Warning -- explicit consideration of  14 degrees of freedom as
           vibrations may cause significant error
 Vibrational temperatures:    156.97   296.61   331.02   360.79   398.50
          (Kelvin)            399.00   439.69   494.50   536.25   550.74
                              600.73   707.12   763.82   869.99  1044.13
                             1251.50  1257.31  1324.57  1339.64  1424.15
                             1458.04  1485.72  1556.69  1605.41  1651.99
                             1754.64  1769.61  1890.78  1975.36  1988.10
                             2024.83  2039.11  2050.84  2161.72  2170.61
                             2177.45  2184.28  2368.89  2410.68  4349.24
                             4360.93  4386.14  4458.54  4471.62  4485.51
                             4525.00  5008.85  5018.38  5142.59  5150.38
                             5490.63

 Zero-point correction=                           0.171197 (Hartree/Particle)
 Thermal correction to Energy=                    0.180125
 Thermal correction to Enthalpy=                  0.181069
 Thermal correction to Gibbs Free Energy=         0.139135
 Sum of electronic and zero-point Energies=           -344.216337
 Sum of electronic and thermal Energies=              -344.207409
 Sum of electronic and thermal Enthalpies=            -344.206465
 Sum of electronic and thermal Free Energies=         -344.248399

                     E (Thermal)             CV                S
                      KCal/Mol        Cal/Mol-Kelvin    Cal/Mol-Kelvin
 Total                  113.030             34.026             88.257
 Electronic               0.000              0.000              0.000
 Translational            0.889              2.981             39.838
 Rotational               0.889              2.981             27.533
 Vibrational            111.253             28.064             20.887
 Vibration     1          0.606              1.942              3.285
 Vibration     2          0.641              1.831              2.077
 Vibration     3          0.652              1.795              1.878
 Vibration     4          0.663              1.761              1.725
 Vibration     5          0.678              1.716              1.552
 Vibration     6          0.678              1.715              1.550
 Vibration     7          0.696              1.663              1.386
 Vibration     8          0.722              1.588              1.195
 Vibration     9          0.744              1.528              1.069
 Vibration    10          0.752              1.507              1.028
 Vibration    11          0.781              1.432              0.900
 Vibration    12          0.847              1.269              0.680
 Vibration    13          0.886              1.182              0.585
 Vibration    14          0.963              1.022              0.442

 Optimization completed.
    -- Stationary point found.
 Normal termination of Gaussian 09 at Thu Sep  8 15:12:19 2022.
