 Gaussian 09, Revision E.01,
 Gaussian 09:  ES64L-G09RevE.01 30-Nov-2015

 ----------------------------
 #P OPT Freq B3LYP/6-31G(d,p)
 ----------------------------

 --------
 Frag_940
 --------
 Symbolic Z-matrix:
 Charge =  0 Multiplicity = 1

 SCF Done:  E(RB3LYP) =  -403.587688627     A.U. after   12 cycles
 SCF Done:  E(RB3LYP) =  -403.587745307     A.U. after   10 cycles
 SCF Done:  E(RB3LYP) =  -403.587639662     A.U. after   10 cycles
 SCF Done:  E(RB3LYP) =  -403.587754951     A.U. after   10 cycles
 SCF Done:  E(RB3LYP) =  -403.587756498     A.U. after    7 cycles
 SCF Done:  E(RB3LYP) =  -403.587757277     A.U. after    7 cycles
 SCF Done:  E(RB3LYP) =  -403.587757604     A.U. after    7 cycles
 Optimization completed.
    -- Stationary point found.
 Normal termination of Gaussian 09 at Thu Sep  8 15:25:02 2022.

 ----------------------------------------------------------------------
 #P Geom=AllCheck Guess=TCheck SCRF=Check GenChk RB3LYP/6-31G(d,p) Freq
 ----------------------------------------------------------------------

 Structure from the checkpoint file:  "B3LYP6-31Gdp.Frag_940.chk"
 --------
 Frag_940
 --------
 Charge =  0 Multiplicity = 1

                         Standard orientation:
 ---------------------------------------------------------------------
 Center     Atomic      Atomic             Coordinates (Angstroms)
 Number     Number       Type             X           Y           Z
 ---------------------------------------------------------------------
      1          6           0       -1.301496    0.343308    1.432483
      2          6           0       -0.773662    0.035314    0.020780
      3          6           0       -1.316727    1.056561   -0.988791
      4          7           0       -1.171893   -1.311928   -0.450469
      5          6           0        0.792566   -0.012688   -0.022166
      6          6           0        1.508822    1.309360    0.235809
      7          8           0        1.207940   -0.476650   -1.281200
      8          8           0        1.154161   -0.967065    0.987828
      9          1           0       -1.007011    1.342516    1.770118
     10          1           0       -2.396865    0.305648    1.437007
     11          1           0       -0.923349   -0.382869    2.155617
     12          1           0       -2.406570    0.967101   -1.063986
     13          1           0       -1.095964    2.080631   -0.677299
     14          1           0       -0.885496    0.891061   -1.978591
     15          1           0       -0.936894   -1.992838    0.268047
     16          1           0       -2.175988   -1.351895   -0.602846
     17          1           0        2.588416    1.139925    0.177975
     18          1           0        1.274472    1.693233    1.230723
     19          1           0        1.248711    2.058564   -0.514971
     20          1           0        0.525760   -1.140137   -1.514197
     21          1           0        2.040206   -1.268852    0.743975
 ---------------------------------------------------------------------

 SCF Done:  E(RB3LYP) =  -403.587757604     A.U. after    1 cycles

 The electronic state is 1-A.
 Alpha  occ. eigenvalues --  -19.13718 -19.13036 -14.32024 -10.27620 -10.22211
 Alpha  occ. eigenvalues --  -10.17427 -10.17130 -10.16998  -1.04952  -0.97515
 Alpha  occ. eigenvalues --   -0.88982  -0.76499  -0.71866  -0.68637  -0.62813
 Alpha  occ. eigenvalues --   -0.54973  -0.52634  -0.48679  -0.46655  -0.45160
 Alpha  occ. eigenvalues --   -0.42280  -0.41524  -0.39349  -0.38831  -0.38354
 Alpha  occ. eigenvalues --   -0.37347  -0.36714  -0.36182  -0.33612  -0.30705
 Alpha  occ. eigenvalues --   -0.28391  -0.26196  -0.24884
 Alpha virt. eigenvalues --    0.06773   0.10364   0.12301   0.12951   0.14096
 Alpha virt. eigenvalues --    0.14794   0.15300   0.15875   0.17744   0.18420
 Alpha virt. eigenvalues --    0.19260   0.21447   0.21552   0.22544   0.23901

 Mulliken charges:
               1
     1  C   -0.308809
     2  C    0.116539
     3  C   -0.302939
     4  N   -0.626333
     5  C    0.492743
     6  C   -0.312369
     7  O   -0.564939
     8  O   -0.564007
     9  H    0.099909
    10  H    0.087599
    11  H    0.124116
    12  H    0.089916
    13  H    0.106456
    14  H    0.121208
    15  H    0.257467
    16  H    0.238509
    17  H    0.104079
    18  H    0.108926
    19  H    0.111283
    20  H    0.318680
    21  H    0.301967
 Sum of Mulliken charges =  -0.00000

 Dipole moment (field-independent basis, Debye):
    X=             -1.2967    Y=             -0.0649    Z=              0.6488  Tot=              1.4515
 Quadrupole moment (field-independent basis, Debye-Ang):
   XX=            -45.9321   YY=            -47.7978   ZZ=            -54.2093
   XY=              0.6266   XZ=              2.0611   YZ=             -0.0057

  Exact polarizability:  72.885   0.587  66.077   0.855  -0.080  63.659
 Approx polarizability:  96.719  -0.005  92.138   0.291  -0.187  91.078

                      1                      2                      3
                      A                      A                      A
 Frequencies --    113.5249               212.8358               243.7698
 Red. masses --      3.1150                 1.0378                 1.4096
 Frc consts  --      0.0237                 0.0277                 0.0494
 IR Inten    --      3.0811                 0.2790                 0.6082

                      4                      5                      6
                      A                      A                      A
 Frequencies --    263.0423               269.9666               272.4899
 Red. masses --      1.2277                 2.2147                 1.7999
 Frc consts  --      0.0500                 0.0951                 0.0787
 IR Inten    --     13.5733                 0.6155                 6.6162

                      7                      8                      9
                      A                      A                      A
 Frequencies --    293.6191               337.4168               353.0003
 Red. masses --      1.1820                 1.4262                 2.2592
 Frc consts  --      0.0600                 0.0957                 0.1659
 IR Inten    --     70.7054                16.6422                 4.8624

                     10                     11                     12
                      A                      A                      A
 Frequencies --    374.3038               381.2616               418.1183
 Red. masses --      2.6204                 2.2900                 2.5076
 Frc consts  --      0.2163                 0.1961                 0.2583
 IR Inten    --      6.2199                 6.2657                 1.7107

                     13                     14                     15
                      A                      A                      A
 Frequencies --    439.0660               528.6546               534.5725
 Red. masses --      2.7528                 3.3888                 2.6025
 Frc consts  --      0.3127                 0.5580                 0.4382
 IR Inten    --     15.3044                 8.8649                 1.0233

                     16                     17                     18
                      A                      A                      A
 Frequencies --    574.9784               681.4050               735.4172
 Red. masses --      3.8606                 2.8871                 1.1985
 Frc consts  --      0.7520                 0.7898                 0.3819
 IR Inten    --     26.4935                 1.9204                96.9525

                     19                     20                     21
                      A                      A                      A
 Frequencies --    842.2437               915.7300               933.1980
 Red. masses --      2.8561                 2.2227                 1.3548
 Frc consts  --      1.1937                 1.0981                 0.6951
 IR Inten    --     34.9293                56.7192               111.4943

                     22                     23                     24
                      A                      A                      A
 Frequencies --    943.3484               958.2353               971.8963
 Red. masses --      1.4843                 2.0456                 1.8112
 Frc consts  --      0.7782                 1.1067                 1.0080
 IR Inten    --      1.6265                30.7511                 2.4772

                     25                     26                     27
                      A                      A                      A
 Frequencies --   1025.9784              1086.8421              1098.3308
 Red. masses --      1.3052                 1.4992                 1.5006
 Frc consts  --      0.8095                 1.0434                 1.0666
 IR Inten    --      9.7478                38.9318                 0.9862

                     28                     29                     30
                      A                      A                      A
 Frequencies --   1127.7706              1190.8818              1230.5180
 Red. masses --      2.6181                 2.5059                 2.6099
 Frc consts  --      1.9619                 2.0939                 2.3284
 IR Inten    --    139.4888               105.3291                12.5151

                     31                     32                     33
                      A                      A                      A
 Frequencies --   1257.4734              1336.8906              1364.9537
 Red. masses --      2.7871                 1.7080                 1.7849
 Frc consts  --      2.5965                 1.7985                 1.9593
 IR Inten    --     33.9277                 6.5314                 7.3490

                     34                     35                     36
                      A                      A                      A
 Frequencies --   1411.4709              1412.6205              1433.5177
 Red. masses --      1.2678                 1.2962                 1.2462
 Frc consts  --      1.4881                 1.5240                 1.5088
 IR Inten    --      3.3651                28.6534                 9.9198

                     37                     38                     39
                      A                      A                      A
 Frequencies --   1461.8106              1494.3099              1499.7179
 Red. masses --      1.5125                 1.0541                 1.0515
 Frc consts  --      1.9042                 1.3868                 1.3934
 IR Inten    --    136.0122                 3.4781                 2.1254

                     40                     41                     42
                      A                      A                      A
 Frequencies --   1505.4426              1514.2266              1518.5439
 Red. masses --      1.0788                 1.0509                 1.0551
 Frc consts  --      1.4405                 1.4196                 1.4334
 IR Inten    --      4.3741                 2.1292                 2.9360

                     43                     44                     45
                      A                      A                      A
 Frequencies --   1530.6737              1641.9775              3041.5203
 Red. masses --      1.0819                 1.0984                 1.0383
 Frc consts  --      1.4935                 1.7448                 5.6593
 IR Inten    --     11.8098                46.3026                16.6973

                     46                     47                     48
                      A                      A                      A
 Frequencies --   3049.8528              3063.6588              3104.9222
 Red. masses --      1.0405                 1.0372                 1.1006
 Frc consts  --      5.7022                 5.7359                 6.2514
 IR Inten    --     29.8624                 9.3768                20.8863

                     49                     50                     51
                      A                      A                      A
 Frequencies --   3118.8946              3133.9718              3141.4404
 Red. masses --      1.0961                 1.0998                 1.1008
 Frc consts  --      6.2821                 6.3646                 6.4005
 IR Inten    --     39.7359                13.0610                19.7865

                     52                     53                     54
                      A                      A                      A
 Frequencies --   3148.9139              3156.3761              3498.4910
 Red. masses --      1.1028                 1.1037                 1.0488
 Frc consts  --      6.4427                 6.4788                 7.5631
 IR Inten    --     22.9320                15.0610                 0.7908

                     55                     56                     57
                      A                      A                      A
 Frequencies --   3587.1048              3590.2511              3808.2619
 Red. masses --      1.0652                 1.0924                 1.0656
 Frc consts  --      8.0753                 8.2966                 9.1056
 IR Inten    --    113.9113                 6.9938                24.1748

 - Thermochemistry -
 -------------------
 Temperature   298.150 Kelvin.  Pressure   1.00000 Atm.
 Atom     1 has atomic number  6 and mass  12.00000

 Molecular mass:   119.09463 amu.
 Principal axes and moments of inertia in atomic units:
                           1         2         3
     Eigenvalues --   734.264131017.252831020.92693
           X            0.99962   0.02313   0.01531
           Y           -0.02514   0.98883   0.14692
           Z           -0.01174  -0.14725   0.98903
 This molecule is an asymmetric top.
 Rotational symmetry number  1.
 Warning -- assumption of classical behavior for rotation
           may cause significant error
 Rotational temperatures (Kelvin)      0.11796     0.08514     0.08484
 Rotational constants (GHZ):           2.45789     1.77413     1.76775
 Zero-point vibrational energy     491543.8 (Joules/Mol)
                                  117.48179 (Kcal/Mol)
 Warning -- explicit consideration of  16 degrees of freedom as
           vibrations may cause significant error
 Vibrational temperatures:    163.34   306.22   350.73   378.46   388.42
          (Kelvin)            392.05   422.45   485.47   507.89   538.54
                              548.55   601.58   631.72   760.62   769.13
                              827.26   980.39  1058.10  1211.80  1317.53
                             1342.66  1357.27  1378.69  1398.34  1476.15
                             1563.72  1580.25  1622.61  1713.41  1770.44
                             1809.22  1923.49  1963.86  2030.79  2032.44
                             2062.51  2103.22  2149.98  2157.76  2165.99
                             2178.63  2184.84  2202.30  2362.44  4376.06
                             4388.05  4407.92  4467.28  4487.39  4509.08
                             4519.83  4530.58  4541.32  5033.54  5161.04
                             5165.56  5479.23

 Zero-point correction=                           0.187219 (Hartree/Particle)
 Thermal correction to Energy=                    0.196892
 Thermal correction to Enthalpy=                  0.197836
 Thermal correction to Gibbs Free Energy=         0.154399
 Sum of electronic and zero-point Energies=           -403.400538
 Sum of electronic and thermal Energies=              -403.390866
 Sum of electronic and thermal Enthalpies=            -403.389922
 Sum of electronic and thermal Free Energies=         -403.433358

                     E (Thermal)             CV                S
                      KCal/Mol        Cal/Mol-Kelvin    Cal/Mol-Kelvin
 Total                  123.551             38.124             91.420
 Electronic               0.000              0.000              0.000
 Translational            0.889              2.981             40.239
 Rotational               0.889              2.981             28.124
 Vibrational            121.774             32.162             23.057
 Vibration     1          0.607              1.938              3.208
 Vibration     2          0.644              1.821              2.019
 Vibration     3          0.659              1.773              1.775
 Vibration     4          0.670              1.741              1.641
 Vibration     5          0.674              1.728              1.596
 Vibration     6          0.675              1.724              1.580
 Vibration     7          0.688              1.686              1.453
 Vibration     8          0.718              1.601              1.224
 Vibration     9          0.729              1.569              1.153
 Vibration    10          0.745              1.525              1.062
 Vibration    11          0.751              1.510              1.034
 Vibration    12          0.781              1.431              0.898
 Vibration    13          0.799              1.385              0.830
 Vibration    14          0.884              1.187              0.590
 Vibration    15          0.890              1.174              0.577
 Vibration    16          0.931              1.085              0.495

 Optimization completed.
    -- Stationary point found.
 Normal termination of Gaussian 09 at Thu Sep  8 15:25:26 2022.
