 Gaussian 09, Revision E.01,
 Gaussian 09:  ES64L-G09RevE.01 30-Nov-2015

 ----------------------------
 #P OPT Freq B3LYP/6-31G(d,p)
 ----------------------------

 --------
 Frag_624
 --------
 Symbolic Z-matrix:
 Charge =  0 Multiplicity = 1

 SCF Done:  E(RB3LYP) =  -339.784660223     A.U. after   14 cycles
 SCF Done:  E(RB3LYP) =  -339.784749186     A.U. after   11 cycles
 SCF Done:  E(RB3LYP) =  -339.784556359     A.U. after   12 cycles
 SCF Done:  E(RB3LYP) =  -339.784768473     A.U. after    7 cycles
 SCF Done:  E(RB3LYP) =  -339.784775546     A.U. after    8 cycles
 SCF Done:  E(RB3LYP) =  -339.784778616     A.U. after    8 cycles
 SCF Done:  E(RB3LYP) =  -339.784780365     A.U. after    8 cycles
 SCF Done:  E(RB3LYP) =  -339.784780847     A.U. after    8 cycles
 Optimization completed.
    -- Stationary point found.
 Normal termination of Gaussian 09 at Thu Sep  8 15:02:10 2022.

 ----------------------------------------------------------------------
 #P Geom=AllCheck Guess=TCheck SCRF=Check GenChk RB3LYP/6-31G(d,p) Freq
 ----------------------------------------------------------------------

 Structure from the checkpoint file:  "B3LYP6-31Gdp.Frag_624.chk"
 --------
 Frag_624
 --------
 Charge =  0 Multiplicity = 1

                         Standard orientation:
 ---------------------------------------------------------------------
 Center     Atomic      Atomic             Coordinates (Angstroms)
 Number     Number       Type             X           Y           Z
 ---------------------------------------------------------------------
      1          7           0        1.499991   -1.020086    0.292502
      2          6           0        0.681196    0.162634    0.376530
      3          7           0        1.054502    1.226122   -0.582993
      4          6           0       -0.763021   -0.214300    0.039467
      5          8           0       -1.130153   -1.242982   -0.473242
      6          8           0       -1.607533    0.800161    0.354617
      7          1           0        1.425920   -1.413190   -0.642770
      8          1           0        2.474697   -0.786375    0.459565
      9          1           0        0.696944    0.507002    1.423657
     10          1           0        0.421897    2.018212   -0.476913
     11          1           0        1.984028    1.567935   -0.345524
     12          1           0       -2.492503    0.516722    0.068439
 ---------------------------------------------------------------------

 SCF Done:  E(RB3LYP) =  -339.784780847     A.U. after    1 cycles

 The electronic state is 1-A.
 Alpha  occ. eigenvalues --  -19.20280 -19.14437 -14.32361 -14.31832 -10.32148
 Alpha  occ. eigenvalues --  -10.25640  -1.11031  -1.02066  -0.92406  -0.84433
 Alpha  occ. eigenvalues --   -0.70202  -0.59539  -0.53121  -0.49350  -0.48299
 Alpha  occ. eigenvalues --   -0.47305  -0.43756  -0.43127  -0.40795  -0.38715
 Alpha  occ. eigenvalues --   -0.32391  -0.28245  -0.25064  -0.25019
 Alpha virt. eigenvalues --    0.00446   0.06948   0.07926   0.12149   0.14180
 Alpha virt. eigenvalues --    0.15143   0.17413   0.21817   0.24541   0.25946
 Alpha virt. eigenvalues --    0.32164   0.35551   0.53170   0.56021   0.56556

 Mulliken charges:
               1
     1  N   -0.565562
     2  C    0.091915
     3  N   -0.595749
     4  C    0.603002
     5  O   -0.451387
     6  O   -0.493289
     7  H    0.257021
     8  H    0.236269
     9  H    0.109905
    10  H    0.248034
    11  H    0.234757
    12  H    0.325084
 Sum of Mulliken charges =  -0.00000

 Dipole moment (field-independent basis, Debye):
    X=              0.7745    Y=              2.6429    Z=              0.7210  Tot=              2.8469
 Quadrupole moment (field-independent basis, Debye-Ang):
   XX=            -25.4004   YY=            -37.5277   ZZ=            -37.6188
   XY=             -0.8486   XZ=              0.3218   YZ=              1.1510

  Exact polarizability:  46.967  -1.191  43.896   1.253   2.724  30.635
 Approx polarizability:  58.880  -1.081  67.190   2.278   7.741  45.533

                      1                      2                      3
                      A                      A                      A
 Frequencies --     66.2040               219.0288               254.2011
 Red. masses --      6.1533                 1.4583                 1.4908
 Frc consts  --      0.0159                 0.0412                 0.0568
 IR Inten    --      0.1429                17.9447                42.2775

                      4                      5                      6
                      A                      A                      A
 Frequencies --    266.6008               341.8136               406.2097
 Red. masses --      1.7457                 2.5098                 3.5737
 Frc consts  --      0.0731                 0.1728                 0.3474
 IR Inten    --     33.3290                 8.4849                21.2606

                      7                      8                      9
                      A                      A                      A
 Frequencies --    519.2879               601.7649               640.5620
 Red. masses --      3.1834                 1.9778                 1.8050
 Frc consts  --      0.5058                 0.4220                 0.4364
 IR Inten    --     56.8515                31.8455                37.4053

                     10                     11                     12
                      A                      A                      A
 Frequencies --    758.8002               811.4474               845.4259
 Red. masses --      3.8157                 2.3596                 1.6336
 Frc consts  --      1.2944                 0.9154                 0.6880
 IR Inten    --    109.4544                52.2836               130.1143

                     13                     14                     15
                      A                      A                      A
 Frequencies --    927.5283              1009.7894              1104.6631
 Red. masses --      1.5751                 2.8502                 1.8650
 Frc consts  --      0.7984                 1.7123                 1.3409
 IR Inten    --    109.2825                47.7398                20.5720

                     16                     17                     18
                      A                      A                      A
 Frequencies --   1149.4083              1201.1568              1287.1776
 Red. masses --      2.0133                 1.3415                 1.8007
 Frc consts  --      1.5672                 1.1403                 1.7578
 IR Inten    --    230.2856                58.6884                 1.9901

                     19                     20                     21
                      A                      A                      A
 Frequencies --   1330.8777              1375.6316              1481.0107
 Red. masses --      1.6037                 1.3321                 1.8969
 Frc consts  --      1.6736                 1.4852                 2.4513
 IR Inten    --     19.4210                30.2529                 3.7293

                     22                     23                     24
                      A                      A                      A
 Frequencies --   1653.5384              1657.5982              1869.2734
 Red. masses --      1.0964                 1.1067                 9.6871
 Frc consts  --      1.7662                 1.7915                19.9430
 IR Inten    --     29.8915                49.9504               246.7612

                     25                     26                     27
                      A                      A                      A
 Frequencies --   2984.4000              3472.9886              3503.3607
 Red. masses --      1.0829                 1.0495                 1.0485
 Frc consts  --      5.6827                 7.4582                 7.5822
 IR Inten    --     58.2426                 0.9343                 2.2908

                     28                     29                     30
                      A                      A                      A
 Frequencies --   3561.8397              3596.3506              3751.8554
 Red. masses --      1.0925                 1.0938                 1.0642
 Frc consts  --      8.1662                 8.3349                 8.8258
 IR Inten    --      0.0563                 2.2568                51.0179

 - Thermochemistry -
 -------------------
 Temperature   298.150 Kelvin.  Pressure   1.00000 Atm.
 Atom     1 has atomic number  7 and mass  14.00307

 Molecular mass:    90.04293 amu.
 Principal axes and moments of inertia in atomic units:
                           1         2         3
     Eigenvalues --   347.86281 559.22336 790.71340
           X            0.99991  -0.01362   0.00146
           Y            0.01363   0.99990  -0.00277
           Z           -0.00142   0.00279   1.00000
 This molecule is an asymmetric top.
 Rotational symmetry number  1.
 Rotational temperatures (Kelvin)      0.24899     0.15488     0.10954
 Rotational constants (GHZ):           5.18808     3.22723     2.28242
 Zero-point vibrational energy     255102.4 (Joules/Mol)
                                   60.97094 (Kcal/Mol)
 Warning -- explicit consideration of   8 degrees of freedom as
           vibrations may cause significant error
 Vibrational temperatures:     95.25   315.13   365.74   383.58   491.79
          (Kelvin)            584.44   747.14   865.80   921.62  1091.74
                             1167.49  1216.38  1334.50  1452.86  1589.36
                             1653.74  1728.19  1851.96  1914.83  1979.22
                             2130.84  2379.07  2384.91  2689.46  4293.88
                             4996.85  5040.55  5124.69  5174.34  5398.08

 Zero-point correction=                           0.097163 (Hartree/Particle)
 Thermal correction to Energy=                    0.103875
 Thermal correction to Enthalpy=                  0.104819
 Thermal correction to Gibbs Free Energy=         0.066733
 Sum of electronic and zero-point Energies=           -339.687617
 Sum of electronic and thermal Energies=              -339.680906
 Sum of electronic and thermal Enthalpies=            -339.679962
 Sum of electronic and thermal Free Energies=         -339.718048

                     E (Thermal)             CV                S
                      KCal/Mol        Cal/Mol-Kelvin    Cal/Mol-Kelvin
 Total                   65.182             23.537             80.159
 Electronic               0.000              0.000              0.000
 Translational            0.889              2.981             39.405
 Rotational               0.889              2.981             26.534
 Vibrational             63.405             17.575             14.220
 Vibration     1          0.598              1.970              4.263
 Vibration     2          0.647              1.812              1.967
 Vibration     3          0.665              1.756              1.701
 Vibration     4          0.672              1.734              1.618
 Vibration     5          0.721              1.592              1.204
 Vibration     6          0.771              1.457              0.940
 Vibration     7          0.874              1.207              0.612
 Vibration     8          0.960              1.028              0.447

 Optimization completed.
    -- Stationary point found.
 Normal termination of Gaussian 09 at Thu Sep  8 15:02:20 2022.
