 Gaussian 09, Revision E.01,
 Gaussian 09:  ES64L-G09RevE.01 30-Nov-2015

 ----------------------------
 #P OPT Freq B3LYP/6-31G(d,p)
 ----------------------------

 ---------
 Frag_1120
 ---------
 Symbolic Z-matrix:
 Charge =  0 Multiplicity = 1

 SCF Done:  E(RB3LYP) =  -225.161284648     A.U. after   14 cycles
 SCF Done:  E(RB3LYP) =  -225.161360352     A.U. after    9 cycles
 SCF Done:  E(RB3LYP) =  -225.161364162     A.U. after    9 cycles
 SCF Done:  E(RB3LYP) =  -225.161368201     A.U. after    8 cycles
 SCF Done:  E(RB3LYP) =  -225.161368523     A.U. after    8 cycles
 SCF Done:  E(RB3LYP) =  -225.161368514     A.U. after    8 cycles
 Optimization completed.
    -- Stationary point found.
 Normal termination of Gaussian 09 at Thu Sep  8 14:52:23 2022.

 ----------------------------------------------------------------------
 #P Geom=AllCheck Guess=TCheck SCRF=Check GenChk RB3LYP/6-31G(d,p) Freq
 ----------------------------------------------------------------------

 Structure from the checkpoint file:  "B3LYP6-31Gdp.Frag_1120.chk"
 ---------
 Frag_1120
 ---------
 Charge =  0 Multiplicity = 1

                         Standard orientation:
 ---------------------------------------------------------------------
 Center     Atomic      Atomic             Coordinates (Angstroms)
 Number     Number       Type             X           Y           Z
 ---------------------------------------------------------------------
      1          6           0       -1.741764    0.088298    0.000257
      2          7           0       -0.388995   -0.471032   -0.000316
      3          7           0        0.463201    0.417365   -0.000455
      4          8           0        1.737436   -0.170413    0.000254
      5          1           0       -1.751114    1.183497    0.000547
      6          1           0       -2.265933   -0.291093   -0.882324
      7          1           0       -2.265500   -0.291566    0.882894
      8          1           0        2.314197    0.608350    0.000708
 ---------------------------------------------------------------------

 SCF Done:  E(RB3LYP) =  -225.161368514     A.U. after    1 cycles

 The electronic state is 1-A.
 Alpha  occ. eigenvalues --  -19.19432 -14.44005 -14.37712 -10.21907  -1.11778
 Alpha  occ. eigenvalues --   -0.98064  -0.75125  -0.59969  -0.52044  -0.48127
 Alpha  occ. eigenvalues --   -0.46799  -0.41988  -0.40454  -0.36007  -0.28762
 Alpha  occ. eigenvalues --   -0.25505
 Alpha virt. eigenvalues --   -0.02699   0.07433   0.11368   0.15482   0.15835
 Alpha virt. eigenvalues --    0.16082   0.19797   0.37409   0.52909   0.54772
 Alpha virt. eigenvalues --    0.57774   0.67846   0.68787   0.71152   0.71875

 Mulliken charges:
               1
     1  C   -0.186296
     2  N   -0.161763
     3  N    0.014802
     4  O   -0.382779
     5  H    0.118692
     6  H    0.135620
     7  H    0.135653
     8  H    0.326070
 Sum of Mulliken charges =  -0.00000

 Dipole moment (field-independent basis, Debye):
    X=             -0.5905    Y=              1.6692    Z=              0.0013  Tot=              1.7706
 Quadrupole moment (field-independent basis, Debye-Ang):
   XX=            -16.9375   YY=            -25.2625   ZZ=            -23.3333
   XY=              3.0146   XZ=              0.0015   YZ=              0.0013

  Exact polarizability:  49.074   3.874  24.426   0.003   0.001  18.815
 Approx polarizability:  70.233   9.384  38.028   0.005   0.001  25.743

                      1                      2                      3
                      A                      A                      A
 Frequencies --    205.8367               316.8041               365.8829
 Red. masses --      1.3565                 4.0717                 3.2442
 Frc consts  --      0.0339                 0.2408                 0.2559
 IR Inten    --      8.1559                 2.2066                10.4230

                      4                      5                      6
                      A                      A                      A
 Frequencies --    492.0893               613.6096               997.9096
 Red. masses --      1.1584                 6.2284                 5.3490
 Frc consts  --      0.1653                 1.3817                 3.1384
 IR Inten    --    103.3593                44.0865               146.4945

                      7                      8                      9
                      A                      A                      A
 Frequencies --   1026.7396              1115.6796              1178.4256
 Red. masses --      3.2006                 1.3445                 1.8571
 Frc consts  --      1.9879                 0.9860                 1.5195
 IR Inten    --     14.4551                 0.0072                14.4402

                     10                     11                     12
                      A                      A                      A
 Frequencies --   1368.8794              1437.3570              1490.3204
 Red. masses --      1.3157                 1.1863                 1.0440
 Frc consts  --      1.4526                 1.4440                 1.3662
 IR Inten    --    146.4625                 2.0353                 6.1459

                     13                     14                     15
                      A                      A                      A
 Frequencies --   1498.9589              1703.1251              3037.8303
 Red. masses --      1.0563                 6.7514                 1.0317
 Frc consts  --      1.3984                11.5382                 5.6098
 IR Inten    --     11.6795                33.3608                26.7024

                     16                     17                     18
                      A                      A                      A
 Frequencies --   3121.1883              3125.6955              3791.5158
 Red. masses --      1.1029                 1.1058                 1.0668
 Frc consts  --      6.3303                 6.3654                 9.0357
 IR Inten    --     13.3703                17.4603                63.1574

 - Thermochemistry -
 -------------------
 Temperature   298.150 Kelvin.  Pressure   1.00000 Atm.
 Atom     1 has atomic number  6 and mass  12.00000

 Molecular mass:    60.03236 amu.
 Principal axes and moments of inertia in atomic units:
                           1         2         3
     Eigenvalues --    34.29254 392.68581 415.76380
           X            0.99998   0.00567  -0.00000
           Y           -0.00567   0.99998   0.00008
           Z            0.00000  -0.00008   1.00000
 This molecule is an asymmetric top.
 Rotational symmetry number  1.
 Rotational temperatures (Kelvin)      2.52573     0.22057     0.20832
 Rotational constants (GHZ):          52.62782     4.59589     4.34078
 Zero-point vibrational energy     160825.0 (Joules/Mol)
                                   38.43811 (Kcal/Mol)
 Warning -- explicit consideration of   5 degrees of freedom as
           vibrations may cause significant error
 Vibrational temperatures:    296.15   455.81   526.42   708.01   882.85
          (Kelvin)           1435.77  1477.25  1605.21  1695.49  1969.51
                             2068.03  2144.24  2156.66  2450.41  4370.75
                             4490.69  4497.17  5455.14

 Zero-point correction=                           0.061255 (Hartree/Particle)
 Thermal correction to Energy=                    0.065905
 Thermal correction to Enthalpy=                  0.066849
 Thermal correction to Gibbs Free Energy=         0.034828
 Sum of electronic and zero-point Energies=           -225.100113
 Sum of electronic and thermal Energies=              -225.095464
 Sum of electronic and thermal Enthalpies=            -225.094520
 Sum of electronic and thermal Free Energies=         -225.126541

                     E (Thermal)             CV                S
                      KCal/Mol        Cal/Mol-Kelvin    Cal/Mol-Kelvin
 Total                   41.356             14.862             67.394
 Electronic               0.000              0.000              0.000
 Translational            0.889              2.981             38.197
 Rotational               0.889              2.981             23.242
 Vibrational             39.578              8.901              5.956
 Vibration     1          0.640              1.832              2.080
 Vibration     2          0.704              1.642              1.327
 Vibration     3          0.739              1.542              1.097
 Vibration     4          0.848              1.268              0.678
 Vibration     5          0.973              1.003              0.427

 Optimization completed.
    -- Stationary point found.
 Normal termination of Gaussian 09 at Thu Sep  8 14:52:29 2022.
