 Gaussian 09, Revision E.01,
 Gaussian 09:  ES64L-G09RevE.01 30-Nov-2015

 ----------------------------
 #P OPT Freq B3LYP/6-31G(d,p)
 ----------------------------

 --------
 Frag_735
 --------
 Symbolic Z-matrix:
 Charge =  0 Multiplicity = 1

 SCF Done:  E(RB3LYP) =  -344.334232656     A.U. after   13 cycles
 SCF Done:  E(RB3LYP) =  -344.334284475     A.U. after   10 cycles
 SCF Done:  E(RB3LYP) =  -344.334289094     A.U. after   10 cycles
 SCF Done:  E(RB3LYP) =  -344.334300548     A.U. after    8 cycles
 SCF Done:  E(RB3LYP) =  -344.334300933     A.U. after    7 cycles
 SCF Done:  E(RB3LYP) =  -344.334301203     A.U. after    7 cycles
 Optimization completed.
    -- Stationary point found.
 Normal termination of Gaussian 09 at Thu Sep  8 15:09:26 2022.

 ----------------------------------------------------------------------
 #P Geom=AllCheck Guess=TCheck SCRF=Check GenChk RB3LYP/6-31G(d,p) Freq
 ----------------------------------------------------------------------

 Structure from the checkpoint file:  "B3LYP6-31Gdp.Frag_735.chk"
 --------
 Frag_735
 --------
 Charge =  0 Multiplicity = 1

                         Standard orientation:
 ---------------------------------------------------------------------
 Center     Atomic      Atomic             Coordinates (Angstroms)
 Number     Number       Type             X           Y           Z
 ---------------------------------------------------------------------
      1          6           0        1.662388    1.069554   -0.057483
      2          7           0        0.790160   -0.017624   -0.511567
      3          8           0        1.392791   -1.227132    0.041729
      4          6           0       -0.596700    0.033933    0.021216
      5          6           0       -1.256801    1.335876   -0.456165
      6          6           0       -1.357227   -1.170417   -0.567622
      7          7           0       -0.568741    0.035272    1.492894
      8          1           0        2.669524    0.860703   -0.423551
      9          1           0        1.679268    1.174668    1.033559
     10          1           0        1.324541    2.006563   -0.506538
     11          1           0        1.564605   -1.748260   -0.753996
     12          1           0       -0.836902    2.204298    0.054979
     13          1           0       -2.329285    1.305735   -0.238243
     14          1           0       -1.133429    1.455279   -1.536018
     15          1           0       -1.352084   -1.142575   -1.662339
     16          1           0       -0.901871   -2.108026   -0.241258
     17          1           0       -2.398390   -1.158113   -0.228782
     18          1           0       -0.169706   -0.847937    1.804464
     19          1           0       -1.518494    0.077503    1.854926
 ---------------------------------------------------------------------

 SCF Done:  E(RB3LYP) =  -344.334301203     A.U. after    1 cycles

 The electronic state is 1-A.
 Alpha  occ. eigenvalues --  -19.16327 -14.36424 -14.30277 -10.24057 -10.18844
 Alpha  occ. eigenvalues --  -10.17346 -10.16871  -1.04546  -0.89377  -0.81733
 Alpha  occ. eigenvalues --   -0.74193  -0.68676  -0.64928  -0.54934  -0.49960
 Alpha  occ. eigenvalues --   -0.49134  -0.45700  -0.43340  -0.42933  -0.39944
 Alpha  occ. eigenvalues --   -0.39307  -0.38386  -0.37807  -0.36329  -0.35102
 Alpha  occ. eigenvalues --   -0.33458  -0.28085  -0.23191  -0.22418
 Alpha virt. eigenvalues --    0.06869   0.08953   0.12683   0.13017   0.13748
 Alpha virt. eigenvalues --    0.14858   0.15991   0.17446   0.18460   0.19070
 Alpha virt. eigenvalues --    0.19452   0.20438   0.21778   0.22039   0.23217

 Mulliken charges:
               1
     1  C   -0.133982
     2  N   -0.247754
     3  O   -0.448546
     4  C    0.287599
     5  C   -0.318509
     6  C   -0.311761
     7  N   -0.589648
     8  H    0.102754
     9  H    0.121525
    10  H    0.103677
    11  H    0.325563
    12  H    0.119482
    13  H    0.097611
    14  H    0.114612
    15  H    0.102883
    16  H    0.103513
    17  H    0.089453
    18  H    0.250998
    19  H    0.230527
 Sum of Mulliken charges =  -0.00000

 Dipole moment (field-independent basis, Debye):
    X=             -0.9752    Y=             -0.6084    Z=             -0.7047  Tot=              1.3482
 Quadrupole moment (field-independent basis, Debye-Ang):
   XX=            -42.0679   YY=            -42.0653   ZZ=            -45.2849
   XY=             -0.3441   XZ=             -3.1314   YZ=             -0.0935

  Exact polarizability:  66.344  -0.911  63.697  -0.814   0.166  56.764
 Approx polarizability:  86.171  -4.976  87.224  -1.337  -0.639  82.382

                      1                      2                      3
                      A                      A                      A
 Frequencies --    114.0954               214.5774               235.0770
 Red. masses --      2.9901                 1.0504                 1.3080
 Frc consts  --      0.0229                 0.0285                 0.0426
 IR Inten    --      0.8171                 2.0263                 1.9077

                      4                      5                      6
                      A                      A                      A
 Frequencies --    253.1895               271.1480               299.6539
 Red. masses --      1.2556                 1.2024                 2.5119
 Frc consts  --      0.0474                 0.0521                 0.1329
 IR Inten    --      5.5298                16.3391                 8.7394

                      7                      8                      9
                      A                      A                      A
 Frequencies --    313.7993               346.3110               380.5836
 Red. masses --      1.5453                 1.2196                 2.3668
 Frc consts  --      0.0897                 0.0862                 0.2020
 IR Inten    --      5.9385               123.4313                 1.0942

                     10                     11                     12
                      A                      A                      A
 Frequencies --    390.2216               401.0781               481.4367
 Red. masses --      2.6198                 2.1619                 2.5959
 Frc consts  --      0.2350                 0.2049                 0.3545
 IR Inten    --      3.0233                 2.5322                 7.4157

                     13                     14                     15
                      A                      A                      A
 Frequencies --    519.6346               579.0013               724.0435
 Red. masses --      3.1232                 3.1966                 4.0819
 Frc consts  --      0.4969                 0.6314                 1.2608
 IR Inten    --      3.2598                14.4369                 2.7528

                     16                     17                     18
                      A                      A                      A
 Frequencies --    823.6840               893.7111               925.6233
 Red. masses --      3.0491                 2.0368                 1.7514
 Frc consts  --      1.2188                 0.9585                 0.8841
 IR Inten    --     53.8913                70.3084                44.5786

                     19                     20                     21
                      A                      A                      A
 Frequencies --    939.0541               963.4026              1014.5307
 Red. masses --      1.4891                 1.8320                 1.4363
 Frc consts  --      0.7737                 1.0018                 0.8710
 IR Inten    --     10.2440                 2.5713                13.2998

                     22                     23                     24
                      A                      A                      A
 Frequencies --   1076.2209              1104.7314              1152.8309
 Red. masses --      1.9008                 1.9589                 1.3720
 Frc consts  --      1.2971                 1.4086                 1.0743
 IR Inten    --     16.3868                 2.3483                 5.2463

                     25                     26                     27
                      A                      A                      A
 Frequencies --   1200.9149              1232.2784              1271.4436
 Red. masses --      1.7618                 2.5788                 3.1912
 Frc consts  --      1.4970                 2.3072                 3.0395
 IR Inten    --      6.7322                48.1420                42.1053

                     28                     29                     30
                      A                      A                      A
 Frequencies --   1331.1869              1352.4997              1404.9123
 Red. masses --      1.4000                 1.5827                 1.3169
 Frc consts  --      1.4617                 1.7058                 1.5315
 IR Inten    --     52.3836                 7.5641                11.9314

                     31                     32                     33
                      A                      A                      A
 Frequencies --   1423.4199              1447.4284              1493.6001
 Red. masses --      1.2697                 1.1820                 1.0534
 Frc consts  --      1.5158                 1.4591                 1.3846
 IR Inten    --      9.9933                 1.1519                 2.2741

                     34                     35                     36
                      A                      A                      A
 Frequencies --   1496.8941              1504.4269              1515.8857
 Red. masses --      1.0481                 1.0514                 1.0505
 Frc consts  --      1.3836                 1.4020                 1.4222
 IR Inten    --      3.2281                 1.9535                 1.1484

                     37                     38                     39
                      A                      A                      A
 Frequencies --   1519.8436              1532.7657              1645.7871
 Red. masses --      1.0500                 1.0571                 1.0990
 Frc consts  --      1.4290                 1.4632                 1.7538
 IR Inten    --      5.0740                 1.9443                39.0169

                     40                     41                     42
                      A                      A                      A
 Frequencies --   3043.4860              3045.4847              3057.0522
 Red. masses --      1.0365                 1.0363                 1.0374
 Frc consts  --      5.6565                 5.6629                 5.7119
 IR Inten    --     33.8921                20.4821                16.3035

                     43                     44                     45
                      A                      A                      A
 Frequencies --   3113.8699              3122.5563              3126.8110
 Red. masses --      1.1026                 1.1001                 1.0997
 Frc consts  --      6.2988                 6.3195                 6.3349
 IR Inten    --     14.9938                 7.5749                55.0878

                     46                     47                     48
                      A                      A                      A
 Frequencies --   3139.8113              3144.0568              3153.0220
 Red. masses --      1.1012                 1.1038                 1.1024
 Frc consts  --      6.3965                 6.4289                 6.4571
 IR Inten    --     16.4906                26.7839                18.5350

                     49                     50                     51
                      A                      A                      A
 Frequencies --   3489.9017              3578.7129              3810.2231
 Red. masses --      1.0488                 1.0926                 1.0683
 Frc consts  --      7.5262                 8.2445                 9.1375
 IR Inten    --      1.8178                 0.4916                34.1919

 - Thermochemistry -
 -------------------
 Temperature   298.150 Kelvin.  Pressure   1.00000 Atm.
 Atom     1 has atomic number  6 and mass  12.00000

 Molecular mass:   104.09496 amu.
 Principal axes and moments of inertia in atomic units:
                           1         2         3
     Eigenvalues --   559.81009 753.38689 917.04159
           X            0.99748   0.07028   0.00924
           Y           -0.07029   0.99753   0.00067
           Z           -0.00917  -0.00131   0.99996
 This molecule is an asymmetric top.
 Rotational symmetry number  1.
 Warning -- assumption of classical behavior for rotation
           may cause significant error
 Rotational temperatures (Kelvin)      0.15472     0.11497     0.09445
 Rotational constants (GHZ):           3.22385     2.39550     1.96800
 Zero-point vibrational energy     446302.3 (Joules/Mol)
                                  106.66880 (Kcal/Mol)
 Warning -- explicit consideration of  14 degrees of freedom as
           vibrations may cause significant error
 Vibrational temperatures:    164.16   308.73   338.22   364.28   390.12
          (Kelvin)            431.13   451.49   498.26   547.57   561.44
                              577.06   692.68   747.64   833.05  1041.74
                             1185.10  1285.85  1331.76  1351.09  1386.12
                             1459.68  1548.44  1589.46  1658.66  1727.85
                             1772.97  1829.32  1915.28  1945.94  2021.35
                             2047.98  2082.52  2148.95  2153.69  2164.53
                             2181.02  2186.71  2205.31  2367.92  4378.89
                             4381.77  4398.41  4480.16  4492.66  4498.78
                             4517.48  4523.59  4536.49  5021.18  5148.96
                             5482.05

 Zero-point correction=                           0.169988 (Hartree/Particle)
 Thermal correction to Energy=                    0.178868
 Thermal correction to Enthalpy=                  0.179812
 Thermal correction to Gibbs Free Energy=         0.138058
 Sum of electronic and zero-point Energies=           -344.164314
 Sum of electronic and thermal Energies=              -344.155433
 Sum of electronic and thermal Enthalpies=            -344.154489
 Sum of electronic and thermal Free Energies=         -344.196243

                     E (Thermal)             CV                S
                      KCal/Mol        Cal/Mol-Kelvin    Cal/Mol-Kelvin
 Total                  112.242             33.934             87.880
 Electronic               0.000              0.000              0.000
 Translational            0.889              2.981             39.838
 Rotational               0.889              2.981             27.450
 Vibrational            110.464             27.973             20.592
 Vibration     1          0.607              1.938              3.198
 Vibration     2          0.645              1.819              2.004
 Vibration     3          0.655              1.787              1.840
 Vibration     4          0.664              1.757              1.708
 Vibration     5          0.675              1.726              1.589
 Vibration     6          0.692              1.674              1.419
 Vibration     7          0.702              1.647              1.342
 Vibration     8          0.724              1.583              1.183
 Vibration     9          0.750              1.512              1.037
 Vibration    10          0.758              1.491              0.999
 Vibration    11          0.767              1.468              0.959
 Vibration    12          0.838              1.291              0.706
 Vibration    13          0.875              1.207              0.611
 Vibration    14          0.936              1.077              0.487

 Optimization completed.
    -- Stationary point found.
 Normal termination of Gaussian 09 at Thu Sep  8 15:09:45 2022.
