 Gaussian 09, Revision E.01,
 Gaussian 09:  ES64L-G09RevE.01 30-Nov-2015

 --------------------------------
 #P OPT=calcfc Freq B3LYP/6-31G**
 --------------------------------

 --------
 Frag_311
 --------
 Symbolic Z-matrix:
 Charge =  0 Multiplicity = 1

 SCF Done:  E(RB3LYP) =  -244.617180841     A.U. after   14 cycles
 SCF Done:  E(RB3LYP) =  -244.634001615     A.U. after   13 cycles
 SCF Done:  E(RB3LYP) =  -244.637910655     A.U. after   12 cycles
 SCF Done:  E(RB3LYP) =  -244.638956137     A.U. after   12 cycles
 SCF Done:  E(RB3LYP) =  -244.639209896     A.U. after   12 cycles
 SCF Done:  E(RB3LYP) =  -244.639372866     A.U. after   11 cycles
 SCF Done:  E(RB3LYP) =  -244.639416493     A.U. after   10 cycles
 SCF Done:  E(RB3LYP) =  -244.639423083     A.U. after    8 cycles
 SCF Done:  E(RB3LYP) =  -244.639423988     A.U. after    8 cycles
 SCF Done:  E(RB3LYP) =  -244.639424036     A.U. after    7 cycles
 Optimization completed.
    -- Stationary point found.
 Normal termination of Gaussian 09 at Fri Sep 10 15:22:49 2021.

 ----------------------------------------------------------------------
 #P Geom=AllCheck Guess=TCheck SCRF=Check GenChk RB3LYP/6-31G(d,p) Freq
 ----------------------------------------------------------------------

 Structure from the checkpoint file:  "/public/home/users/caep010/.cache/gau_scr/Gau-149608.chk"
 --------
 Frag_311
 --------
 Charge =  0 Multiplicity = 1

                         Standard orientation:
 ---------------------------------------------------------------------
 Center     Atomic      Atomic             Coordinates (Angstroms)
 Number     Number       Type             X           Y           Z
 ---------------------------------------------------------------------
      1          6           0       -1.604031   -0.711459    0.083754
      2          7           0       -0.363803   -0.014658   -0.208230
      3          7           0       -0.340841    1.376992    0.004463
      4          6           0        0.862515   -0.665207   -0.052498
      5          7           0        2.021334   -0.158476    0.079600
      6          1           0       -1.920610   -0.584966    1.132313
      7          1           0       -2.407400   -0.342899   -0.563844
      8          1           0       -1.477076   -1.780006   -0.108717
      9          1           0       -0.915926    1.828059   -0.702805
     10          1           0       -0.731377    1.601316    0.922175
     11          1           0        0.751421   -1.752142   -0.096843
     12          1           0        1.933235    0.863623    0.099359
 ---------------------------------------------------------------------

 SCF Done:  E(RB3LYP) =  -244.639424036     A.U. after    1 cycles

 The electronic state is 1-A.
 Alpha  occ. eigenvalues --  -14.38149 -14.36706 -14.28140 -10.23881 -10.22965
 Alpha  occ. eigenvalues --   -1.00416  -0.87143  -0.81129  -0.69600  -0.59057
 Alpha  occ. eigenvalues --   -0.52442  -0.50300  -0.49611  -0.43591  -0.41680
 Alpha  occ. eigenvalues --   -0.39748  -0.33575  -0.27899  -0.25025  -0.22161
 Alpha virt. eigenvalues --    0.04054   0.06346   0.11299   0.12207   0.13476
 Alpha virt. eigenvalues --    0.15136   0.16507   0.17825   0.19272   0.24074
 Alpha virt. eigenvalues --    0.32251   0.37939   0.50506   0.52262   0.54169

 Mulliken charges:
               1
     1  C   -0.171524
     2  N   -0.312780
     3  N   -0.451140
     4  C    0.292183
     5  N   -0.539818
     6  H    0.104252
     7  H    0.113601
     8  H    0.125629
     9  H    0.264269
    10  H    0.249359
    11  H    0.093180
    12  H    0.232788
 Sum of Mulliken charges =  -0.00000

 Dipole moment (field-independent basis, Debye):
    X=             -4.6872    Y=              0.7813    Z=              0.3393  Tot=              4.7640
 Quadrupole moment (field-independent basis, Debye-Ang):
   XX=            -36.5147   YY=            -27.0751   ZZ=            -30.7604
   XY=              0.4104   XZ=             -0.3591   YZ=              0.3513

  Exact polarizability:  55.598   1.204  45.196   0.634   0.798  29.255
 Approx polarizability:  81.203   3.413  61.580   2.992   1.358  41.564

                      1                      2                      3
                      A                      A                      A
 Frequencies --    124.3038               234.3349               286.5990
 Red. masses --      2.3973                 1.1762                 1.7439
 Frc consts  --      0.0218                 0.0381                 0.0844
 IR Inten    --      5.7926                 1.6357                 9.5350

                      4                      5                      6
                      A                      A                      A
 Frequencies --    323.3038               358.7516               417.9492
 Red. masses --      2.8611                 1.2977                 2.4393
 Frc consts  --      0.1762                 0.0984                 0.2510
 IR Inten    --      4.7233                20.9614                 5.4009

                      7                      8                      9
                      A                      A                      A
 Frequencies --    634.4318               834.1375               867.5333
 Red. masses --      3.4100                 3.5402                 1.9588
 Frc consts  --      0.8087                 1.4513                 0.8686
 IR Inten    --      8.6320                54.4411                35.6816

                     10                     11                     12
                      A                      A                      A
 Frequencies --    925.5465              1070.0850              1092.9180
 Red. masses --      1.5970                 1.5166                 1.0893
 Frc consts  --      0.8060                 1.0232                 0.7666
 IR Inten    --     79.9387                22.0740                52.1022

                     13                     14                     15
                      A                      A                      A
 Frequencies --   1148.0586              1196.9777              1268.8412
 Red. masses --      1.2767                 2.1250                 2.1969
 Frc consts  --      0.9914                 1.7939                 2.0839
 IR Inten    --      8.9910               119.9168                51.2683

                     16                     17                     18
                      A                      A                      A
 Frequencies --   1319.2547              1371.1861              1433.3036
 Red. masses --      1.1786                 2.7932                 1.2425
 Frc consts  --      1.2085                 3.0942                 1.5039
 IR Inten    --      4.5350                65.2378                28.9298

                     19                     20                     21
                      A                      A                      A
 Frequencies --   1472.6417              1492.8360              1527.9146
 Red. masses --      1.1815                 1.0486                 1.0689
 Frc consts  --      1.5096                 1.3769                 1.4703
 IR Inten    --      0.2444                14.3694                 8.1147

                     22                     23                     24
                      A                      A                      A
 Frequencies --   1674.5632              1743.0658              2980.0437
 Red. masses --      1.3219                 3.5357                 1.0530
 Frc consts  --      2.1840                 6.3292                 5.5097
 IR Inten    --     21.4953               230.8134                81.2978

                     25                     26                     27
                      A                      A                      A
 Frequencies --   3069.4552              3117.5150              3130.5488
 Red. masses --      1.0851                 1.0910                 1.0976
 Frc consts  --      6.0234                 6.2473                 6.3378
 IR Inten    --     39.7374                15.5168                35.4043

                     28                     29                     30
                      A                      A                      A
 Frequencies --   3424.3351              3439.2687              3544.0433
 Red. masses --      1.0520                 1.0712                 1.0904
 Frc consts  --      7.2683                 7.4654                 8.0695
 IR Inten    --      7.0587                 0.9501                 0.7580

 - Thermochemistry -
 -------------------
 Temperature   298.150 Kelvin.  Pressure   1.00000 Atm.
 Atom     1 has atomic number  6 and mass  12.00000

 Molecular mass:    73.06400 amu.
 Principal axes and moments of inertia in atomic units:
                           1         2         3
     Eigenvalues --   198.12658 434.01988 604.99114
           X            0.99949   0.03158  -0.00528
           Y           -0.03156   0.99950   0.00330
           Z            0.00538  -0.00313   0.99998
 This molecule is an asymmetric top.
 Rotational symmetry number  1.
 Rotational temperatures (Kelvin)      0.43716     0.19956     0.14317
 Rotational constants (GHZ):           9.10903     4.15820     2.98309
 Zero-point vibrational energy     272292.5 (Joules/Mol)
                                   65.07946 (Kcal/Mol)
 Warning -- explicit consideration of   6 degrees of freedom as
           vibrations may cause significant error
 Vibrational temperatures:    178.85   337.16   412.35   465.16   516.16
          (Kelvin)            601.33   912.80  1200.14  1248.19  1331.65
                             1539.61  1572.46  1651.80  1722.18  1825.58
                             1898.11  1972.83  2062.20  2118.80  2147.86
                             2198.33  2409.32  2507.88  4287.61  4416.26
                             4485.40  4504.16  4926.85  4948.33  5099.08

 Zero-point correction=                           0.103711 (Hartree/Particle)
 Thermal correction to Energy=                    0.109684
 Thermal correction to Enthalpy=                  0.110628
 Thermal correction to Gibbs Free Energy=         0.074919
 Sum of electronic and zero-point Energies=           -244.535713
 Sum of electronic and thermal Energies=              -244.529740
 Sum of electronic and thermal Enthalpies=            -244.528796
 Sum of electronic and thermal Free Energies=         -244.564505

                     E (Thermal)             CV                S
                      KCal/Mol        Cal/Mol-Kelvin    Cal/Mol-Kelvin
 Total                   68.828             20.417             75.156
 Electronic               0.000              0.000              0.000
 Translational            0.889              2.981             38.783
 Rotational               0.889              2.981             25.456
 Vibrational             67.050             14.455             10.917
 Vibration     1          0.610              1.929              3.032
 Vibration     2          0.654              1.788              1.845
 Vibration     3          0.684              1.699              1.494
 Vibration     4          0.708              1.629              1.293
 Vibration     5          0.734              1.557              1.128
 Vibration     6          0.781              1.431              0.899

 Optimization completed.
    -- Stationary point found.
 Normal termination of Gaussian 09 at Fri Sep 10 15:22:58 2021.
