 Gaussian 09, Revision E.01,
 Gaussian 09:  ES64L-G09RevE.01 30-Nov-2015

 -------------------------
 #P OPT Freq B3LYP/6-31G**
 -------------------------

 --------
 Frag_287
 --------
 Symbolic Z-matrix:
 Charge =  0 Multiplicity = 1

 SCF Done:  E(RB3LYP) =  -317.365718050     A.U. after   17 cycles
 SCF Done:  E(RB3LYP) =  -317.380458881     A.U. after   14 cycles
 SCF Done:  E(RB3LYP) =  -317.383090136     A.U. after   13 cycles
 SCF Done:  E(RB3LYP) =  -317.383779294     A.U. after   12 cycles
 SCF Done:  E(RB3LYP) =  -317.383805469     A.U. after   10 cycles
 SCF Done:  E(RB3LYP) =  -317.383810028     A.U. after    9 cycles
 Optimization completed.
    -- Stationary point found.
 Normal termination of Gaussian 09 at Sat Aug 21 01:33:04 2021.

 ----------------------------------------------------------------------
 #P Geom=AllCheck Guess=TCheck SCRF=Check GenChk RB3LYP/6-31G(d,p) Freq
 ----------------------------------------------------------------------

 Structure from the checkpoint file:  "/public/home/users/caep010/.cache/gau_scr/Gau-96500.chk"
 --------
 Frag_287
 --------
 Charge =  0 Multiplicity = 1

                         Standard orientation:
 ---------------------------------------------------------------------
 Center     Atomic      Atomic             Coordinates (Angstroms)
 Number     Number       Type             X           Y           Z
 ---------------------------------------------------------------------
      1          8           0        1.987691    0.030036   -0.000003
      2          7           0        0.733938    0.094113   -0.000000
      3          6           0       -0.135286    1.135653    0.000002
      4          6           0       -1.419111    0.573602   -0.000003
      5          7           0       -1.365166   -0.757579   -0.000004
      6          7           0       -0.055524   -1.020918    0.000013
      7          1           0        0.231740    2.147053    0.000007
      8          1           0       -2.370743    1.084268   -0.000001
      9          1           0        0.371116   -1.936452   -0.000030
 ---------------------------------------------------------------------

 SCF Done:  E(RB3LYP) =  -317.383810028     A.U. after    1 cycles

 The electronic state is 1-A.
 Alpha  occ. eigenvalues --  -19.13992 -14.52227 -14.45649 -14.38632 -10.24063
 Alpha  occ. eigenvalues --  -10.23926  -1.17022  -1.05455  -0.86505  -0.85597
 Alpha  occ. eigenvalues --   -0.66603  -0.65935  -0.56147  -0.52159  -0.49556
 Alpha  occ. eigenvalues --   -0.47670  -0.45402  -0.38837  -0.34168  -0.29712
 Alpha  occ. eigenvalues --   -0.26875  -0.22621
 Alpha virt. eigenvalues --   -0.02613   0.03422   0.06621   0.12324   0.13581
 Alpha virt. eigenvalues --    0.17117   0.18066   0.19615   0.29062   0.36313
 Alpha virt. eigenvalues --    0.38425   0.50711   0.52425   0.56598   0.58027

 Mulliken charges:
               1
     1  O   -0.537076
     2  N    0.200523
     3  C    0.083063
     4  C    0.054903
     5  N   -0.273597
     6  N   -0.110104
     7  H    0.144326
     8  H    0.128213
     9  H    0.309749
 Sum of Mulliken charges =   0.00000

 Dipole moment (field-independent basis, Debye):
    X=             -1.7049    Y=              0.3025    Z=             -0.0000  Tot=              1.7315
 Quadrupole moment (field-independent basis, Debye-Ang):
   XX=            -40.7422   YY=            -26.5019   ZZ=            -34.6259
   XY=             -4.3690   XZ=             -0.0000   YZ=              0.0001

  Exact polarizability:  59.334  -1.965  45.728  -0.000   0.000  17.809
 Approx polarizability: 120.900   1.143  79.469  -0.000  -0.000  26.730

                      1                      2                      3
                      A                      A                      A
 Frequencies --    186.1443               380.8759               474.9871
 Red. masses --      2.6355                 2.1248                 6.0761
 Frc consts  --      0.0538                 0.1816                 0.8077
 IR Inten    --     32.7831                55.6908                11.7449

                      4                      5                      6
                      A                      A                      A
 Frequencies --    667.9848               677.4105               742.1871
 Red. masses --      3.5386                 3.2991                 7.1055
 Frc consts  --      0.9303                 0.8920                 2.3061
 IR Inten    --     17.1330                 1.8093                21.3010

                      7                      8                      9
                      A                      A                      A
 Frequencies --    756.4414               872.4333               921.1396
 Red. masses --      1.3759                 1.2674                 5.7887
 Frc consts  --      0.4638                 0.5684                 2.8939
 IR Inten    --     62.9679                10.5797                50.8083

                     10                     11                     12
                      A                      A                      A
 Frequencies --   1034.2318              1082.5605              1147.4949
 Red. masses --      2.8905                 1.3949                 4.0310
 Frc consts  --      1.8216                 0.9632                 3.1273
 IR Inten    --      3.7138                 3.6442                24.1332

                     13                     14                     15
                      A                      A                      A
 Frequencies --   1244.4308              1266.9583              1364.4782
 Red. masses --      4.1587                 1.8700                 2.1120
 Frc consts  --      3.7945                 1.7686                 2.3167
 IR Inten    --     23.0615                 3.8254                23.8223

                     16                     17                     18
                      A                      A                      A
 Frequencies --   1421.5080              1513.4464              1610.9344
 Red. masses --      3.9325                 4.1895                 4.9457
 Frc consts  --      4.6818                 5.6539                 7.5619
 IR Inten    --      2.4141                44.8562               240.5067

                     19                     20                     21
                      A                      A                      A
 Frequencies --   3277.8950              3328.4431              3664.4263
 Red. masses --      1.0966                 1.1005                 1.0827
 Frc consts  --      6.9424                 7.1832                 8.5662
 IR Inten    --      0.9672                 5.0140               121.9348

 - Thermochemistry -
 -------------------
 Temperature   298.150 Kelvin.  Pressure   1.00000 Atm.
 Atom     1 has atomic number  8 and mass  15.99491

 Molecular mass:    85.02761 amu.
 Principal axes and moments of inertia in atomic units:
                           1         2         3
     Eigenvalues --   184.55758 454.20243 638.76001
           X            0.99931  -0.03710  -0.00000
           Y            0.03710   0.99931   0.00000
           Z            0.00000  -0.00000   1.00000
 This molecule is an asymmetric top.
 Rotational symmetry number  1.
 Rotational temperatures (Kelvin)      0.46931     0.19069     0.13560
 Rotational constants (GHZ):           9.77874     3.97343     2.82538
 Zero-point vibrational energy     165302.4 (Joules/Mol)
                                   39.50823 (Kcal/Mol)
 Warning -- explicit consideration of   3 degrees of freedom as
           vibrations may cause significant error
 Vibrational temperatures:    267.82   547.99   683.40   961.08   974.64
          (Kelvin)           1067.84  1088.35  1255.24  1325.31  1488.03
                             1557.56  1650.99  1790.46  1822.87  1963.18
                             2045.23  2177.51  2317.77  4716.15  4788.88
                             5272.29

 Zero-point correction=                           0.062960 (Hartree/Particle)
 Thermal correction to Energy=                    0.067624
 Thermal correction to Enthalpy=                  0.068568
 Thermal correction to Gibbs Free Energy=         0.035054
 Sum of electronic and zero-point Energies=           -317.320850
 Sum of electronic and thermal Energies=              -317.316186
 Sum of electronic and thermal Enthalpies=            -317.315242
 Sum of electronic and thermal Free Energies=         -317.348756

                     E (Thermal)             CV                S
                      KCal/Mol        Cal/Mol-Kelvin    Cal/Mol-Kelvin
 Total                   42.435             16.449             70.536
 Electronic               0.000              0.000              0.000
 Translational            0.889              2.981             39.235
 Rotational               0.889              2.981             25.485
 Vibrational             40.657             10.487              5.817
 Vibration     1          0.632              1.859              2.266
 Vibration     2          0.751              1.511              1.036
 Vibration     3          0.832              1.306              0.724

 Optimization completed.
    -- Stationary point found.
 Normal termination of Gaussian 09 at Sat Aug 21 01:33:12 2021.
