 Gaussian 09, Revision E.01,
 Gaussian 09:  ES64L-G09RevE.01 30-Nov-2015

 --------------------------------
 #P OPT=calcfc Freq B3LYP/6-31G**
 --------------------------------

 --------
 Frag_343
 --------
 Symbolic Z-matrix:
 Charge =  0 Multiplicity = 1

 SCF Done:  E(RB3LYP) =  -287.771898691     A.U. after   13 cycles
 SCF Done:  E(RB3LYP) =  -287.793526565     A.U. after   13 cycles
 SCF Done:  E(RB3LYP) =  -287.794409760     A.U. after   12 cycles
 SCF Done:  E(RB3LYP) =  -287.794886693     A.U. after   11 cycles
 SCF Done:  E(RB3LYP) =  -287.795080657     A.U. after   13 cycles
 SCF Done:  E(RB3LYP) =  -287.796104765     A.U. after   14 cycles
 SCF Done:  E(RB3LYP) =  -287.791444625     A.U. after   12 cycles
 SCF Done:  E(RB3LYP) =  -287.796551401     A.U. after   10 cycles
 SCF Done:  E(RB3LYP) =  -287.797011713     A.U. after   13 cycles
 SCF Done:  E(RB3LYP) =  -287.777598485     A.U. after   13 cycles
 SCF Done:  E(RB3LYP) =  -287.797083213     A.U. after    8 cycles
 SCF Done:  E(RB3LYP) =  -287.797597412     A.U. after   10 cycles
 SCF Done:  E(RB3LYP) =  -287.797606868     A.U. after    9 cycles
 SCF Done:  E(RB3LYP) =  -287.797609333     A.U. after   10 cycles
 SCF Done:  E(RB3LYP) =  -287.797613053     A.U. after    8 cycles
 SCF Done:  E(RB3LYP) =  -287.797615414     A.U. after    8 cycles
 SCF Done:  E(RB3LYP) =  -287.797616336     A.U. after    7 cycles
 SCF Done:  E(RB3LYP) =  -287.797616593     A.U. after    7 cycles
 SCF Done:  E(RB3LYP) =  -287.797616693     A.U. after    7 cycles
 Optimization completed.
    -- Stationary point found.
 Normal termination of Gaussian 09 at Fri Sep 10 17:41:14 2021.

 ----------------------------------------------------------------------
 #P Geom=AllCheck Guess=TCheck SCRF=Check GenChk RB3LYP/6-31G(d,p) Freq
 ----------------------------------------------------------------------

 Structure from the checkpoint file:  "/public/home/users/caep010/.cache/gau_scr/Gau-113327.chk"
 --------
 Frag_343
 --------
 Charge =  0 Multiplicity = 1

                         Standard orientation:
 ---------------------------------------------------------------------
 Center     Atomic      Atomic             Coordinates (Angstroms)
 Number     Number       Type             X           Y           Z
 ---------------------------------------------------------------------
      1          6           0       -1.447677    1.176502   -0.257114
      2          6           0       -0.751512    0.059714    0.036651
      3          8           0       -1.356148   -1.156614    0.239333
      4          7           0        0.619010   -0.035047    0.230804
      5          6           0        1.315392   -1.214163   -0.277567
      6          6           0        1.383389    1.195686    0.162645
      7          1           0       -2.531519    1.167167   -0.233285
      8          1           0       -0.963936    2.111707   -0.494989
      9          1           0       -2.271739   -1.076552   -0.055458
     10          1           0        0.703085   -2.100047   -0.121416
     11          1           0        2.255246   -1.337538    0.269234
     12          1           0        1.550753   -1.132138   -1.351860
     13          1           0        0.920180    1.953537    0.798999
     14          1           0        1.461408    1.601384   -0.860289
     15          1           0        2.395091    1.004286    0.531079
 ---------------------------------------------------------------------

 SCF Done:  E(RB3LYP) =  -287.797616693     A.U. after    1 cycles

 The electronic state is 1-A.
 Alpha  occ. eigenvalues --  -19.17009 -14.34476 -10.26383 -10.20901 -10.20627
 Alpha  occ. eigenvalues --  -10.14671  -1.05740  -0.92828  -0.73696  -0.71111
 Alpha  occ. eigenvalues --   -0.65785  -0.57231  -0.50403  -0.48180  -0.46114
 Alpha  occ. eigenvalues --   -0.43418  -0.40573  -0.39225  -0.38816  -0.38264
 Alpha  occ. eigenvalues --   -0.37313  -0.34740  -0.25409  -0.18859
 Alpha virt. eigenvalues --    0.06292   0.07602   0.10689   0.13682   0.14191
 Alpha virt. eigenvalues --    0.15438   0.17439   0.17790   0.18661   0.19689
 Alpha virt. eigenvalues --    0.20199   0.24190   0.28838   0.35080   0.38309

 Mulliken charges:
               1
     1  C   -0.371904
     2  C    0.552570
     3  O   -0.547714
     4  N   -0.448439
     5  C   -0.175877
     6  C   -0.165326
     7  H    0.066836
     8  H    0.086980
     9  H    0.319559
    10  H    0.145276
    11  H    0.108139
    12  H    0.096267
    13  H    0.126363
    14  H    0.099633
    15  H    0.107637
 Sum of Mulliken charges =  -0.00000

 Dipole moment (field-independent basis, Debye):
    X=              0.3310    Y=             -0.0998    Z=             -0.7257  Tot=              0.8038
 Quadrupole moment (field-independent basis, Debye-Ang):
   XX=            -31.1018   YY=            -37.0867   ZZ=            -40.0406
   XY=              1.9205   XZ=              0.7219   YZ=              1.0719

  Exact polarizability:  66.627  -6.132  59.743   1.595  -2.299  35.748
 Approx polarizability:  87.651 -11.682  86.769   4.170  -6.679  51.429

                      1                      2                      3
                      A                      A                      A
 Frequencies --     88.5042               164.1882               223.8589
 Red. masses --      3.2030                 1.2927                 1.5760
 Frc consts  --      0.0148                 0.0205                 0.0465
 IR Inten    --      1.8176                 2.1293                 5.3606

                      4                      5                      6
                      A                      A                      A
 Frequencies --    251.6843               325.8919               353.2199
 Red. masses --      1.3924                 2.5045                 1.0489
 Frc consts  --      0.0520                 0.1567                 0.0771
 IR Inten    --      4.5318                 2.0769               107.1871

                      7                      8                      9
                      A                      A                      A
 Frequencies --    414.5092               496.0995               543.2229
 Red. masses --      2.2354                 2.3501                 4.4637
 Frc consts  --      0.2263                 0.3408                 0.7761
 IR Inten    --      4.0599                 8.4265                14.1748

                     10                     11                     12
                      A                      A                      A
 Frequencies --    664.3165               674.3837               702.9484
 Red. masses --      1.2853                 1.6902                 2.1371
 Frc consts  --      0.3342                 0.4529                 0.6222
 IR Inten    --     16.2332                 4.1026                73.9995

                     13                     14                     15
                      A                      A                      A
 Frequencies --    776.4045               973.4688              1032.3488
 Red. masses --      3.4332                 2.0279                 1.9277
 Frc consts  --      1.2193                 1.1323                 1.2104
 IR Inten    --      5.4521                19.6579                40.3685

                     16                     17                     18
                      A                      A                      A
 Frequencies --   1086.6042              1130.5719              1168.0153
 Red. masses --      1.4393                 1.2422                 1.5221
 Frc consts  --      1.0012                 0.9355                 1.2235
 IR Inten    --      8.7656                 7.3413               130.4534

                     19                     20                     21
                      A                      A                      A
 Frequencies --   1185.6311              1275.2688              1309.2444
 Red. masses --      1.5567                 3.5621                 1.7214
 Frc consts  --      1.2893                 3.4131                 1.7385
 IR Inten    --     64.1807                30.3568                18.0455

                     22                     23                     24
                      A                      A                      A
 Frequencies --   1417.7673              1452.3145              1459.7462
 Red. masses --      2.1879                 1.2451                 1.1972
 Frc consts  --      2.5911                 1.5474                 1.5031
 IR Inten    --     93.6309                12.4630                13.8767

                     25                     26                     27
                      A                      A                      A
 Frequencies --   1495.3989              1500.1147              1512.5652
 Red. masses --      1.1841                 1.0766                 1.0710
 Frc consts  --      1.5601                 1.4274                 1.4437
 IR Inten    --     12.7678                 8.8448                15.3722

                     28                     29                     30
                      A                      A                      A
 Frequencies --   1519.5160              1543.8631              1714.1132
 Red. masses --      1.0576                 1.1909                 5.5088
 Frc consts  --      1.4387                 1.6725                 9.5364
 IR Inten    --     13.0751                31.5038               296.5737

                     31                     32                     33
                      A                      A                      A
 Frequencies --   2972.6361              2980.1944              3086.4331
 Red. masses --      1.0563                 1.0594                 1.0780
 Frc consts  --      5.4992                 5.5436                 6.0503
 IR Inten    --     40.6054               116.4837                15.7537

                     34                     35                     36
                      A                      A                      A
 Frequencies --   3088.4845              3134.7282              3182.1602
 Red. masses --      1.0817                 1.1037                 1.0961
 Frc consts  --      6.0790                 6.3900                 6.5396
 IR Inten    --     56.2423                17.5221                 5.6487

                     37                     38                     39
                      A                      A                      A
 Frequencies --   3187.2947              3288.8452              3844.8624
 Red. masses --      1.0643                 1.1116                 1.0657
 Frc consts  --      6.3704                 7.0838                 9.2818
 IR Inten    --      3.5286                 9.6882                37.3238

 - Thermochemistry -
 -------------------
 Temperature   298.150 Kelvin.  Pressure   1.00000 Atm.
 Atom     1 has atomic number  6 and mass  12.00000

 Molecular mass:    87.06841 amu.
 Principal axes and moments of inertia in atomic units:
                           1         2         3
     Eigenvalues --   365.58541 526.44185 837.84011
           X            0.99887  -0.04757   0.00215
           Y            0.04755   0.99882   0.00955
           Z           -0.00260  -0.00944   0.99995
 This molecule is an asymmetric top.
 Rotational symmetry number  1.
 Rotational temperatures (Kelvin)      0.23692     0.16453     0.10338
 Rotational constants (GHZ):           4.93658     3.42819     2.15404
 Zero-point vibrational energy     342260.1 (Joules/Mol)
                                   81.80213 (Kcal/Mol)
 Warning -- explicit consideration of   9 degrees of freedom as
           vibrations may cause significant error
 Vibrational temperatures:    127.34   236.23   322.08   362.12   468.89
          (Kelvin)            508.20   596.39   713.78   781.58   955.80
                              970.29  1011.38  1117.07  1400.60  1485.32
                             1563.38  1626.64  1680.51  1705.86  1834.83
                             1883.71  2039.85  2089.55  2100.25  2151.54
                             2158.33  2176.24  2186.24  2221.27  2466.22
                             4276.96  4287.83  4440.68  4443.63  4510.17
                             4578.41  4585.80  4731.91  5531.89

 Zero-point correction=                           0.130360 (Hartree/Particle)
 Thermal correction to Energy=                    0.137714
 Thermal correction to Enthalpy=                  0.138658
 Thermal correction to Gibbs Free Energy=         0.099662
 Sum of electronic and zero-point Energies=           -287.667257
 Sum of electronic and thermal Energies=              -287.659903
 Sum of electronic and thermal Enthalpies=            -287.658959
 Sum of electronic and thermal Free Energies=         -287.697955

                     E (Thermal)             CV                S
                      KCal/Mol        Cal/Mol-Kelvin    Cal/Mol-Kelvin
 Total                   86.417             26.415             82.075
 Electronic               0.000              0.000              0.000
 Translational            0.889              2.981             39.305
 Rotational               0.889              2.981             26.580
 Vibrational             84.639             20.454             16.189
 Vibration     1          0.601              1.957              3.693
 Vibration     2          0.623              1.886              2.501
 Vibration     3          0.649              1.805              1.928
 Vibration     4          0.664              1.760              1.719
 Vibration     5          0.710              1.624              1.280
 Vibration     6          0.729              1.569              1.152
 Vibration     7          0.778              1.439              0.911
 Vibration     8          0.852              1.259              0.668
 Vibration     9          0.898              1.155              0.558

 Optimization completed.
    -- Stationary point found.
 Normal termination of Gaussian 09 at Fri Sep 10 17:41:26 2021.
