 Gaussian 09, Revision E.01,
 Gaussian 09:  ES64L-G09RevE.01 30-Nov-2015

 ----------------------------
 #P OPT Freq B3LYP/6-31G(d,p)
 ----------------------------

 --------
 Frag_440
 --------
 Symbolic Z-matrix:
 Charge =  0 Multiplicity = 1

 SCF Done:  E(RB3LYP) =  -287.855780697     A.U. after   14 cycles
 SCF Done:  E(RB3LYP) =  -287.855866747     A.U. after   11 cycles
 SCF Done:  E(RB3LYP) =  -287.855871666     A.U. after    8 cycles
 SCF Done:  E(RB3LYP) =  -287.855871096     A.U. after    9 cycles
 SCF Done:  E(RB3LYP) =  -287.855873639     A.U. after    8 cycles
 SCF Done:  E(RB3LYP) =  -287.855874284     A.U. after    8 cycles
 SCF Done:  E(RB3LYP) =  -287.855874970     A.U. after    8 cycles
 SCF Done:  E(RB3LYP) =  -287.855875044     A.U. after    7 cycles
 Optimization completed.
    -- Stationary point found.
 Normal termination of Gaussian 09 at Thu Sep  8 15:13:37 2022.

 ----------------------------------------------------------------------
 #P Geom=AllCheck Guess=TCheck SCRF=Check GenChk RB3LYP/6-31G(d,p) Freq
 ----------------------------------------------------------------------

 Structure from the checkpoint file:  "B3LYP6-31Gdp.Frag_440.chk"
 --------
 Frag_440
 --------
 Charge =  0 Multiplicity = 1

                         Standard orientation:
 ---------------------------------------------------------------------
 Center     Atomic      Atomic             Coordinates (Angstroms)
 Number     Number       Type             X           Y           Z
 ---------------------------------------------------------------------
      1          6           0        1.353080   -1.224270    0.387701
      2          6           0        0.671619   -0.078234   -0.378571
      3          6           0        1.363730    1.267932   -0.127548
      4          6           0       -0.840453   -0.121610   -0.095533
      5          7           0       -1.440269    1.042572    0.294241
      6          8           0       -1.479030   -1.156867   -0.232870
      7          1           0        2.396838   -1.330347    0.075816
      8          1           0        0.828851   -2.163120    0.201556
      9          1           0        1.341435   -1.034054    1.467167
     10          1           0        0.746677   -0.307122   -1.450512
     11          1           0        2.422243    1.203372   -0.397274
     12          1           0        0.928075    2.075410   -0.726334
     13          1           0        1.319270    1.553305    0.930550
     14          1           0       -0.931312    1.889323    0.480306
     15          1           0       -2.425809    1.007261    0.505706
 ---------------------------------------------------------------------

 SCF Done:  E(RB3LYP) =  -287.855875044     A.U. after    1 cycles

 The electronic state is 1-A.
 Alpha  occ. eigenvalues --  -19.10106 -14.35410 -10.28071 -10.19997 -10.18941
 Alpha  occ. eigenvalues --  -10.17455  -1.02153  -0.89808  -0.79611  -0.68996
 Alpha  occ. eigenvalues --   -0.63543  -0.56703  -0.53794  -0.46852  -0.45439
 Alpha  occ. eigenvalues --   -0.41879  -0.40239  -0.39461  -0.38469  -0.35778
 Alpha  occ. eigenvalues --   -0.34256  -0.33488  -0.26107  -0.23930
 Alpha virt. eigenvalues --    0.03417   0.07012   0.11625   0.13097   0.13984
 Alpha virt. eigenvalues --    0.14375   0.15824   0.17554   0.18866   0.19663
 Alpha virt. eigenvalues --    0.22604   0.24212   0.26528   0.32945   0.39268

 Mulliken charges:
               1
     1  C   -0.311834
     2  C   -0.125787
     3  C   -0.342315
     4  C    0.582467
     5  N   -0.617941
     6  O   -0.516247
     7  H    0.097332
     8  H    0.139021
     9  H    0.102246
    10  H    0.126438
    11  H    0.114222
    12  H    0.104195
    13  H    0.106030
    14  H    0.267069
    15  H    0.275104
 Sum of Mulliken charges =  -0.00000

 Dipole moment (field-independent basis, Debye):
    X=              1.2732    Y=              3.2849    Z=              0.7070  Tot=              3.5932
 Quadrupole moment (field-independent basis, Debye-Ang):
   XX=            -36.7933   YY=            -37.3071   ZZ=            -37.0713
   XY=             -5.6090   XZ=             -2.2919   YZ=              0.6683

  Exact polarizability:  56.210  -0.726  57.105  -1.566   2.432  40.293
 Approx polarizability:  72.532   2.911  84.749  -1.784   6.308  58.443

                      1                      2                      3
                      A                      A                      A
 Frequencies --     31.4622               168.6583               240.3360
 Red. masses --      4.2423                 1.2327                 1.1591
 Frc consts  --      0.0025                 0.0207                 0.0394
 IR Inten    --      3.1577               180.0411                 0.0068

                      4                      5                      6
                      A                      A                      A
 Frequencies --    272.9677               284.5914               335.5424
 Red. masses --      2.0542                 1.2924                 1.8870
 Frc consts  --      0.0902                 0.0617                 0.1252
 IR Inten    --      9.6134                15.6008                 1.1546

                      7                      8                      9
                      A                      A                      A
 Frequencies --    360.1271               486.0645               524.5767
 Red. masses --      2.2248                 2.7492                 3.5500
 Frc consts  --      0.1700                 0.3827                 0.5756
 IR Inten    --      3.6388                 5.3649                 9.8589

                     10                     11                     12
                      A                      A                      A
 Frequencies --    595.8537               727.7809               771.5044
 Red. masses --      1.2150                 3.0790                 2.6867
 Frc consts  --      0.2542                 0.9609                 0.9422
 IR Inten    --     12.1369                 8.9286                 8.9898

                     13                     14                     15
                      A                      A                      A
 Frequencies --    909.4177               936.2690               973.8230
 Red. masses --      2.2314                 1.1614                 1.4066
 Frc consts  --      1.0873                 0.5999                 0.7859
 IR Inten    --      3.4197                 0.6795                 0.6667

                     16                     17                     18
                      A                      A                      A
 Frequencies --   1076.9882              1117.5500              1148.4496
 Red. masses --      1.8697                 1.5470                 2.2639
 Frc consts  --      1.2777                 1.1384                 1.7592
 IR Inten    --      5.2248                10.4601                 2.5669

                     19                     20                     21
                      A                      A                      A
 Frequencies --   1195.6030              1324.9418              1343.3340
 Red. masses --      1.8570                 1.4170                 1.5190
 Frc consts  --      1.5640                 1.4656                 1.6150
 IR Inten    --      7.5757                14.7835                24.1484

                     22                     23                     24
                      A                      A                      A
 Frequencies --   1367.0592              1407.3309              1432.5934
 Red. masses --      2.7965                 1.2392                 1.2696
 Frc consts  --      3.0793                 1.4460                 1.5352
 IR Inten    --     77.8046                 6.2733                11.1644

                     25                     26                     27
                      A                      A                      A
 Frequencies --   1506.4624              1510.7271              1521.4639
 Red. masses --      1.0507                 1.0499                 1.0447
 Frc consts  --      1.4049                 1.4118                 1.4248
 IR Inten    --      3.6999                 1.6526                 4.0381

                     28                     29                     30
                      A                      A                      A
 Frequencies --   1533.0159              1622.6022              1790.5655
 Red. masses --      1.0614                 1.2743                 9.1549
 Frc consts  --      1.4697                 1.9767                17.2935
 IR Inten    --     22.0325               119.7487               274.1002

                     31                     32                     33
                      A                      A                      A
 Frequencies --   3033.1279              3035.3785              3046.3542
 Red. masses --      1.0574                 1.0602                 1.0400
 Frc consts  --      5.7313                 5.7555                 5.6863
 IR Inten    --      7.5304                18.7104                29.9672

                     34                     35                     36
                      A                      A                      A
 Frequencies --   3101.8968              3110.8840              3114.9910
 Red. masses --      1.1021                 1.1019                 1.1003
 Frc consts  --      6.2478                 6.2827                 6.2902
 IR Inten    --     25.1835                19.3735                47.9126

                     37                     38                     39
                      A                      A                      A
 Frequencies --   3154.1023              3612.7561              3755.4997
 Red. masses --      1.1005                 1.0454                 1.1043
 Frc consts  --      6.4505                 8.0388                 9.1760
 IR Inten    --      9.9261                27.1321                38.2101

 - Thermochemistry -
 -------------------
 Temperature   298.150 Kelvin.  Pressure   1.00000 Atm.
 Atom     1 has atomic number  6 and mass  12.00000

 Molecular mass:    87.06841 amu.
 Principal axes and moments of inertia in atomic units:
                           1         2         3
     Eigenvalues --   380.70427 565.84695 858.87980
           X            0.99748  -0.07071  -0.00545
           Y            0.07066   0.99747  -0.00814
           Z            0.00601   0.00774   0.99995
 This molecule is an asymmetric top.
 Rotational symmetry number  1.
 Rotational temperatures (Kelvin)      0.22751     0.15307     0.10085
 Rotational constants (GHZ):           4.74053     3.18945     2.10127
 Zero-point vibrational energy     343822.6 (Joules/Mol)
                                   82.17558 (Kcal/Mol)
 Warning -- explicit consideration of  10 degrees of freedom as
           vibrations may cause significant error
 Vibrational temperatures:     45.27   242.66   345.79   392.74   409.46
          (Kelvin)            482.77   518.14   699.34   754.75   857.30
                             1047.11  1110.02  1308.45  1347.08  1401.11
                             1549.54  1607.90  1652.36  1720.20  1906.29
                             1932.76  1966.89  2024.83  2061.18  2167.46
                             2173.60  2189.04  2205.67  2334.56  2576.22
                             4363.99  4367.23  4383.02  4462.93  4475.86
                             4481.77  4538.04  5197.94  5403.32

 Zero-point correction=                           0.130955 (Hartree/Particle)
 Thermal correction to Energy=                    0.138481
 Thermal correction to Enthalpy=                  0.139425
 Thermal correction to Gibbs Free Energy=         0.099307
 Sum of electronic and zero-point Energies=           -287.724920
 Sum of electronic and thermal Energies=              -287.717394
 Sum of electronic and thermal Enthalpies=            -287.716450
 Sum of electronic and thermal Free Energies=         -287.756568

                     E (Thermal)             CV                S
                      KCal/Mol        Cal/Mol-Kelvin    Cal/Mol-Kelvin
 Total                   86.898             26.481             84.437
 Electronic               0.000              0.000              0.000
 Translational            0.889              2.981             39.305
 Rotational               0.889              2.981             26.717
 Vibrational             85.121             20.519             18.415
 Vibration     1          0.594              1.983              5.735
 Vibration     2          0.625              1.881              2.450
 Vibration     3          0.657              1.779              1.800
 Vibration     4          0.676              1.723              1.577
 Vibration     5          0.683              1.702              1.506
 Vibration     6          0.717              1.605              1.233
 Vibration     7          0.735              1.554              1.122
 Vibration     8          0.842              1.281              0.694
 Vibration     9          0.880              1.196              0.599
 Vibration    10          0.954              1.041              0.457

 Normal termination of Gaussian 09 at Thu Sep  8 15:13:49 2022.
