 Gaussian 09, Revision E.01,
 Gaussian 09:  ES64L-G09RevE.01 30-Nov-2015

 ----------------------------
 #P OPT Freq B3LYP/6-31G(d,p)
 ----------------------------

 --------
 Frag_533
 --------
 Symbolic Z-matrix:
 Charge =  0 Multiplicity = 1

 SCF Done:  E(RB3LYP) =  -151.111688820     A.U. after   13 cycles
 SCF Done:  E(RB3LYP) =  -151.111724433     A.U. after    9 cycles
 SCF Done:  E(RB3LYP) =  -151.111726584     A.U. after    8 cycles
 Optimization completed.
    -- Stationary point found.
 Normal termination of Gaussian 09 at Thu Sep  8 15:08:23 2022.

 ----------------------------------------------------------------------
 #P Geom=AllCheck Guess=TCheck SCRF=Check GenChk RB3LYP/6-31G(d,p) Freq
 ----------------------------------------------------------------------

 Structure from the checkpoint file:  "B3LYP6-31Gdp.Frag_533.chk"
 --------
 Frag_533
 --------
 Charge =  0 Multiplicity = 1

                         Standard orientation:
 ---------------------------------------------------------------------
 Center     Atomic      Atomic             Coordinates (Angstroms)
 Number     Number       Type             X           Y           Z
 ---------------------------------------------------------------------
      1          6           0        1.169968   -0.191915   -0.000000
      2          7           0        0.046902    0.699631   -0.000000
      3          7           0       -1.090503   -0.170737    0.000000
      4          1           0        2.082333    0.412552   -0.000003
      5          1           0        1.235466   -0.872839    0.889339
      6          1           0        1.235463   -0.872844   -0.889336
      7          1           0       -1.926852    0.414373    0.000004
      8          1           0       -1.170505   -0.816009    0.825272
      9          1           0       -1.170509   -0.816003   -0.825276
 ---------------------------------------------------------------------

 SCF Done:  E(RB3LYP) =  -151.111726584     A.U. after    1 cycles

 The electronic state is 1-A.
 Alpha  occ. eigenvalues --  -14.45528 -14.25308 -10.16858  -0.99527  -0.77218
 Alpha  occ. eigenvalues --   -0.61502  -0.55618  -0.54615  -0.43637  -0.36963
 Alpha  occ. eigenvalues --   -0.35250  -0.23089  -0.14154
 Alpha virt. eigenvalues --    0.02805   0.09713   0.10360   0.14296   0.18867
 Alpha virt. eigenvalues --    0.20197   0.20305   0.29114   0.55992   0.59014
 Alpha virt. eigenvalues --    0.62082   0.63757   0.66037   0.75936   0.78229

 Mulliken charges:
               1
     1  C   -0.140867
     2  N   -0.482459
     3  N   -0.365509
     4  H    0.107059
     5  H    0.028476
     6  H    0.028476
     7  H    0.318892
     8  H    0.252966
     9  H    0.252966
 Sum of Mulliken charges =  -0.00000

 Dipole moment (field-independent basis, Debye):
    X=             -3.6087    Y=             -2.7466    Z=              0.0000  Tot=              4.5350
 Quadrupole moment (field-independent basis, Debye-Ang):
   XX=            -13.7799   YY=            -22.4947   ZZ=            -20.6806
   XY=              1.1027   XZ=             -0.0000   YZ=              0.0000

  Exact polarizability:  38.405   3.071  29.956   0.000  -0.000  27.259
 Approx polarizability:  48.948   6.459  46.768   0.000   0.000  36.097

                      1                      2                      3
                      A                      A                      A
 Frequencies --    284.5861               356.8734               418.0269
 Red. masses --      1.1848                 1.0386                 1.9546
 Frc consts  --      0.0565                 0.0779                 0.2012
 IR Inten    --     17.9737                 0.2443                16.1293

                      4                      5                      6
                      A                      A                      A
 Frequencies --    766.3560              1054.6505              1082.0964
 Red. masses --      7.6923                 1.8205                 1.8832
 Frc consts  --      2.6618                 1.1931                 1.2992
 IR Inten    --     54.4338                34.5425                29.5936

                      7                      8                      9
                      A                      A                      A
 Frequencies --   1085.4560              1157.5358              1242.9089
 Red. masses --      1.1854                 1.4290                 1.9825
 Frc consts  --      0.8229                 1.1281                 1.8044
 IR Inten    --     31.5251                 2.0862                 1.4759

                     10                     11                     12
                      A                      A                      A
 Frequencies --   1449.9186              1464.3215              1493.7016
 Red. masses --      1.1638                 1.0478                 1.0896
 Frc consts  --      1.4415                 1.3237                 1.4324
 IR Inten    --     14.1854                 4.9528                 8.4123

                     13                     14                     15
                      A                      A                      A
 Frequencies --   1535.7932              1602.2253              1678.0646
 Red. masses --      1.1118                 1.0590                 1.0488
 Frc consts  --      1.5451                 1.6018                 1.7400
 IR Inten    --     33.1104                20.2926                40.0611

                     16                     17                     18
                      A                      A                      A
 Frequencies --   2743.9122              2771.8239              2918.7679
 Red. masses --      1.0950                 1.0432                 1.0955
 Frc consts  --      4.8575                 4.7224                 5.4985
 IR Inten    --    345.0961               178.5957                91.1525

                     19                     20                     21
                      A                      A                      A
 Frequencies --   3017.2305              3102.9443              3506.2457
 Red. masses --      1.0349                 1.0858                 1.0770
 Frc consts  --      5.5510                 6.1593                 7.8007
 IR Inten    --    258.6895                30.7424                27.7734

 - Thermochemistry -
 -------------------
 Temperature   298.150 Kelvin.  Pressure   1.00000 Atm.
 Atom     1 has atomic number  6 and mass  12.00000

 Molecular mass:    46.05310 amu.
 Principal axes and moments of inertia in atomic units:
                           1         2         3
     Eigenvalues --    49.11460 178.64459 206.56826
           X            0.99998  -0.00554   0.00000
           Y            0.00554   0.99998   0.00000
           Z           -0.00000  -0.00000   1.00000
 This molecule is an asymmetric top.
 Rotational symmetry number  1.
 Rotational temperatures (Kelvin)      1.76350     0.48484     0.41930
 Rotational constants (GHZ):          36.74551    10.10241     8.73678
 Zero-point vibrational energy     207752.1 (Joules/Mol)
                                   49.65394 (Kcal/Mol)
 Warning -- explicit consideration of   3 degrees of freedom as
           vibrations may cause significant error
 Vibrational temperatures:    409.46   513.46   601.45  1102.61  1517.41
          (Kelvin)           1556.89  1561.73  1665.43  1788.27  2086.11
                             2106.83  2149.10  2209.66  2305.24  2414.36
                             3947.87  3988.03  4199.45  4341.12  4464.44
                             5044.70

 Zero-point correction=                           0.079129 (Hartree/Particle)
 Thermal correction to Energy=                    0.083279
 Thermal correction to Enthalpy=                  0.084223
 Thermal correction to Gibbs Free Energy=         0.053976
 Sum of electronic and zero-point Energies=           -151.032598
 Sum of electronic and thermal Energies=              -151.028447
 Sum of electronic and thermal Enthalpies=            -151.027503
 Sum of electronic and thermal Free Energies=         -151.057750

                     E (Thermal)             CV                S
                      KCal/Mol        Cal/Mol-Kelvin    Cal/Mol-Kelvin
 Total                   52.258             13.096             63.660
 Electronic               0.000              0.000              0.000
 Translational            0.889              2.981             37.407
 Rotational               0.889              2.981             22.121
 Vibrational             50.481              7.135              4.133
 Vibration     1          0.683              1.702              1.506
 Vibration     2          0.732              1.561              1.136
 Vibration     3          0.781              1.431              0.899

 Optimization completed.
    -- Stationary point found.
 Normal termination of Gaussian 09 at Thu Sep  8 15:08:29 2022.
