 Gaussian 09, Revision E.01,
 Gaussian 09:  ES64L-G09RevE.01 30-Nov-2015

 --------------------------------
 #P OPT=calcfc Freq B3LYP/6-31G**
 --------------------------------

 --------
 Frag_334
 --------
 Symbolic Z-matrix:
 Charge =  0 Multiplicity = 1

 SCF Done:  E(RB3LYP) =  -209.103822721     A.U. after   15 cycles
 SCF Done:  E(RB3LYP) =  -209.115716665     A.U. after   13 cycles
 SCF Done:  E(RB3LYP) =  -209.117671416     A.U. after   14 cycles
 SCF Done:  E(RB3LYP) =  -209.118151649     A.U. after   12 cycles
 SCF Done:  E(RB3LYP) =  -209.118409133     A.U. after   12 cycles
 SCF Done:  E(RB3LYP) =  -209.118689695     A.U. after   12 cycles
 SCF Done:  E(RB3LYP) =  -209.118790541     A.U. after   11 cycles
 SCF Done:  E(RB3LYP) =  -209.118823200     A.U. after   10 cycles
 SCF Done:  E(RB3LYP) =  -209.118830840     A.U. after   10 cycles
 SCF Done:  E(RB3LYP) =  -209.118831427     A.U. after    9 cycles
 Optimization completed.
    -- Stationary point found.
 Normal termination of Gaussian 09 at Fri Sep 10 20:10:37 2021.

 ----------------------------------------------------------------------
 #P Geom=AllCheck Guess=TCheck SCRF=Check GenChk RB3LYP/6-31G(d,p) Freq
 ----------------------------------------------------------------------

 Structure from the checkpoint file:  "/public/home/users/caep010/.cache/gau_scr/Gau-84863.chk"
 --------
 Frag_334
 --------
 Charge =  0 Multiplicity = 1

                         Standard orientation:
 ---------------------------------------------------------------------
 Center     Atomic      Atomic             Coordinates (Angstroms)
 Number     Number       Type             X           Y           Z
 ---------------------------------------------------------------------
      1          6           0        1.098183    0.812211   -0.000007
      2          7           0        0.125931   -0.062557    0.000024
      3          6           0       -1.284916    0.398900   -0.000013
      4          8           0        0.266344   -1.321851    0.000002
      5          1           0        0.867883    1.866398    0.000030
      6          1           0        2.109711    0.433117   -0.000044
      7          1           0       -1.758916   -0.020100   -0.888192
      8          1           0       -1.351406    1.487069    0.000241
      9          1           0       -1.759143   -0.020450    0.887899
 ---------------------------------------------------------------------

 SCF Done:  E(RB3LYP) =  -209.118831427     A.U. after    1 cycles

 The electronic state is 1-A.
 Alpha  occ. eigenvalues --  -19.11542 -14.47920 -10.23481 -10.21925  -1.10133
 Alpha  occ. eigenvalues --   -0.85731  -0.74989  -0.59126  -0.51680  -0.48880
 Alpha  occ. eigenvalues --   -0.48801  -0.42285  -0.40352  -0.38524  -0.24054
 Alpha  occ. eigenvalues --   -0.22017
 Alpha virt. eigenvalues --   -0.01879   0.08638   0.12133   0.13417   0.15340
 Alpha virt. eigenvalues --    0.15846   0.18138   0.28021   0.30545   0.48483
 Alpha virt. eigenvalues --    0.49369   0.54004   0.60148   0.60336   0.62933

 Mulliken charges:
               1
     1  C   -0.105847
     2  N    0.111236
     3  C   -0.183300
     4  O   -0.497694
     5  H    0.112677
     6  H    0.135500
     7  H    0.155864
     8  H    0.115704
     9  H    0.155859
 Sum of Mulliken charges =  -0.00000

 Dipole moment (field-independent basis, Debye):
    X=             -1.1517    Y=              3.3083    Z=             -0.0000  Tot=              3.5031
 Quadrupole moment (field-independent basis, Debye-Ang):
   XX=            -20.7694   YY=            -26.7186   ZZ=            -24.5709
   XY=              0.7920   XZ=             -0.0001   YZ=              0.0001

  Exact polarizability:  39.171   5.992  42.416  -0.001   0.000  19.698
 Approx polarizability:  53.347  18.798  85.487  -0.001   0.000  26.997

                      1                      2                      3
                      A                      A                      A
 Frequencies --    170.3267               471.2009               523.0826
 Red. masses --      1.0743                 2.5063                 1.9791
 Frc consts  --      0.0184                 0.3279                 0.3191
 IR Inten    --      1.5846                 3.7292                 0.0041

                      4                      5                      6
                      A                      A                      A
 Frequencies --    554.8530               682.1990               778.0818
 Red. masses --      3.3593                 1.2175                 1.4464
 Frc consts  --      0.6093                 0.3338                 0.5159
 IR Inten    --     17.9000                18.1945                51.2635

                      7                      8                      9
                      A                      A                      A
 Frequencies --    866.5250              1085.0684              1134.8786
 Red. masses --      3.2305                 1.5889                 1.6936
 Frc consts  --      1.4292                 1.1022                 1.2851
 IR Inten    --      0.1327                 5.1611                42.0434

                     10                     11                     12
                      A                      A                      A
 Frequencies --   1150.2901              1368.2293              1434.7853
 Red. masses --      1.4212                 2.7684                 1.1755
 Frc consts  --      1.1079                 3.0535                 1.4258
 IR Inten    --      0.1470                33.6774                 1.2946

                     13                     14                     15
                      A                      A                      A
 Frequencies --   1474.3702              1481.5432              1508.9020
 Red. masses --      1.3868                 1.0441                 1.1162
 Frc consts  --      1.7761                 1.3502                 1.4974
 IR Inten    --     38.2154                 8.3527                 6.4706

                     16                     17                     18
                      A                      A                      A
 Frequencies --   1667.1119              3080.6944              3175.8959
 Red. masses --      5.3713                 1.0302                 1.1058
 Frc consts  --      8.7955                 5.7605                 6.5712
 IR Inten    --    127.5737                10.9130                 4.6850

                     19                     20                     21
                      A                      A                      A
 Frequencies --   3180.5369              3208.2526              3335.7047
 Red. masses --      1.1074                 1.0522                 1.1256
 Frc consts  --      6.6004                 6.3807                 7.3792
 IR Inten    --      9.7936                 1.2341                 0.9702

 - Thermochemistry -
 -------------------
 Temperature   298.150 Kelvin.  Pressure   1.00000 Atm.
 Atom     1 has atomic number  6 and mass  12.00000

 Molecular mass:    59.03711 amu.
 Principal axes and moments of inertia in atomic units:
                           1         2         3
     Eigenvalues --   160.95863 180.46016 330.06572
           X            0.99625   0.08656  -0.00000
           Y           -0.08656   0.99625   0.00000
           Z            0.00000  -0.00000   1.00000
 This molecule is an asymmetric top.
 Rotational symmetry number  1.
 Rotational temperatures (Kelvin)      0.53811     0.47996     0.26241
 Rotational constants (GHZ):          11.21245    10.00077     5.46782
 Zero-point vibrational energy     193391.5 (Joules/Mol)
                                   46.22168 (Kcal/Mol)
 Warning -- explicit consideration of   4 degrees of freedom as
           vibrations may cause significant error
 Vibrational temperatures:    245.06   677.95   752.60   798.31   981.53
          (Kelvin)           1119.48  1246.73  1561.17  1632.84  1655.01
                             1968.57  2064.33  2121.29  2131.61  2170.97
                             2398.60  4432.43  4569.40  4576.08  4615.95
                             4799.33

 Zero-point correction=                           0.073659 (Hartree/Particle)
 Thermal correction to Energy=                    0.078108
 Thermal correction to Enthalpy=                  0.079053
 Thermal correction to Gibbs Free Energy=         0.047129
 Sum of electronic and zero-point Energies=           -209.045172
 Sum of electronic and thermal Energies=              -209.040723
 Sum of electronic and thermal Enthalpies=            -209.039779
 Sum of electronic and thermal Free Energies=         -209.071703

                     E (Thermal)             CV                S
                      KCal/Mol        Cal/Mol-Kelvin    Cal/Mol-Kelvin
 Total                   49.014             14.853             67.190
 Electronic               0.000              0.000              0.000
 Translational            0.889              2.981             38.147
 Rotational               0.889              2.981             23.776
 Vibrational             47.236              8.892              5.266
 Vibration     1          0.625              1.879              2.432
 Vibration     2          0.828              1.314              0.734
 Vibration     3          0.878              1.199              0.603
 Vibration     4          0.910              1.129              0.534

 Optimization completed.
    -- Stationary point found.
 Normal termination of Gaussian 09 at Fri Sep 10 20:10:44 2021.
