 Gaussian 09, Revision E.01,
 Gaussian 09:  ES64L-G09RevE.01 30-Nov-2015

 ----------------------------
 #P OPT Freq B3LYP/6-31G(d,p)
 ----------------------------

 --------
 Frag_917
 --------
 Symbolic Z-matrix:
 Charge =  0 Multiplicity = 1

 SCF Done:  E(RB3LYP) =  -249.669694165     A.U. after   13 cycles
 SCF Done:  E(RB3LYP) =  -249.669731275     A.U. after    8 cycles
 SCF Done:  E(RB3LYP) =  -249.669736411     A.U. after    8 cycles
 SCF Done:  E(RB3LYP) =  -249.669737126     A.U. after    7 cycles
 Optimization completed.
    -- Stationary point found.
 Normal termination of Gaussian 09 at Thu Sep  8 14:56:31 2022.

 ----------------------------------------------------------------------
 #P Geom=AllCheck Guess=TCheck SCRF=Check GenChk RB3LYP/6-31G(d,p) Freq
 ----------------------------------------------------------------------

 Structure from the checkpoint file:  "B3LYP6-31Gdp.Frag_917.chk"
 --------
 Frag_917
 --------
 Charge =  0 Multiplicity = 1

                         Standard orientation:
 ---------------------------------------------------------------------
 Center     Atomic      Atomic             Coordinates (Angstroms)
 Number     Number       Type             X           Y           Z
 ---------------------------------------------------------------------
      1          6           0       -0.501652    1.464811    0.107086
      2          6           0       -0.421320    0.000524   -0.340566
      3          6           0       -1.691226   -0.783511    0.001762
      4          7           0        0.715969   -0.740878    0.236526
      5          8           0        1.934691   -0.014450   -0.058695
      6          1           0        0.438671    1.979625   -0.101672
      7          1           0       -1.309374    1.990541   -0.413452
      8          1           0       -0.699477    1.530609    1.184695
      9          1           0       -0.269192   -0.029012   -1.427128
     10          1           0       -1.866500   -0.793420    1.084817
     11          1           0       -1.616467   -1.819235   -0.340379
     12          1           0       -2.564848   -0.321353   -0.467319
     13          1           0        0.648542   -0.661744    1.254600
     14          1           0        2.434520   -0.665205   -0.569980
 ---------------------------------------------------------------------

 SCF Done:  E(RB3LYP) =  -249.669737126     A.U. after    1 cycles

 The electronic state is 1-A.
 Alpha  occ. eigenvalues --  -19.16152 -14.36243 -10.21103 -10.17677 -10.16816
 Alpha  occ. eigenvalues --   -1.04217  -0.84285  -0.73103  -0.68333  -0.58358
 Alpha  occ. eigenvalues --   -0.49785  -0.45919  -0.45367  -0.42170  -0.39583
 Alpha  occ. eigenvalues --   -0.38219  -0.36997  -0.34205  -0.33343  -0.27769
 Alpha  occ. eigenvalues --   -0.23393
 Alpha virt. eigenvalues --    0.08187   0.08521   0.12338   0.13776   0.15353
 Alpha virt. eigenvalues --    0.16437   0.16878   0.17977   0.19821   0.20445
 Alpha virt. eigenvalues --    0.23718   0.24394   0.27032   0.50402   0.52749

 Mulliken charges:
               1
     1  C   -0.315771
     2  C    0.073273
     3  C   -0.320210
     4  N   -0.292573
     5  O   -0.458673
     6  H    0.130390
     7  H    0.098119
     8  H    0.090025
     9  H    0.097101
    10  H    0.097596
    11  H    0.117262
    12  H    0.107525
    13  H    0.249172
    14  H    0.326765
 Sum of Mulliken charges =  -0.00000

 Dipole moment (field-independent basis, Debye):
    X=             -0.5213    Y=             -0.3297    Z=             -0.1151  Tot=              0.6275
 Quadrupole moment (field-independent basis, Debye-Ang):
   XX=            -30.7785   YY=            -33.6574   ZZ=            -30.0036
   XY=             -2.0846   XZ=             -1.4499   YZ=              0.0627

  Exact polarizability:  51.385  -0.260  43.023  -1.488  -0.132  40.907
 Approx polarizability:  65.856   0.043  56.119  -2.492  -0.656  58.850

                      1                      2                      3
                      A                      A                      A
 Frequencies --    139.8580               221.4975               253.0193
 Red. masses --      3.1470                 1.0443                 1.1360
 Frc consts  --      0.0363                 0.0302                 0.0428
 IR Inten    --      0.4044                 0.0091                 0.5053

                      4                      5                      6
                      A                      A                      A
 Frequencies --    272.5537               328.7223               354.4176
 Red. masses --      2.7781                 1.1200                 2.2504
 Frc consts  --      0.1216                 0.0713                 0.1665
 IR Inten    --     10.4476                80.6307                 0.6361

                      7                      8                      9
                      A                      A                      A
 Frequencies --    464.6391               502.2024               809.6975
 Red. masses --      1.9997                 3.6663                 2.9112
 Frc consts  --      0.2544                 0.5448                 1.1245
 IR Inten    --     15.6185                 5.0823                14.6881

                     10                     11                     12
                      A                      A                      A
 Frequencies --    897.2050               934.3128               958.7639
 Red. masses --      2.6913                 1.2320                 1.4812
 Frc consts  --      1.2764                 0.6336                 0.8022
 IR Inten    --     24.2127                 2.2748                 1.7829

                     13                     14                     15
                      A                      A                      A
 Frequencies --    968.5411              1019.0694              1149.3407
 Red. masses --      1.7855                 1.8526                 2.0378
 Frc consts  --      0.9868                 1.1336                 1.5860
 IR Inten    --     24.8229                61.5422                17.6565

                     16                     17                     18
                      A                      A                      A
 Frequencies --   1195.6606              1227.0226              1331.8644
 Red. masses --      1.8415                 1.9128                 1.2727
 Frc consts  --      1.5511                 1.6968                 1.3301
 IR Inten    --      9.6175                20.0184                12.2519

                     19                     20                     21
                      A                      A                      A
 Frequencies --   1350.6167              1395.6870              1410.6094
 Red. masses --      1.3634                 1.2269                 1.3161
 Frc consts  --      1.4654                 1.4081                 1.5429
 IR Inten    --     19.2211                25.9531                12.5969

                     22                     23                     24
                      A                      A                      A
 Frequencies --   1427.6762              1485.0604              1500.1960
 Red. masses --      1.2480                 1.0666                 1.0530
 Frc consts  --      1.4988                 1.3860                 1.3962
 IR Inten    --      5.2953                 3.1766                 1.6833

                     25                     26                     27
                      A                      A                      A
 Frequencies --   1502.6795              1518.8508              1526.6456
 Red. masses --      1.0453                 1.0678                 1.0518
 Frc consts  --      1.3907                 1.4513                 1.4443
 IR Inten    --      1.0702                 6.8387                 9.7593

                     28                     29                     30
                      A                      A                      A
 Frequencies --   3033.7203              3038.8927              3046.9295
 Red. masses --      1.0423                 1.0530                 1.0677
 Frc consts  --      5.6518                 5.7293                 5.8401
 IR Inten    --     14.1431                 9.5992                37.2485

                     31                     32                     33
                      A                      A                      A
 Frequencies --   3100.3532              3111.5884              3134.5657
 Red. masses --      1.0995                 1.0974                 1.1032
 Frc consts  --      6.2271                 6.2602                 6.3866
 IR Inten    --     16.8799                55.5665                23.5051

                     34                     35                     36
                      A                      A                      A
 Frequencies --   3143.4442              3429.9128              3803.1322
 Red. masses --      1.0996                 1.0748                 1.0684
 Frc consts  --      6.4019                 7.4499                 9.1043
 IR Inten    --     14.7365                 3.1918                30.2873

 - Thermochemistry -
 -------------------
 Temperature   298.150 Kelvin.  Pressure   1.00000 Atm.
 Atom     1 has atomic number  6 and mass  12.00000

 Molecular mass:    75.06841 amu.
 Principal axes and moments of inertia in atomic units:
                           1         2         3
     Eigenvalues --   233.89819 490.42119 656.85015
           X            0.99997   0.00450  -0.00678
           Y           -0.00446   0.99997   0.00617
           Z            0.00681  -0.00614   0.99996
 This molecule is an asymmetric top.
 Rotational symmetry number  1.
 Rotational temperatures (Kelvin)      0.37031     0.17661     0.13186
 Rotational constants (GHZ):           7.71593     3.67998     2.74757
 Zero-point vibrational energy     328906.9 (Joules/Mol)
                                   78.61065 (Kcal/Mol)
 Warning -- explicit consideration of   8 degrees of freedom as
           vibrations may cause significant error
 Vibrational temperatures:    201.22   318.69   364.04   392.14   472.96
          (Kelvin)            509.93   668.51   722.56  1164.97  1290.88
                             1344.27  1379.45  1393.51  1466.21  1653.64
                             1720.29  1765.41  1916.25  1943.23  2008.08
                             2029.55  2054.10  2136.67  2158.44  2162.02
                             2185.28  2196.50  4364.84  4372.28  4383.85
                             4460.71  4476.88  4509.94  4522.71  4934.87
                             5471.85

 Zero-point correction=                           0.125274 (Hartree/Particle)
 Thermal correction to Energy=                    0.131863
 Thermal correction to Enthalpy=                  0.132807
 Thermal correction to Gibbs Free Energy=         0.095937
 Sum of electronic and zero-point Energies=           -249.544463
 Sum of electronic and thermal Energies=              -249.537874
 Sum of electronic and thermal Enthalpies=            -249.536930
 Sum of electronic and thermal Free Energies=         -249.573800

                     E (Thermal)             CV                S
                      KCal/Mol        Cal/Mol-Kelvin    Cal/Mol-Kelvin
 Total                   82.745             23.278             77.599
 Electronic               0.000              0.000              0.000
 Translational            0.889              2.981             38.863
 Rotational               0.889              2.981             25.824
 Vibrational             80.968             17.317             12.911
 Vibration     1          0.615              1.913              2.806
 Vibration     2          0.648              1.808              1.947
 Vibration     3          0.664              1.758              1.709
 Vibration     4          0.676              1.724              1.580
 Vibration     5          0.712              1.618              1.266
 Vibration     6          0.730              1.566              1.146
 Vibration     7          0.822              1.328              0.753
 Vibration     8          0.858              1.245              0.653

 Optimization completed.
    -- Stationary point found.
 Normal termination of Gaussian 09 at Thu Sep  8 14:56:41 2022.
