 Gaussian 09, Revision E.01,
 Gaussian 09:  ES64L-G09RevE.01 30-Nov-2015

 ----------------------------
 #P OPT Freq B3LYP/6-31G(d,p)
 ----------------------------

 --------
 Frag_451
 --------
 Symbolic Z-matrix:
 Charge =  0 Multiplicity = 1

 SCF Done:  E(RB3LYP) =  -253.127414538     A.U. after   12 cycles
 SCF Done:  E(RB3LYP) =  -253.127430043     A.U. after    8 cycles
 SCF Done:  E(RB3LYP) =  -253.127432573     A.U. after    7 cycles
 SCF Done:  E(RB3LYP) =  -253.127433023     A.U. after    7 cycles
 SCF Done:  E(RB3LYP) =  -253.127433015     A.U. after    6 cycles
 Optimization completed.
    -- Stationary point found.
 Normal termination of Gaussian 09 at Thu Sep  8 15:09:59 2022.

 ----------------------------------------------------------------------
 #P Geom=AllCheck Guess=TCheck SCRF=Check GenChk RB3LYP/6-31G(d,p) Freq
 ----------------------------------------------------------------------

 Structure from the checkpoint file:  "B3LYP6-31Gdp.Frag_451.chk"
 --------
 Frag_451
 --------
 Charge =  0 Multiplicity = 1

                         Standard orientation:
 ---------------------------------------------------------------------
 Center     Atomic      Atomic             Coordinates (Angstroms)
 Number     Number       Type             X           Y           Z
 ---------------------------------------------------------------------
      1          6           0        2.106129   -0.052582   -0.078925
      2          7           0        0.831048   -0.453399   -0.665838
      3          6           0       -0.409589    0.004860   -0.001681
      4          6           0       -0.529778   -0.473459    1.463244
      5          6           0       -0.472340    1.540978   -0.056973
      6          6           0       -1.571186   -0.578204   -0.823958
      7          1           0        2.245359   -0.310787    0.985050
      8          1           0        2.912799   -0.531157   -0.642881
      9          1           0        2.245236    1.028308   -0.177414
     10          1           0        0.801676   -1.469153   -0.719764
     11          1           0        0.276703   -0.076361    2.087689
     12          1           0       -1.477424   -0.148781    1.906717
     13          1           0       -0.493267   -1.567882    1.519709
     14          1           0       -1.441871    1.896367    0.306127
     15          1           0        0.299142    2.004188    0.566027
     16          1           0       -0.336869    1.888693   -1.085416
     17          1           0       -1.545591   -1.674844   -0.815080
     18          1           0       -2.537941   -0.266895   -0.415827
     19          1           0       -1.504697   -0.247462   -1.864310
 ---------------------------------------------------------------------

 SCF Done:  E(RB3LYP) =  -253.127433015     A.U. after    1 cycles

 The electronic state is 1-A.
 Alpha  occ. eigenvalues --  -14.30715 -10.21522 -10.19489 -10.16810 -10.16765
 Alpha  occ. eigenvalues --  -10.16661  -0.89476  -0.77215  -0.68431  -0.68019
 Alpha  occ. eigenvalues --   -0.65038  -0.54071  -0.47304  -0.45363  -0.43851
 Alpha  occ. eigenvalues --   -0.42110  -0.40263  -0.38504  -0.37262  -0.36842
 Alpha  occ. eigenvalues --   -0.35806  -0.34041  -0.32502  -0.31857  -0.21064
 Alpha virt. eigenvalues --    0.07425   0.11938   0.13120   0.13349   0.14068
 Alpha virt. eigenvalues --    0.15876   0.16243   0.17890   0.19313   0.19602
 Alpha virt. eigenvalues --    0.20173   0.20778   0.22358   0.23650   0.24697

 Mulliken charges:
               1
     1  C   -0.170803
     2  N   -0.488614
     3  C    0.157098
     4  C   -0.302197
     5  C   -0.298913
     6  C   -0.301311
     7  H    0.080020
     8  H    0.102861
     9  H    0.111763
    10  H    0.226641
    11  H    0.099312
    12  H    0.096903
    13  H    0.088652
    14  H    0.095763
    15  H    0.096480
    16  H    0.110767
    17  H    0.087721
    18  H    0.095691
    19  H    0.112168
 Sum of Mulliken charges =  -0.00000

 Dipole moment (field-independent basis, Debye):
    X=              0.0022    Y=             -0.4389    Z=              0.7276  Tot=              0.8498
 Quadrupole moment (field-independent basis, Debye-Ang):
   XX=            -39.4335   YY=            -38.9065   ZZ=            -42.7176
   XY=             -0.6071   XZ=              0.4835   YZ=              0.5187

  Exact polarizability:  67.717  -0.138  60.265   0.081   0.567  58.111
 Approx polarizability:  86.800  -0.477  83.313  -0.596   1.971  80.623

                      1                      2                      3
                      A                      A                      A
 Frequencies --     92.5642               199.2133               243.2250
 Red. masses --      1.7299                 1.0288                 1.1132
 Frc consts  --      0.0087                 0.0241                 0.0388
 IR Inten    --      1.6172                 0.2843                 0.4749

                      4                      5                      6
                      A                      A                      A
 Frequencies --    262.2532               279.7030               289.6562
 Red. masses --      1.4861                 1.2526                 1.2849
 Frc consts  --      0.0602                 0.0577                 0.0635
 IR Inten    --      0.9008                 0.0849                 0.7799

                      7                      8                      9
                      A                      A                      A
 Frequencies --    341.2088               362.4458               415.5061
 Red. masses --      2.2428                 2.2873                 2.2315
 Frc consts  --      0.1538                 0.1770                 0.2270
 IR Inten    --      0.9996                 0.6920                 0.4591

                     10                     11                     12
                      A                      A                      A
 Frequencies --    451.5514               502.5267               708.8452
 Red. masses --      2.2242                 2.6053                 2.9548
 Frc consts  --      0.2672                 0.3876                 0.8748
 IR Inten    --      7.1862                 4.0121                33.1238

                     13                     14                     15
                      A                      A                      A
 Frequencies --    777.3137               892.3022               913.8959
 Red. masses --      1.5604                 1.8509                 1.7162
 Frc consts  --      0.5555                 0.8683                 0.8445
 IR Inten    --     61.8108                 1.3726                 0.1588

                     16                     17                     18
                      A                      A                      A
 Frequencies --    936.7662               960.3598              1034.9256
 Red. masses --      1.5654                 1.2079                 1.3754
 Frc consts  --      0.8093                 0.6564                 0.8680
 IR Inten    --      1.9962                 0.0468                 3.8608

                     19                     20                     21
                      A                      A                      A
 Frequencies --   1046.9860              1107.6702              1151.7959
 Red. masses --      1.3973                 2.1286                 1.8662
 Frc consts  --      0.9025                 1.5387                 1.4587
 IR Inten    --      1.6106                 7.2740                14.6104

                     22                     23                     24
                      A                      A                      A
 Frequencies --   1163.7876              1240.6052              1266.0035
 Red. masses --      1.4476                 2.4835                 2.7631
 Frc consts  --      1.1552                 2.2520                 2.6093
 IR Inten    --      5.2504                32.5775                35.4434

                     25                     26                     27
                      A                      A                      A
 Frequencies --   1295.6000              1406.2067              1409.9596
 Red. masses --      2.5428                 1.2514                 1.2725
 Frc consts  --      2.5148                 1.4579                 1.4905
 IR Inten    --      7.2857                 9.0960                 7.1034

                     28                     29                     30
                      A                      A                      A
 Frequencies --   1434.7004              1470.6394              1484.4097
 Red. masses --      1.2364                 1.1575                 1.1507
 Frc consts  --      1.4995                 1.4750                 1.4939
 IR Inten    --      7.8138                 0.3960                 7.6531

                     31                     32                     33
                      A                      A                      A
 Frequencies --   1489.1343              1497.0770              1502.6601
 Red. masses --      1.0547                 1.0463                 1.0471
 Frc consts  --      1.3780                 1.3817                 1.3930
 IR Inten    --      1.2611                 0.2512                 0.2205

                     34                     35                     36
                      A                      A                      A
 Frequencies --   1513.5071              1517.1853              1529.5728
 Red. masses --      1.0623                 1.0553                 1.0810
 Frc consts  --      1.4337                 1.4312                 1.4902
 IR Inten    --      4.1154                 2.5103                 1.0677

                     37                     38                     39
                      A                      A                      A
 Frequencies --   1535.0908              1540.4240              2965.4742
 Red. masses --      1.0628                 1.0838                 1.0588
 Frc consts  --      1.4757                 1.5153                 5.4862
 IR Inten    --      5.7473                12.7402                77.6407

                     40                     41                     42
                      A                      A                      A
 Frequencies --   3033.2250              3037.6030              3048.7953
 Red. masses --      1.0370                 1.0366                 1.0364
 Frc consts  --      5.6216                 5.6357                 5.6760
 IR Inten    --     22.3392                35.3003                 7.5026

                     43                     44                     45
                      A                      A                      A
 Frequencies --   3076.4753              3099.7298              3105.9185
 Red. masses --      1.0740                 1.1006                 1.0998
 Frc consts  --      5.9893                 6.2305                 6.2511
 IR Inten    --     43.5836                 2.3016                41.7879

                     46                     47                     48
                      A                      A                      A
 Frequencies --   3112.0893              3115.1005              3120.1771
 Red. masses --      1.1018                 1.1017                 1.1013
 Frc consts  --      6.2871                 6.2991                 6.3169
 IR Inten    --     35.5571                34.3938                39.5205

                     49                     50                     51
                      A                      A                      A
 Frequencies --   3125.7566              3131.3554              3506.3094
 Red. masses --      1.1033                 1.1027                 1.0739
 Frc consts  --      6.3512                 6.3704                 7.7786
 IR Inten    --      9.0525                49.9300                 1.8442

 - Thermochemistry -
 -------------------
 Temperature   298.150 Kelvin.  Pressure   1.00000 Atm.
 Atom     1 has atomic number  6 and mass  12.00000

 Molecular mass:    87.10480 amu.
 Principal axes and moments of inertia in atomic units:
                           1         2         3
     Eigenvalues --   417.23926 693.18052 695.24804
           X            0.99975   0.02038   0.00902
           Y           -0.00933   0.75028  -0.66106
           Z           -0.02024   0.66081   0.75028
 This molecule is an asymmetric top.
 Rotational symmetry number  1.
 Rotational temperatures (Kelvin)      0.20759     0.12495     0.12458
 Rotational constants (GHZ):           4.32543     2.60357     2.59582
 Zero-point vibrational energy     465020.1 (Joules/Mol)
                                  111.14247 (Kcal/Mol)
 Warning -- explicit consideration of  11 degrees of freedom as
           vibrations may cause significant error
 Vibrational temperatures:    133.18   286.62   349.95   377.32   402.43
          (Kelvin)            416.75   490.92   521.48   597.82   649.68
                              723.02  1019.87  1118.38  1283.82  1314.89
                             1347.80  1381.74  1489.03  1506.38  1593.69
                             1657.18  1674.43  1784.95  1821.49  1864.08
                             2023.22  2028.61  2064.21  2115.92  2135.73
                             2142.53  2153.96  2161.99  2177.60  2182.89
                             2200.71  2208.65  2216.32  4266.65  4364.13
                             4370.43  4386.53  4426.36  4459.81  4468.72
                             4477.60  4481.93  4489.23  4497.26  4505.32
                             5044.79

 Zero-point correction=                           0.177117 (Hartree/Particle)
 Thermal correction to Energy=                    0.185228
 Thermal correction to Enthalpy=                  0.186172
 Thermal correction to Gibbs Free Energy=         0.145994
 Sum of electronic and zero-point Energies=           -252.950316
 Sum of electronic and thermal Energies=              -252.942205
 Sum of electronic and thermal Enthalpies=            -252.941261
 Sum of electronic and thermal Free Energies=         -252.981439

                     E (Thermal)             CV                S
                      KCal/Mol        Cal/Mol-Kelvin    Cal/Mol-Kelvin
 Total                  116.233             30.164             84.563
 Electronic               0.000              0.000              0.000
 Translational            0.889              2.981             39.307
 Rotational               0.889              2.981             26.800
 Vibrational            114.455             24.203             18.456
 Vibration     1          0.602              1.954              3.605
 Vibration     2          0.637              1.841              2.140
 Vibration     3          0.659              1.774              1.779
 Vibration     4          0.670              1.742              1.647
 Vibration     5          0.680              1.711              1.535
 Vibration     6          0.686              1.693              1.476
 Vibration     7          0.721              1.593              1.206
 Vibration     8          0.736              1.550              1.112
 Vibration     9          0.779              1.437              0.907
 Vibration    10          0.810              1.357              0.791
 Vibration    11          0.858              1.244              0.652

 Optimization completed.
    -- Stationary point found.
 Normal termination of Gaussian 09 at Thu Sep  8 15:10:16 2022.
