 Gaussian 09, Revision E.01,
 Gaussian 09:  ES64L-G09RevE.01 30-Nov-2015

 ----------------------------
 #P OPT Freq B3LYP/6-31G(d,p)
 ----------------------------

 --------
 Frag_628
 --------
 Symbolic Z-matrix:
 Charge =  0 Multiplicity = 1

 SCF Done:  E(RB3LYP) =  -228.603089132     A.U. after   12 cycles
 SCF Done:  E(RB3LYP) =  -228.603129045     A.U. after    9 cycles
 SCF Done:  E(RB3LYP) =  -228.603130748     A.U. after    9 cycles
 SCF Done:  E(RB3LYP) =  -228.603131002     A.U. after    8 cycles
 Optimization completed.
    -- Stationary point found.
 Normal termination of Gaussian 09 at Thu Sep  8 15:25:01 2022.

 ----------------------------------------------------------------------
 #P Geom=AllCheck Guess=TCheck SCRF=Check GenChk RB3LYP/6-31G(d,p) Freq
 ----------------------------------------------------------------------

 Structure from the checkpoint file:  "B3LYP6-31Gdp.Frag_628.chk"
 --------
 Frag_628
 --------
 Charge =  0 Multiplicity = 1

                         Standard orientation:
 ---------------------------------------------------------------------
 Center     Atomic      Atomic             Coordinates (Angstroms)
 Number     Number       Type             X           Y           Z
 ---------------------------------------------------------------------
      1          6           0        1.095435   -1.272358    0.049098
      2          6           0        0.323550    0.000002   -0.316293
      3          6           0        1.095405    1.272414    0.049051
      4          7           0       -0.932068   -0.000057    0.465867
      5          7           0       -1.946714   -0.000169   -0.255967
      6          1           0        0.530316   -2.166707   -0.229604
      7          1           0        1.289642   -1.310982    1.125637
      8          1           0        2.054646   -1.295169   -0.477115
      9          1           0        0.076397   -0.000021   -1.386740
     10          1           0        0.530329    2.166722   -0.229863
     11          1           0        2.054719    1.295171   -0.476981
     12          1           0        1.289418    1.311167    1.125621
     13          1           0       -2.760328    0.001050    0.388604
 ---------------------------------------------------------------------

 SCF Done:  E(RB3LYP) =  -228.603131002     A.U. after    1 cycles

 The electronic state is 1-A.
 Alpha  occ. eigenvalues --  -14.38206 -14.37436 -10.21433 -10.18134 -10.18133
 Alpha  occ. eigenvalues --   -1.02374  -0.80790  -0.69098  -0.67371  -0.55560
 Alpha  occ. eigenvalues --   -0.50278  -0.44548  -0.43374  -0.41337  -0.39071
 Alpha  occ. eigenvalues --   -0.37597  -0.36779  -0.33380  -0.33338  -0.22581
 Alpha virt. eigenvalues --   -0.03762   0.09961   0.11125   0.13917   0.14786
 Alpha virt. eigenvalues --    0.15249   0.17724   0.18922   0.19629   0.20906
 Alpha virt. eigenvalues --    0.23401   0.25147   0.36619   0.49554   0.51315

 Mulliken charges:
               1
     1  C   -0.310812
     2  C    0.054733
     3  C   -0.310796
     4  N   -0.192114
     5  N   -0.266121
     6  H    0.113551
     7  H    0.116790
     8  H    0.108572
     9  H    0.098738
    10  H    0.113543
    11  H    0.108590
    12  H    0.116802
    13  H    0.248525
 Sum of Mulliken charges =  -0.00000

 Dipole moment (field-independent basis, Debye):
    X=              0.6381    Y=              0.0014    Z=              0.2077  Tot=              0.6711
 Quadrupole moment (field-independent basis, Debye-Ang):
   XX=            -28.8764   YY=            -31.0558   ZZ=            -33.5806
   XY=             -0.0035   XZ=             -2.2507   YZ=             -0.0004

  Exact polarizability:  60.411  -0.003  41.089  -0.129   0.002  39.721
 Approx polarizability:  82.144  -0.002  52.310   3.718   0.003  59.996

                      1                      2                      3
                      A                      A                      A
 Frequencies --     88.9876               207.9318               238.5746
 Red. masses --      5.1222                 1.0238                 1.0626
 Frc consts  --      0.0239                 0.0261                 0.0356
 IR Inten    --      0.0139                 0.0628                 0.1551

                      4                      5                      6
                      A                      A                      A
 Frequencies --    337.2819               382.0127               392.1924
 Red. masses --      2.3646                 2.4569                 3.2804
 Frc consts  --      0.1585                 0.2112                 0.2973
 IR Inten    --      0.6223                 3.0339                 0.0473

                      7                      8                      9
                      A                      A                      A
 Frequencies --    572.3395               816.2048               916.6730
 Red. masses --      3.7217                 2.1597                 2.4534
 Frc consts  --      0.7183                 0.8477                 1.2146
 IR Inten    --      5.2863                 9.6344                 3.9902

                     10                     11                     12
                      A                      A                      A
 Frequencies --    927.1954               947.2069               969.6216
 Red. masses --      1.2270                 1.1606                 1.5671
 Frc consts  --      0.6215                 0.6135                 0.8681
 IR Inten    --     30.1085                 3.2589                 4.0518

                     13                     14                     15
                      A                      A                      A
 Frequencies --   1156.0386              1158.5380              1200.0877
 Red. masses --      1.7060                 1.7902                 1.9307
 Frc consts  --      1.3433                 1.4157                 1.6383
 IR Inten    --      7.6544                20.1151                 4.0667

                     16                     17                     18
                      A                      A                      A
 Frequencies --   1351.5364              1373.3096              1409.7976
 Red. masses --      1.3476                 1.3523                 1.2973
 Frc consts  --      1.4504                 1.5026                 1.5192
 IR Inten    --     13.5088                 7.7682                 9.0722

                     19                     20                     21
                      A                      A                      A
 Frequencies --   1424.9430              1496.7858              1497.1012
 Red. masses --      1.2228                 1.0481                 1.2639
 Frc consts  --      1.4628                 1.3835                 1.6690
 IR Inten    --      5.1535                 0.7809                16.6880

                     22                     23                     24
                      A                      A                      A
 Frequencies --   1503.3072              1510.0062              1527.3741
 Red. masses --      1.0444                 1.0636                 1.0590
 Frc consts  --      1.3906                 1.4288                 1.4555
 IR Inten    --      0.0018                 9.6801                 8.5135

                     25                     26                     27
                      A                      A                      A
 Frequencies --   1658.2181              3033.3195              3047.8198
 Red. masses --     10.9402                 1.0849                 1.0342
 Frc consts  --     17.7239                 5.8814                 5.6602
 IR Inten    --      4.3129                18.3912                23.0514

                     28                     29                     30
                      A                      A                      A
 Frequencies --   3051.0832              3124.6018              3126.6605
 Red. masses --      1.0349                 1.1032                 1.1033
 Frc consts  --      5.6764                 6.3457                 6.3551
 IR Inten    --     14.4298                 0.0402                20.3312

                     31                     32                     33
                      A                      A                      A
 Frequencies --   3127.8229              3129.8391              3233.6076
 Red. masses --      1.1030                 1.1024                 1.0739
 Frc consts  --      6.3579                 6.3623                 6.6156
 IR Inten    --     25.5111                45.2871                46.4217

 - Thermochemistry -
 -------------------
 Temperature   298.150 Kelvin.  Pressure   1.00000 Atm.
 Atom     1 has atomic number  6 and mass  12.00000

 Molecular mass:    72.06875 amu.
 Principal axes and moments of inertia in atomic units:
                           1         2         3
     Eigenvalues --   234.20977 448.07127 607.84897
           X            0.99999  -0.00005  -0.00466
           Y            0.00005   1.00000   0.00001
           Z            0.00466  -0.00001   0.99999
 This molecule is an asymmetric top.
 Rotational symmetry number  1.
 Rotational temperatures (Kelvin)      0.36981     0.19330     0.14249
 Rotational constants (GHZ):           7.70566     4.02780     2.96906
 Zero-point vibrational energy     298695.7 (Joules/Mol)
                                   71.38998 (Kcal/Mol)
 Warning -- explicit consideration of   7 degrees of freedom as
           vibrations may cause significant error
 Vibrational temperatures:    128.03   299.17   343.26   485.27   549.63
          (Kelvin)            564.28   823.47  1174.34  1318.89  1334.03
                             1362.82  1395.07  1663.28  1666.88  1726.66
                             1944.56  1975.88  2028.38  2050.17  2153.54
                             2153.99  2162.92  2172.56  2197.55  2385.80
                             4364.26  4385.13  4389.82  4495.60  4498.56
                             4500.23  4503.13  4652.43

 Zero-point correction=                           0.113767 (Hartree/Particle)
 Thermal correction to Energy=                    0.119976
 Thermal correction to Enthalpy=                  0.120921
 Thermal correction to Gibbs Free Energy=         0.084499
 Sum of electronic and zero-point Energies=           -228.489364
 Sum of electronic and thermal Energies=              -228.483155
 Sum of electronic and thermal Enthalpies=            -228.482210
 Sum of electronic and thermal Free Energies=         -228.518632

                     E (Thermal)             CV                S
                      KCal/Mol        Cal/Mol-Kelvin    Cal/Mol-Kelvin
 Total                   75.286             21.156             76.656
 Electronic               0.000              0.000              0.000
 Translational            0.889              2.981             38.742
 Rotational               0.889              2.981             25.659
 Vibrational             73.509             15.194             12.256
 Vibration     1          0.602              1.957              3.682
 Vibration     2          0.641              1.829              2.062
 Vibration     3          0.657              1.782              1.813
 Vibration     4          0.718              1.601              1.225
 Vibration     5          0.751              1.509              1.031
 Vibration     6          0.760              1.487              0.992
 Vibration     7          0.929              1.091              0.500

 Optimization completed.
    -- Stationary point found.
 Normal termination of Gaussian 09 at Thu Sep  8 15:25:10 2022.
