 Gaussian 09, Revision E.01,
 Gaussian 09:  ES64L-G09RevE.01 30-Nov-2015

 ----------------------------
 #P OPT Freq B3LYP/6-31G(d,p)
 ----------------------------

 --------
 Frag_715
 --------
 Symbolic Z-matrix:
 Charge =  0 Multiplicity = 1

 SCF Done:  E(RB3LYP) =  -247.274626296     A.U. after   15 cycles
 SCF Done:  E(RB3LYP) =  -247.274738351     A.U. after   11 cycles
 SCF Done:  E(RB3LYP) =  -247.274651986     A.U. after   12 cycles
 SCF Done:  E(RB3LYP) =  -247.274739770     A.U. after   12 cycles
 SCF Done:  E(RB3LYP) =  -247.274750544     A.U. after   10 cycles
 SCF Done:  E(RB3LYP) =  -247.274752104     A.U. after    9 cycles
 SCF Done:  E(RB3LYP) =  -247.274752901     A.U. after    9 cycles
 SCF Done:  E(RB3LYP) =  -247.274752975     A.U. after    8 cycles
 Optimization completed.
    -- Stationary point found.
 Normal termination of Gaussian 09 at Thu Sep  8 14:59:38 2022.

 ----------------------------------------------------------------------
 #P Geom=AllCheck Guess=TCheck SCRF=Check GenChk RB3LYP/6-31G(d,p) Freq
 ----------------------------------------------------------------------

 Structure from the checkpoint file:  "B3LYP6-31Gdp.Frag_715.chk"
 --------
 Frag_715
 --------
 Charge =  0 Multiplicity = 1

                         Standard orientation:
 ---------------------------------------------------------------------
 Center     Atomic      Atomic             Coordinates (Angstroms)
 Number     Number       Type             X           Y           Z
 ---------------------------------------------------------------------
      1          6           0        0.509284    1.431621    0.005891
      2          6           0        0.457951    0.087850   -0.002396
      3          7           0        1.550451   -0.782223   -0.072096
      4          6           0       -0.868781   -0.597495   -0.034208
      5          8           0       -1.943132   -0.038424    0.031990
      6          1           0       -0.417624    1.989416   -0.030515
      7          1           0        1.445578    1.979564    0.025755
      8          1           0        1.435290   -1.653499    0.431035
      9          1           0        2.445462   -0.357475    0.131216
     10          1           0       -0.807531   -1.706909   -0.124457
 ---------------------------------------------------------------------

 SCF Done:  E(RB3LYP) =  -247.274752975     A.U. after    1 cycles

 The electronic state is 1-A.
 Alpha  occ. eigenvalues --  -19.15121 -14.35305 -10.28038 -10.23382 -10.18248
 Alpha  occ. eigenvalues --   -1.04651  -0.92411  -0.75367  -0.65980  -0.55042
 Alpha  occ. eigenvalues --   -0.51851  -0.50204  -0.43286  -0.42835  -0.40638
 Alpha  occ. eigenvalues --   -0.39077  -0.33802  -0.26024  -0.22332
 Alpha virt. eigenvalues --   -0.05607   0.06308   0.09076   0.12301   0.12749
 Alpha virt. eigenvalues --    0.15330   0.19613   0.26539   0.27519   0.34956
 Alpha virt. eigenvalues --    0.35865   0.51737   0.54582   0.56817   0.58427

 Mulliken charges:
               1
     1  C   -0.278533
     2  C    0.252687
     3  N   -0.647981
     4  C    0.271421
     5  O   -0.401279
     6  H    0.128289
     7  H    0.093265
     8  H    0.258027
     9  H    0.262221
    10  H    0.061883
 Sum of Mulliken charges =  -0.00000

 Dipole moment (field-independent basis, Debye):
    X=              3.1730    Y=             -1.0880    Z=              0.9679  Tot=              3.4912
 Quadrupole moment (field-independent basis, Debye-Ang):
   XX=            -30.7263   YY=            -25.9579   ZZ=            -30.8830
   XY=              0.2431   XZ=              2.2559   YZ=             -1.6727

  Exact polarizability:  47.769   0.444  56.677   0.294   0.010  18.110
 Approx polarizability:  71.371  -1.649  92.796  -0.669   1.265  26.038

                      1                      2                      3
                      A                      A                      A
 Frequencies --    148.0081               274.5981               293.9810
 Red. masses --      2.5570                 1.0880                 3.7879
 Frc consts  --      0.0330                 0.0483                 0.1929
 IR Inten    --      6.3548                31.8207                 7.0235

                      4                      5                      6
                      A                      A                      A
 Frequencies --    421.3367               469.9986               602.0848
 Red. masses --      2.5871                 2.2451                 2.8653
 Frc consts  --      0.2706                 0.2922                 0.6120
 IR Inten    --      5.0090                29.7888                86.7492

                      7                      8                      9
                      A                      A                      A
 Frequencies --    637.3044               737.7675               864.1192
 Red. masses --      1.3811                 1.2966                 1.3565
 Frc consts  --      0.3305                 0.4158                 0.5968
 IR Inten    --    159.1745                30.4891                51.2160

                     10                     11                     12
                      A                      A                      A
 Frequencies --    902.6185               994.0582              1024.8539
 Red. masses --      3.6181                 1.6234                 1.7923
 Frc consts  --      1.7368                 0.9451                 1.1091
 IR Inten    --     50.6362                22.6877                 3.3771

                     13                     14                     15
                      A                      A                      A
 Frequencies --   1119.4112              1350.5629              1437.0709
 Red. masses --      1.4545                 2.1986                 1.2313
 Frc consts  --      1.0738                 2.3628                 1.4982
 IR Inten    --      6.8355                40.5928                24.4589

                     16                     17                     18
                      A                      A                      A
 Frequencies --   1453.4574              1656.4368              1699.0938
 Red. masses --      1.3664                 1.2268                 4.1148
 Frc consts  --      1.7008                 1.9833                 6.9989
 IR Inten    --     12.3339                17.9935               161.9621

                     19                     20                     21
                      A                      A                      A
 Frequencies --   1823.2742              2881.9898              3176.2892
 Red. masses --      9.2520                 1.0832                 1.0601
 Frc consts  --     18.1214                 5.3008                 6.3012
 IR Inten    --     80.6836               140.6509                 8.7007

                     22                     23                     24
                      A                      A                      A
 Frequencies --   3278.4271              3554.3412              3660.8805
 Red. masses --      1.1160                 1.0484                 1.0973
 Frc consts  --      7.0671                 7.8039                 8.6645
 IR Inten    --      1.3587                10.7289                11.6959

 - Thermochemistry -
 -------------------
 Temperature   298.150 Kelvin.  Pressure   1.00000 Atm.
 Atom     1 has atomic number  6 and mass  12.00000

 Molecular mass:    71.03711 amu.
 Principal axes and moments of inertia in atomic units:
                           1         2         3
     Eigenvalues --   184.38364 428.06269 610.25574
           X            0.99995   0.00280   0.00926
           Y           -0.00270   0.99994  -0.01077
           Z           -0.00929   0.01075   0.99990
 This molecule is an asymmetric top.
 Rotational symmetry number  1.
 Rotational temperatures (Kelvin)      0.46975     0.20234     0.14193
 Rotational constants (GHZ):           9.78797     4.21607     2.95735
 Zero-point vibrational energy     206128.3 (Joules/Mol)
                                   49.26585 (Kcal/Mol)
 Warning -- explicit consideration of   6 degrees of freedom as
           vibrations may cause significant error
 Vibrational temperatures:    212.95   395.08   422.97   606.21   676.22
          (Kelvin)            866.26   916.94  1061.48  1243.27  1298.67
                             1430.23  1474.53  1610.58  1943.16  2067.62
                             2091.20  2383.24  2444.61  2623.28  4146.54
                             4569.97  4716.92  5113.90  5267.18

 Zero-point correction=                           0.078510 (Hartree/Particle)
 Thermal correction to Energy=                    0.084041
 Thermal correction to Enthalpy=                  0.084985
 Thermal correction to Gibbs Free Energy=         0.050242
 Sum of electronic and zero-point Energies=           -247.196243
 Sum of electronic and thermal Energies=              -247.190712
 Sum of electronic and thermal Enthalpies=            -247.189768
 Sum of electronic and thermal Free Energies=         -247.224511

                     E (Thermal)             CV                S
                      KCal/Mol        Cal/Mol-Kelvin    Cal/Mol-Kelvin
 Total                   52.737             19.208             73.123
 Electronic               0.000              0.000              0.000
 Translational            0.889              2.981             38.699
 Rotational               0.889              2.981             25.380
 Vibrational             50.959             13.246              9.044
 Vibration     1          0.617              1.905              2.698
 Vibration     2          0.677              1.720              1.567
 Vibration     3          0.689              1.685              1.451
 Vibration     4          0.784              1.424              0.887
 Vibration     5          0.827              1.317              0.738
 Vibration     6          0.960              1.027              0.446

 Optimization completed.
    -- Stationary point found.
 Normal termination of Gaussian 09 at Thu Sep  8 14:59:45 2022.
