 Gaussian 09, Revision E.01,
 Gaussian 09:  ES64L-G09RevE.01 30-Nov-2015

 ----------------------------
 #P OPT Freq B3LYP/6-31G(d,p)
 ----------------------------

 --------
 Frag_646
 --------
 Symbolic Z-matrix:
 Charge =  0 Multiplicity = 1

 SCF Done:  E(RB3LYP) =  -283.999812687     A.U. after   13 cycles
 SCF Done:  E(RB3LYP) =  -283.999876547     A.U. after   11 cycles
 SCF Done:  E(RB3LYP) =  -283.999882351     A.U. after    8 cycles
 SCF Done:  E(RB3LYP) =  -283.999883359     A.U. after    8 cycles
 SCF Done:  E(RB3LYP) =  -283.999883657     A.U. after    7 cycles
 SCF Done:  E(RB3LYP) =  -283.999883748     A.U. after    7 cycles
 Optimization completed.
    -- Stationary point found.
 Normal termination of Gaussian 09 at Thu Sep  8 15:14:04 2022.

 ----------------------------------------------------------------------
 #P Geom=AllCheck Guess=TCheck SCRF=Check GenChk RB3LYP/6-31G(d,p) Freq
 ----------------------------------------------------------------------

 Structure from the checkpoint file:  "B3LYP6-31Gdp.Frag_646.chk"
 --------
 Frag_646
 --------
 Charge =  0 Multiplicity = 1

                         Standard orientation:
 ---------------------------------------------------------------------
 Center     Atomic      Atomic             Coordinates (Angstroms)
 Number     Number       Type             X           Y           Z
 ---------------------------------------------------------------------
      1          6           0       -1.229617    1.226380    0.584300
      2          6           0       -0.673600    0.171985   -0.388977
      3          7           0       -1.564438   -0.983973   -0.401992
      4          6           0        0.779184   -0.168169   -0.018110
      5          7           0        1.013488   -1.257959    0.612527
      6          7           0        1.715100    0.760072   -0.441435
      7          1           0       -2.247628    1.494071    0.292304
      8          1           0       -0.618306    2.135007    0.605104
      9          1           0       -1.258231    0.818796    1.600265
     10          1           0       -0.666636    0.602296   -1.400070
     11          1           0       -1.383431   -1.503559    0.457879
     12          1           0       -1.254254   -1.618757   -1.136165
     13          1           0        2.009502   -1.363631    0.826114
     14          1           0        1.388974    1.682776   -0.689736
     15          1           0        2.625159    0.744849   -0.002670
 ---------------------------------------------------------------------

 SCF Done:  E(RB3LYP) =  -283.999883748     A.U. after    1 cycles

 The electronic state is 1-A.
 Alpha  occ. eigenvalues --  -14.35311 -14.29869 -14.29135 -10.25133 -10.21679
 Alpha  occ. eigenvalues --  -10.17684  -0.94589  -0.87515  -0.83940  -0.73332
 Alpha  occ. eigenvalues --   -0.63921  -0.55752  -0.52567  -0.51461  -0.47152
 Alpha  occ. eigenvalues --   -0.43731  -0.40979  -0.38873  -0.36908  -0.35049
 Alpha  occ. eigenvalues --   -0.33044  -0.26023  -0.24131  -0.23132
 Alpha virt. eigenvalues --    0.03770   0.06196   0.10546   0.11095   0.14186
 Alpha virt. eigenvalues --    0.15273   0.16250   0.17952   0.18642   0.20540
 Alpha virt. eigenvalues --    0.23416   0.25889   0.27584   0.33205   0.46480

 Mulliken charges:
               1
     1  C   -0.296522
     2  C   -0.003085
     3  N   -0.576750
     4  C    0.439734
     5  N   -0.584871
     6  N   -0.611997
     7  H    0.125037
     8  H    0.081960
     9  H    0.116408
    10  H    0.097642
    11  H    0.252893
    12  H    0.237092
    13  H    0.202355
    14  H    0.262826
    15  H    0.257281
 Sum of Mulliken charges =   0.00000

 Dipole moment (field-independent basis, Debye):
    X=              2.4837    Y=              2.4420    Z=             -0.2935  Tot=              3.4955
 Quadrupole moment (field-independent basis, Debye-Ang):
   XX=            -36.0087   YY=            -36.0225   ZZ=            -37.8944
   XY=              1.8031   XZ=              0.6114   YZ=              0.5168

  Exact polarizability:  56.448   0.237  57.340   1.942  -6.215  42.488
 Approx polarizability:  72.384   2.203  85.572   2.269 -15.889  64.001

                      1                      2                      3
                      A                      A                      A
 Frequencies --     68.0262               222.9903               231.8408
 Red. masses --      3.5342                 1.1171                 1.1137
 Frc consts  --      0.0096                 0.0327                 0.0353
 IR Inten    --      6.7678                38.3053                 3.0895

                      4                      5                      6
                      A                      A                      A
 Frequencies --    253.1893               315.6987               376.5595
 Red. masses --      2.4331                 2.7211                 2.3158
 Frc consts  --      0.0919                 0.1598                 0.1935
 IR Inten    --      6.4929                10.7266                45.6399

                      7                      8                      9
                      A                      A                      A
 Frequencies --    401.4826               454.7001               479.0732
 Red. masses --      1.2504                 1.1947                 2.5628
 Frc consts  --      0.1187                 0.1455                 0.3465
 IR Inten    --    101.4803               136.5132                 4.3640

                     10                     11                     12
                      A                      A                      A
 Frequencies --    605.9606               692.9289               778.4720
 Red. masses --      3.0810                 3.0470                 2.4557
 Frc consts  --      0.6666                 0.8620                 0.8768
 IR Inten    --     19.0053                 4.7736                 7.9625

                     13                     14                     15
                      A                      A                      A
 Frequencies --    863.6156               926.0106               959.5678
 Red. masses --      1.3664                 1.9851                 1.6516
 Frc consts  --      0.6005                 1.0029                 0.8960
 IR Inten    --     72.3067                 0.6261               156.5957

                     16                     17                     18
                      A                      A                      A
 Frequencies --   1029.2262              1085.8342              1100.3309
 Red. masses --      1.4005                 1.2955                 2.1063
 Frc consts  --      0.8741                 0.9000                 1.5025
 IR Inten    --      2.9143                57.8580                41.2626

                     19                     20                     21
                      A                      A                      A
 Frequencies --   1139.8443              1176.2839              1279.0103
 Red. masses --      1.5149                 1.9515                 1.6270
 Frc consts  --      1.1597                 1.5909                 1.5682
 IR Inten    --     21.2048                 4.2629                23.7429

                     22                     23                     24
                      A                      A                      A
 Frequencies --   1318.6259              1401.8152              1413.3026
 Red. masses --      1.4031                 1.8132                 1.2073
 Frc consts  --      1.4374                 2.0993                 1.4208
 IR Inten    --     21.7779                78.9163                 3.5399

                     25                     26                     27
                      A                      A                      A
 Frequencies --   1443.4032              1500.6194              1514.1512
 Red. masses --      1.5671                 1.0501                 1.0572
 Frc consts  --      1.9236                 1.3932                 1.4280
 IR Inten    --     17.1077                 2.7421                 6.0120

                     28                     29                     30
                      A                      A                      A
 Frequencies --   1650.9638              1689.7532              1734.0993
 Red. masses --      1.1881                 1.0905                 6.5829
 Frc consts  --      1.9080                 1.8345                11.6632
 IR Inten    --     57.1070                14.1167               189.0530

                     31                     32                     33
                      A                      A                      A
 Frequencies --   3030.8450              3046.5093              3114.8315
 Red. masses --      1.0844                 1.0361                 1.1017
 Frc consts  --      5.8690                 5.6657                 6.2975
 IR Inten    --     28.4399                22.2181                34.1962

                     34                     35                     36
                      A                      A                      A
 Frequencies --   3141.8838              3443.7437              3472.4897
 Red. masses --      1.1023                 1.0749                 1.0511
 Frc consts  --      6.4113                 7.5106                 7.4673
 IR Inten    --     20.2764                15.4208                 1.7672

                     37                     38                     39
                      A                      A                      A
 Frequencies --   3543.3007              3575.5475              3692.6148
 Red. masses --      1.0890                 1.0465                 1.1010
 Frc consts  --      8.0556                 7.8830                 8.8454
 IR Inten    --      1.7140                11.7534                12.5114

 - Thermochemistry -
 -------------------
 Temperature   298.150 Kelvin.  Pressure   1.00000 Atm.
 Atom     1 has atomic number  6 and mass  12.00000

 Molecular mass:    87.07965 amu.
 Principal axes and moments of inertia in atomic units:
                           1         2         3
     Eigenvalues --   372.75282 601.81235 804.39761
           X            0.99996  -0.00755  -0.00529
           Y            0.00765   0.99979   0.01891
           Z            0.00515  -0.01895   0.99981
 This molecule is an asymmetric top.
 Rotational symmetry number  1.
 Rotational temperatures (Kelvin)      0.23236     0.14392     0.10768
 Rotational constants (GHZ):           4.84166     2.99884     2.24359
 Zero-point vibrational energy     347928.8 (Joules/Mol)
                                   83.15697 (Kcal/Mol)
 Warning -- explicit consideration of  10 degrees of freedom as
           vibrations may cause significant error
 Vibrational temperatures:     97.87   320.83   333.57   364.28   454.22
          (Kelvin)            541.78   577.64   654.21   689.28   871.84
                              996.97  1120.05  1242.55  1332.32  1380.60
                             1480.83  1562.27  1583.13  1639.98  1692.41
                             1840.21  1897.21  2016.90  2033.42  2076.73
                             2159.05  2178.52  2375.37  2431.17  2494.98
                             4360.70  4383.24  4481.54  4520.46  4954.77
                             4996.13  5098.01  5144.41  5312.84

 Zero-point correction=                           0.132519 (Hartree/Particle)
 Thermal correction to Energy=                    0.139905
 Thermal correction to Enthalpy=                  0.140849
 Thermal correction to Gibbs Free Energy=         0.101707
 Sum of electronic and zero-point Energies=           -283.867365
 Sum of electronic and thermal Energies=              -283.859979
 Sum of electronic and thermal Enthalpies=            -283.859034
 Sum of electronic and thermal Free Energies=         -283.898177

                     E (Thermal)             CV                S
                      KCal/Mol        Cal/Mol-Kelvin    Cal/Mol-Kelvin
 Total                   87.792             26.797             82.382
 Electronic               0.000              0.000              0.000
 Translational            0.889              2.981             39.306
 Rotational               0.889              2.981             26.692
 Vibrational             86.014             20.835             16.384
 Vibration     1          0.598              1.969              4.210
 Vibration     2          0.649              1.806              1.935
 Vibration     3          0.653              1.792              1.865
 Vibration     4          0.664              1.757              1.708
 Vibration     5          0.703              1.644              1.332
 Vibration     6          0.747              1.520              1.053
 Vibration     7          0.767              1.467              0.957
 Vibration     8          0.813              1.351              0.782
 Vibration     9          0.836              1.296              0.713
 Vibration    10          0.965              1.019              0.440

 Normal termination of Gaussian 09 at Thu Sep  8 15:14:16 2022.
