 Gaussian 09, Revision E.01,
 Gaussian 09:  ES64L-G09RevE.01 30-Nov-2015

 -------------------------
 #P OPT Freq B3LYP/6-31G**
 -------------------------

 --------
 Frag_170
 --------
 Symbolic Z-matrix:
 Charge =  0 Multiplicity = 1

 SCF Done:  E(RB3LYP) =  -390.986707270     A.U. after   15 cycles
 SCF Done:  E(RB3LYP) =  -391.005970410     A.U. after   13 cycles
 SCF Done:  E(RB3LYP) =  -391.011918072     A.U. after   13 cycles
 SCF Done:  E(RB3LYP) =  -391.014428114     A.U. after   13 cycles
 SCF Done:  E(RB3LYP) =  -391.015593594     A.U. after   13 cycles
 SCF Done:  E(RB3LYP) =  -391.016286274     A.U. after   13 cycles
 SCF Done:  E(RB3LYP) =  -391.017019028     A.U. after   12 cycles
 SCF Done:  E(RB3LYP) =  -391.017594298     A.U. after   12 cycles
 SCF Done:  E(RB3LYP) =  -391.017927011     A.U. after   12 cycles
 SCF Done:  E(RB3LYP) =  -391.018326056     A.U. after   12 cycles
 SCF Done:  E(RB3LYP) =  -391.018566857     A.U. after   12 cycles
 SCF Done:  E(RB3LYP) =  -391.018592145     A.U. after   11 cycles
 SCF Done:  E(RB3LYP) =  -391.018599143     A.U. after    9 cycles
 SCF Done:  E(RB3LYP) =  -391.018598719     A.U. after   11 cycles
 SCF Done:  E(RB3LYP) =  -391.018607146     A.U. after   10 cycles
 SCF Done:  E(RB3LYP) =  -391.018607846     A.U. after    8 cycles
 SCF Done:  E(RB3LYP) =  -391.018608062     A.U. after    8 cycles
 Optimization completed.
    -- Stationary point found.
 Normal termination of Gaussian 09 at Sat Aug 21 01:37:52 2021.

 ----------------------------------------------------------------------
 #P Geom=AllCheck Guess=TCheck SCRF=Check GenChk RB3LYP/6-31G(d,p) Freq
 ----------------------------------------------------------------------

 Structure from the checkpoint file:  "/public/home/users/caep010/.cache/gau_scr/Gau-133373.chk"
 --------
 Frag_170
 --------
 Charge =  0 Multiplicity = 1

                         Standard orientation:
 ---------------------------------------------------------------------
 Center     Atomic      Atomic             Coordinates (Angstroms)
 Number     Number       Type             X           Y           Z
 ---------------------------------------------------------------------
      1          6           0       -2.041191    0.066810    0.165815
      2          6           0       -1.191467   -1.211224   -0.121206
      3          7           0        0.140432   -0.646272    0.027011
      4          7           0        1.424941   -1.090423    0.041573
      5          7           0        2.148202   -0.016287    0.041030
      6          7           0        1.389597    1.137769   -0.010595
      7          6           0        0.151188    0.694901   -0.033067
      8          7           0       -1.130662    1.189295   -0.177683
      9          1           0       -2.947828    0.099821   -0.442018
     10          1           0       -2.326231    0.093238    1.225840
     11          1           0       -1.337725   -1.586993   -1.139455
     12          1           0       -1.382144   -2.014971    0.591695
     13          1           0       -1.324823    2.087408    0.245338
 ---------------------------------------------------------------------

 SCF Done:  E(RB3LYP) =  -391.018608062     A.U. after    1 cycles

 The electronic state is 1-A.
 Alpha  occ. eigenvalues --  -14.42310 -14.39508 -14.38546 -14.38145 -14.34345
 Alpha  occ. eigenvalues --  -10.29101 -10.27231 -10.26764  -1.12847  -0.99795
 Alpha  occ. eigenvalues --   -0.92869  -0.85887  -0.79218  -0.67838  -0.66562
 Alpha  occ. eigenvalues --   -0.61505  -0.54376  -0.53396  -0.50655  -0.47961
 Alpha  occ. eigenvalues --   -0.45804  -0.43312  -0.42373  -0.36117  -0.34221
 Alpha  occ. eigenvalues --   -0.29963  -0.28900  -0.27509  -0.24454
 Alpha virt. eigenvalues --   -0.00368   0.04476   0.05485   0.08204   0.09997
 Alpha virt. eigenvalues --    0.11691   0.11802   0.13812   0.17548   0.19317
 Alpha virt. eigenvalues --    0.21333   0.25300   0.28555   0.31281   0.39258

 Mulliken charges:
               1
     1  C   -0.077046
     2  C   -0.036005
     3  N   -0.340770
     4  N   -0.076680
     5  N   -0.090597
     6  N   -0.440390
     7  C    0.796459
     8  N   -0.585159
     9  H    0.136100
    10  H    0.132149
    11  H    0.151481
    12  H    0.150148
    13  H    0.280311
 Sum of Mulliken charges =  -0.00000

 Dipole moment (field-independent basis, Debye):
    X=             -7.0542    Y=             -0.5185    Z=              0.7251  Tot=              7.1103
 Quadrupole moment (field-independent basis, Debye-Ang):
   XX=            -49.8947   YY=            -44.8693   ZZ=            -45.0853
   XY=             -0.5569   XZ=             -1.4863   YZ=              1.9825

  Exact polarizability:  73.772   0.713  59.359   0.191   0.631  35.852
 Approx polarizability: 114.078   1.944 104.068   1.844  -0.738  54.494

                      1                      2                      3
                      A                      A                      A
 Frequencies --    158.8618               187.4403               310.7780
 Red. masses --      4.0684                 2.0991                 4.5458
 Frc consts  --      0.0605                 0.0435                 0.2587
 IR Inten    --      0.9671                 2.5736                 3.5769

                      4                      5                      6
                      A                      A                      A
 Frequencies --    437.0095               542.0257               658.0228
 Red. masses --      5.6538                 1.7771                 3.3579
 Frc consts  --      0.6362                 0.3076                 0.8566
 IR Inten    --      2.5204               109.5712                30.4322

                      7                      8                      9
                      A                      A                      A
 Frequencies --    689.2588               730.7388               761.6629
 Red. masses --     10.6968                 7.2044                 4.4440
 Frc consts  --      2.9941                 2.2666                 1.5190
 IR Inten    --      7.6416                12.1219                11.8401

                     10                     11                     12
                      A                      A                      A
 Frequencies --    818.0637               889.1469               945.4771
 Red. masses --      2.1811                 2.5105                 2.2233
 Frc consts  --      0.8600                 1.1694                 1.1710
 IR Inten    --     18.7991                 4.2232                 1.6256

                     13                     14                     15
                      A                      A                      A
 Frequencies --    968.6494              1036.9973              1096.3239
 Red. masses --     10.4321                 3.4651                 6.3021
 Frc consts  --      5.7671                 2.1955                 4.4629
 IR Inten    --     21.3887                 2.7071                20.1167

                     16                     17                     18
                      A                      A                      A
 Frequencies --   1125.6431              1158.6302              1215.8907
 Red. masses --      1.7538                 2.5743                 1.2613
 Frc consts  --      1.3093                 2.0361                 1.0987
 IR Inten    --      8.9748                 3.7353                 1.8157

                     19                     20                     21
                      A                      A                      A
 Frequencies --   1243.6422              1282.9815              1308.5954
 Red. masses --      1.9346                 2.4034                 2.2959
 Frc consts  --      1.7629                 2.3309                 2.3164
 IR Inten    --     13.9738                44.1466                 6.7799

                     22                     23                     24
                      A                      A                      A
 Frequencies --   1339.7706              1354.4929              1413.0391
 Red. masses --      1.4803                 2.6352                 1.7483
 Frc consts  --      1.5655                 2.8485                 2.0567
 IR Inten    --      4.9552                23.2169                 4.7464

                     25                     26                     27
                      A                      A                      A
 Frequencies --   1514.0196              1535.2672              1551.3427
 Red. masses --      1.3912                 1.1752                 2.2771
 Frc consts  --      1.8790                 1.6321                 3.2289
 IR Inten    --      4.9212                13.2717                21.8687

                     28                     29                     30
                      A                      A                      A
 Frequencies --   1632.1366              3033.8243              3068.9180
 Red. masses --      7.1755                 1.0701                 1.0648
 Frc consts  --     11.2620                 5.8028                 5.9084
 IR Inten    --    201.5988                44.2456                24.9261

                     31                     32                     33
                      A                      A                      A
 Frequencies --   3122.4121              3141.7903              3618.1389
 Red. masses --      1.0969                 1.1041                 1.0773
 Frc consts  --      6.3007                 6.4213                 8.3090
 IR Inten    --     21.9965                12.6036                35.1122

 - Thermochemistry -
 -------------------
 Temperature   298.150 Kelvin.  Pressure   1.00000 Atm.
 Atom     1 has atomic number  6 and mass  12.00000

 Molecular mass:   111.05450 amu.
 Principal axes and moments of inertia in atomic units:
                           1         2         3
     Eigenvalues --   354.73533 817.686671140.77854
           X            0.99989   0.01348  -0.00534
           Y           -0.01341   0.99983   0.01298
           Z            0.00552  -0.01291   0.99990
 This molecule is an asymmetric top.
 Rotational symmetry number  1.
 Rotational temperatures (Kelvin)      0.24416     0.10593     0.07593
 Rotational constants (GHZ):           5.08757     2.20713     1.58203
 Zero-point vibrational energy     262526.4 (Joules/Mol)
                                   62.74532 (Kcal/Mol)
 Warning -- explicit consideration of   5 degrees of freedom as
           vibrations may cause significant error
 Vibrational temperatures:    228.57   269.68   447.14   628.76   779.85
          (Kelvin)            946.75   991.69  1051.37  1095.86  1177.01
                             1279.28  1360.33  1393.67  1492.01  1577.36
                             1619.55  1667.01  1749.39  1789.32  1845.92
                             1882.77  1927.63  1948.81  2033.05  2178.33
                             2208.90  2232.03  2348.28  4364.99  4415.48
                             4492.45  4520.33  5205.69

 Zero-point correction=                           0.099991 (Hartree/Particle)
 Thermal correction to Energy=                    0.105758
 Thermal correction to Enthalpy=                  0.106702
 Thermal correction to Gibbs Free Energy=         0.070057
 Sum of electronic and zero-point Energies=           -390.918617
 Sum of electronic and thermal Energies=              -390.912850
 Sum of electronic and thermal Enthalpies=            -390.911906
 Sum of electronic and thermal Free Energies=         -390.948552

                     E (Thermal)             CV                S
                      KCal/Mol        Cal/Mol-Kelvin    Cal/Mol-Kelvin
 Total                   66.364             21.539             77.127
 Electronic               0.000              0.000              0.000
 Translational            0.889              2.981             40.031
 Rotational               0.889              2.981             27.295
 Vibrational             64.587             15.578              9.802
 Vibration     1          0.621              1.893              2.563
 Vibration     2          0.632              1.857              2.253
 Vibration     3          0.700              1.653              1.358
 Vibration     4          0.797              1.390              0.836
 Vibration     5          0.897              1.157              0.561

 Optimization completed.
    -- Stationary point found.
 Normal termination of Gaussian 09 at Sat Aug 21 01:38:05 2021.
