 Gaussian 09, Revision E.01,
 Gaussian 09:  ES64L-G09RevE.01 30-Nov-2015

 ----------------------------
 #P OPT Freq B3LYP/6-31G(d,p)
 ----------------------------

 --------
 Frag_972
 --------
 Symbolic Z-matrix:
 Charge =  0 Multiplicity = 1

 SCF Done:  E(RB3LYP) =  -379.093323112     A.U. after   13 cycles
 SCF Done:  E(RB3LYP) =  -379.093441575     A.U. after    9 cycles
 SCF Done:  E(RB3LYP) =  -379.093442885     A.U. after   11 cycles
 SCF Done:  E(RB3LYP) =  -379.093438021     A.U. after   11 cycles
 SCF Done:  E(RB3LYP) =  -379.093452665     A.U. after   10 cycles
 SCF Done:  E(RB3LYP) =  -379.093454998     A.U. after    9 cycles
 SCF Done:  E(RB3LYP) =  -379.093457839     A.U. after    8 cycles
 SCF Done:  E(RB3LYP) =  -379.093459372     A.U. after    9 cycles
 SCF Done:  E(RB3LYP) =  -379.093459735     A.U. after    8 cycles
 SCF Done:  E(RB3LYP) =  -379.093459909     A.U. after    7 cycles
 Optimization completed.
    -- Stationary point found.
 Normal termination of Gaussian 09 at Thu Sep  8 14:58:43 2022.

 ----------------------------------------------------------------------
 #P Geom=AllCheck Guess=TCheck SCRF=Check GenChk RB3LYP/6-31G(d,p) Freq
 ----------------------------------------------------------------------

 Structure from the checkpoint file:  "B3LYP6-31Gdp.Frag_972.chk"
 --------
 Frag_972
 --------
 Charge =  0 Multiplicity = 1

                         Standard orientation:
 ---------------------------------------------------------------------
 Center     Atomic      Atomic             Coordinates (Angstroms)
 Number     Number       Type             X           Y           Z
 ---------------------------------------------------------------------
      1          6           0        1.834308   -0.970868   -0.024188
      2          6           0        0.921959    0.224499    0.008992
      3          8           0        1.323700    1.376435   -0.004306
      4          6           0       -0.619232   -0.024088    0.012929
      5          7           0       -0.958182   -0.841386    1.169388
      6          7           0       -0.949795   -0.736664   -1.218290
      7          8           0       -1.255358    1.227692    0.004598
      8          1           0        1.587209   -1.654344    0.792997
      9          1           0        1.665397   -1.513718   -0.959290
     10          1           0        2.874478   -0.649378    0.037085
     11          1           0       -0.715774   -0.329829    2.017732
     12          1           0       -1.973386   -0.938882    1.187167
     13          1           0       -1.200285   -1.700640   -1.024246
     14          1           0       -1.721772   -0.258263   -1.669709
     15          1           0       -0.528976    1.881131   -0.028145
 ---------------------------------------------------------------------

 SCF Done:  E(RB3LYP) =  -379.093459909     A.U. after    1 cycles

 The electronic state is 1-A.
 Alpha  occ. eigenvalues --  -19.15818 -19.14189 -14.32949 -14.32174 -10.29712
 Alpha  occ. eigenvalues --  -10.28314 -10.18975  -1.06812  -1.02528  -0.90817
 Alpha  occ. eigenvalues --   -0.85054  -0.75122  -0.65226  -0.56305  -0.52205
 Alpha  occ. eigenvalues --   -0.50052  -0.49541  -0.45598  -0.44487  -0.42824
 Alpha  occ. eigenvalues --   -0.42389  -0.40460  -0.36435  -0.34480  -0.31496
 Alpha  occ. eigenvalues --   -0.28747  -0.25714  -0.23979
 Alpha virt. eigenvalues --   -0.02417   0.07408   0.11898   0.12374   0.13611
 Alpha virt. eigenvalues --    0.14508   0.15070   0.16320   0.18344   0.21765
 Alpha virt. eigenvalues --    0.24609   0.26734   0.28266   0.30893   0.35988

 Mulliken charges:
               1
     1  C   -0.389575
     2  C    0.447475
     3  O   -0.464634
     4  C    0.396568
     5  N   -0.583424
     6  N   -0.602214
     7  O   -0.564895
     8  H    0.146580
     9  H    0.157204
    10  H    0.133473
    11  H    0.243868
    12  H    0.244794
    13  H    0.250339
    14  H    0.261094
    15  H    0.323348
 Sum of Mulliken charges =  -0.00000

 Dipole moment (field-independent basis, Debye):
    X=             -0.9745    Y=             -1.9447    Z=              0.7394  Tot=              2.2974
 Quadrupole moment (field-independent basis, Debye-Ang):
   XX=            -39.7596   YY=            -43.4068   ZZ=            -39.9110
   XY=             -0.0803   XZ=              0.7054   YZ=              0.9721

  Exact polarizability:  53.971   1.532  54.083   1.561   0.383  44.155
 Approx polarizability:  69.651   5.924  83.849   3.096   0.715  61.851

                      1                      2                      3
                      A                      A                      A
 Frequencies --     57.5636               113.9990               156.4739
 Red. masses --      3.2037                 1.2125                 1.0903
 Frc consts  --      0.0063                 0.0093                 0.0157
 IR Inten    --      0.9682                 0.7850                21.4631

                      4                      5                      6
                      A                      A                      A
 Frequencies --    233.3967               267.8149               313.4657
 Red. masses --      2.8790                 3.0740                 1.1658
 Frc consts  --      0.0924                 0.1299                 0.0675
 IR Inten    --      9.4262                 6.4606                44.1788

                      7                      8                      9
                      A                      A                      A
 Frequencies --    400.0429               408.1085               444.7548
 Red. masses --      3.6900                 4.1955                 3.9861
 Frc consts  --      0.3479                 0.4117                 0.4646
 IR Inten    --     20.2048                 8.0073                29.7029

                     10                     11                     12
                      A                      A                      A
 Frequencies --    512.1929               527.4543               606.7489
 Red. masses --      3.0714                 1.1870                 4.0507
 Frc consts  --      0.4747                 0.1946                 0.8786
 IR Inten    --      8.9654                30.7007                14.1551

                     13                     14                     15
                      A                      A                      A
 Frequencies --    634.4605               715.1064               789.3874
 Red. masses --      2.0467                 2.8433                 1.6331
 Frc consts  --      0.4854                 0.8567                 0.5996
 IR Inten    --     13.1973                29.7635               162.8204

                     16                     17                     18
                      A                      A                      A
 Frequencies --    903.6823               975.1253               994.5770
 Red. masses --      1.8622                 2.2647                 1.6959
 Frc consts  --      0.8960                 1.2688                 0.9884
 IR Inten    --    152.6352                37.7100                 9.6096

                     19                     20                     21
                      A                      A                      A
 Frequencies --   1031.1683              1060.5270              1160.8740
 Red. masses --      1.9781                 2.0714                 2.4189
 Frc consts  --      1.2392                 1.3726                 1.9206
 IR Inten    --     31.6629                40.4805                62.6033

                     22                     23                     24
                      A                      A                      A
 Frequencies --   1230.2626              1278.5911              1320.9045
 Red. masses --      2.9547                 1.4427                 1.9673
 Frc consts  --      2.6349                 1.3896                 2.0224
 IR Inten    --     60.3828               148.0885                49.1052

                     25                     26                     27
                      A                      A                      A
 Frequencies --   1393.3722              1457.5275              1475.7630
 Red. masses --      1.3642                 1.6668                 1.0560
 Frc consts  --      1.5605                 2.0863                 1.3550
 IR Inten    --     43.5274                96.4394                12.3850

                     28                     29                     30
                      A                      A                      A
 Frequencies --   1485.5919              1622.3894              1666.8050
 Red. masses --      1.0698                 1.1231                 1.0997
 Frc consts  --      1.3910                 1.7417                 1.8001
 IR Inten    --     20.4841                28.6412                34.9900

                     31                     32                     33
                      A                      A                      A
 Frequencies --   1802.6375              3065.1471              3134.6924
 Red. masses --     10.6482                 1.0346                 1.0989
 Frc consts  --     20.3865                 5.7271                 6.3621
 IR Inten    --    133.4667                 0.7491                 2.0661

                     34                     35                     36
                      A                      A                      A
 Frequencies --   3172.1852              3466.1368              3526.4590
 Red. masses --      1.1057                 1.0500                 1.0480
 Frc consts  --      6.5553                 7.4324                 7.6788
 IR Inten    --      8.4948                 0.3761                 4.3438

                     37                     38                     39
                      A                      A                      A
 Frequencies --   3548.2917              3624.0324              3635.5932
 Red. masses --      1.0912                 1.0646                 1.0961
 Frc consts  --      8.0942                 8.2381                 8.5358
 IR Inten    --      0.6401               113.1045                11.2063

 - Thermochemistry -
 -------------------
 Temperature   298.150 Kelvin.  Pressure   1.00000 Atm.
 Atom     1 has atomic number  6 and mass  12.00000

 Molecular mass:   104.05858 amu.
 Principal axes and moments of inertia in atomic units:
                           1         2         3
     Eigenvalues --   526.15357 742.09629 904.77457
           X            0.99840  -0.05649   0.00063
           Y            0.05648   0.99836   0.00948
           Z           -0.00116  -0.00943   0.99995
 This molecule is an asymmetric top.
 Rotational symmetry number  1.
 Warning -- assumption of classical behavior for rotation
           may cause significant error
 Rotational temperatures (Kelvin)      0.16462     0.11672     0.09573
 Rotational constants (GHZ):           3.43007     2.43195     1.99469
 Zero-point vibrational energy     324267.6 (Joules/Mol)
                                   77.50181 (Kcal/Mol)
 Warning -- explicit consideration of  12 degrees of freedom as
           vibrations may cause significant error
 Vibrational temperatures:     82.82   164.02   225.13   335.81   385.33
          (Kelvin)            451.01   575.57   587.18   639.90   736.93
                              758.89   872.98   912.85  1028.88  1135.75
                             1300.20  1402.99  1430.97  1483.62  1525.86
                             1670.24  1770.07  1839.61  1900.48  2004.75
                             2097.05  2123.29  2137.43  2334.25  2398.16
                             2593.59  4410.06  4510.12  4564.06  4986.99
                             5073.78  5105.19  5214.17  5230.80

 Zero-point correction=                           0.123507 (Hartree/Particle)
 Thermal correction to Energy=                    0.131941
 Thermal correction to Enthalpy=                  0.132885
 Thermal correction to Gibbs Free Energy=         0.090928
 Sum of electronic and zero-point Energies=           -378.969953
 Sum of electronic and thermal Energies=              -378.961519
 Sum of electronic and thermal Enthalpies=            -378.960574
 Sum of electronic and thermal Free Energies=         -379.002532

                     E (Thermal)             CV                S
                      KCal/Mol        Cal/Mol-Kelvin    Cal/Mol-Kelvin
 Total                   82.794             30.222             88.306
 Electronic               0.000              0.000              0.000
 Translational            0.889              2.981             39.837
 Rotational               0.889              2.981             27.360
 Vibrational             81.017             24.260             21.110
 Vibration     1          0.596              1.974              4.539
 Vibration     2          0.607              1.938              3.200
 Vibration     3          0.620              1.895              2.592
 Vibration     4          0.654              1.790              1.853
 Vibration     5          0.673              1.732              1.610
 Vibration     6          0.701              1.648              1.344
 Vibration     7          0.766              1.470              0.962
 Vibration     8          0.773              1.453              0.933
 Vibration     9          0.804              1.372              0.812
 Vibration    10          0.867              1.223              0.628
 Vibration    11          0.882              1.189              0.593
 Vibration    12          0.965              1.018              0.438

 Normal termination of Gaussian 09 at Thu Sep  8 14:58:57 2022.
