 Gaussian 09, Revision E.01,
 Gaussian 09:  ES64L-G09RevE.01 30-Nov-2015

 ----------------------------
 #P OPT Freq B3LYP/6-31G(d,p)
 ----------------------------

 ---------
 Frag_1042
 ---------
 Symbolic Z-matrix:
 Charge =  0 Multiplicity = 1

 SCF Done:  E(RB3LYP) =  -246.243050235     A.U. after   13 cycles
 SCF Done:  E(RB3LYP) =  -246.243104330     A.U. after    9 cycles
 SCF Done:  E(RB3LYP) =  -246.243113129     A.U. after    8 cycles
 SCF Done:  E(RB3LYP) =  -246.243115163     A.U. after    8 cycles
 SCF Done:  E(RB3LYP) =  -246.243116043     A.U. after    8 cycles
 SCF Done:  E(RB3LYP) =  -246.243116603     A.U. after    8 cycles
 SCF Done:  E(RB3LYP) =  -246.243116723     A.U. after    7 cycles
 Optimization completed.
    -- Stationary point found.
 Normal termination of Gaussian 09 at Thu Sep  8 14:51:23 2022.

 ----------------------------------------------------------------------
 #P Geom=AllCheck Guess=TCheck SCRF=Check GenChk RB3LYP/6-31G(d,p) Freq
 ----------------------------------------------------------------------

 Structure from the checkpoint file:  "B3LYP6-31Gdp.Frag_1042.chk"
 ---------
 Frag_1042
 ---------
 Charge =  0 Multiplicity = 1

                         Standard orientation:
 ---------------------------------------------------------------------
 Center     Atomic      Atomic             Coordinates (Angstroms)
 Number     Number       Type             X           Y           Z
 ---------------------------------------------------------------------
      1          7           0        1.736378    0.149146    0.111981
      2          8           0        0.467218   -0.475648   -0.179294
      3          6           0       -0.556813    0.498348    0.031806
      4          8           0       -1.782431   -0.151745   -0.047918
      5          1           0        2.192028   -0.525589    0.728041
      6          1           0        2.242930    0.089605   -0.773401
      7          1           0       -0.548137    1.256114   -0.761973
      8          1           0       -0.379889    0.988268    1.002114
      9          1           0       -1.798995   -0.823363    0.648211
 ---------------------------------------------------------------------

 SCF Done:  E(RB3LYP) =  -246.243116723     A.U. after    1 cycles

 The electronic state is 1-A.
 Alpha  occ. eigenvalues --  -19.17003 -19.15362 -14.37345 -10.27225  -1.07322
 Alpha  occ. eigenvalues --   -1.01602  -0.81352  -0.65070  -0.52187  -0.50540
 Alpha  occ. eigenvalues --   -0.49891  -0.44364  -0.40280  -0.35107  -0.29719
 Alpha  occ. eigenvalues --   -0.26654  -0.25566
 Alpha virt. eigenvalues --    0.07246   0.08428   0.11336   0.14481   0.15361
 Alpha virt. eigenvalues --    0.18344   0.19793   0.25937   0.51934   0.56195
 Alpha virt. eigenvalues --    0.62127   0.63067   0.71607   0.73259   0.75960

 Mulliken charges:
               1
     1  N   -0.368261
     2  O   -0.442991
     3  C    0.322720
     4  O   -0.523403
     5  H    0.262027
     6  H    0.263659
     7  H    0.096124
     8  H    0.080306
     9  H    0.309819
 Sum of Mulliken charges =  -0.00000

 Dipole moment (field-independent basis, Debye):
    X=              1.6504    Y=             -0.5950    Z=              1.0152  Tot=              2.0270
 Quadrupole moment (field-independent basis, Debye-Ang):
   XX=            -21.5916   YY=            -23.9637   ZZ=            -22.3724
   XY=             -0.8701   XZ=             -3.1150   YZ=             -2.5577

  Exact polarizability:  35.296   0.508  23.220  -0.209  -2.477  23.815
 Approx polarizability:  43.488   2.093  31.563   0.867  -2.973  31.806

                      1                      2                      3
                      A                      A                      A
 Frequencies --     87.4548               188.8629               313.6607
 Red. masses --      3.3994                 1.1214                 2.1491
 Frc consts  --      0.0153                 0.0236                 0.1246
 IR Inten    --      4.1000                46.8544                43.3957

                      4                      5                      6
                      A                      A                      A
 Frequencies --    397.7065               525.8150               932.8041
 Red. masses --      1.6059                 5.5630                 6.5414
 Frc consts  --      0.1497                 0.9062                 3.3535
 IR Inten    --    105.2158                18.4197                 3.8330

                      7                      8                      9
                      A                      A                      A
 Frequencies --    994.2842              1079.4786              1150.7410
 Red. masses --      2.8152                 1.4956                 3.6819
 Frc consts  --      1.6398                 1.0268                 2.8726
 IR Inten    --    123.5080                90.9409               149.3895

                     10                     11                     12
                      A                      A                      A
 Frequencies --   1234.3818              1240.3999              1318.0346
 Red. masses --      1.1942                 1.4703                 1.1318
 Frc consts  --      1.0721                 1.3328                 1.1584
 IR Inten    --      4.9406                38.5950                 4.2165

                     13                     14                     15
                      A                      A                      A
 Frequencies --   1391.6065              1449.7202              1555.3059
 Red. masses --      1.2944                 1.2119                 1.0969
 Frc consts  --      1.4769                 1.5006                 1.5633
 IR Inten    --     21.8679                79.6271                 3.2747

                     16                     17                     18
                      A                      A                      A
 Frequencies --   1661.1643              2991.7755              3061.6663
 Red. masses --      1.0683                 1.0621                 1.1039
 Frc consts  --      1.7369                 5.6012                 6.0966
 IR Inten    --     17.9808                74.3173                71.1258

                     19                     20                     21
                      A                      A                      A
 Frequencies --   3430.7886              3520.2719              3802.5044
 Red. masses --      1.0481                 1.0956                 1.0654
 Frc consts  --      7.2682                 7.9994                 9.0765
 IR Inten    --      2.0102                 0.1445                19.8095

 - Thermochemistry -
 -------------------
 Temperature   298.150 Kelvin.  Pressure   1.00000 Atm.
 Atom     1 has atomic number  7 and mass  14.00307

 Molecular mass:    63.03203 amu.
 Principal axes and moments of inertia in atomic units:
                           1         2         3
     Eigenvalues --    52.41151 419.92976 445.55908
           X            0.99992  -0.00642  -0.01054
           Y            0.00500   0.99149  -0.13012
           Z            0.01129   0.13006   0.99144
 This molecule is an asymmetric top.
 Rotational symmetry number  1.
 Rotational temperatures (Kelvin)      1.65257     0.20626     0.19439
 Rotational constants (GHZ):          34.43406     4.29772     4.05051
 Zero-point vibrational energy     193366.9 (Joules/Mol)
                                   46.21581 (Kcal/Mol)
 Warning -- explicit consideration of   5 degrees of freedom as
           vibrations may cause significant error
 Vibrational temperatures:    125.83   271.73   451.29   572.21   756.53
          (Kelvin)           1342.10  1430.55  1553.13  1655.66  1776.00
                             1784.66  1896.36  2002.21  2085.82  2237.74
                             2390.04  4304.49  4405.05  4936.13  5064.88
                             5470.95

 Zero-point correction=                           0.073650 (Hartree/Particle)
 Thermal correction to Energy=                    0.078932
 Thermal correction to Enthalpy=                  0.079876
 Thermal correction to Gibbs Free Energy=         0.045910
 Sum of electronic and zero-point Energies=           -246.169467
 Sum of electronic and thermal Energies=              -246.164184
 Sum of electronic and thermal Enthalpies=            -246.163240
 Sum of electronic and thermal Free Energies=         -246.197206

                     E (Thermal)             CV                S
                      KCal/Mol        Cal/Mol-Kelvin    Cal/Mol-Kelvin
 Total                   49.531             16.273             71.488
 Electronic               0.000              0.000              0.000
 Translational            0.889              2.981             38.342
 Rotational               0.889              2.981             23.798
 Vibrational             47.753             10.312              9.347
 Vibration     1          0.601              1.958              3.716
 Vibration     2          0.633              1.855              2.239
 Vibration     3          0.702              1.648              1.343
 Vibration     4          0.764              1.475              0.971
 Vibration     5          0.881              1.193              0.597

 Optimization completed.
    -- Stationary point found.
 Normal termination of Gaussian 09 at Thu Sep  8 14:51:29 2022.
