 Gaussian 09, Revision E.01,
 Gaussian 09:  ES64L-G09RevE.01 30-Nov-2015

 -------------------------
 #P OPT Freq B3LYP/6-31G**
 -------------------------

 --------
 Frag_205
 --------
 Symbolic Z-matrix:
 Charge =  0 Multiplicity = 1

 SCF Done:  E(RB3LYP) =  -194.349523536     A.U. after   12 cycles
 SCF Done:  E(RB3LYP) =  -194.352147208     A.U. after   11 cycles
 SCF Done:  E(RB3LYP) =  -194.352479292     A.U. after   10 cycles
 SCF Done:  E(RB3LYP) =  -194.352795148     A.U. after   11 cycles
 SCF Done:  E(RB3LYP) =  -194.352889353     A.U. after   10 cycles
 SCF Done:  E(RB3LYP) =  -194.352936006     A.U. after   10 cycles
 SCF Done:  E(RB3LYP) =  -194.352940823     A.U. after    9 cycles
 SCF Done:  E(RB3LYP) =  -194.352941913     A.U. after    7 cycles
 SCF Done:  E(RB3LYP) =  -194.352942033     A.U. after    6 cycles
 Optimization completed.
    -- Stationary point found.
 Normal termination of Gaussian 09 at Sat Aug 21 01:36:40 2021.

 ----------------------------------------------------------------------
 #P Geom=AllCheck Guess=TCheck SCRF=Check GenChk RB3LYP/6-31G(d,p) Freq
 ----------------------------------------------------------------------

 Structure from the checkpoint file:  "/public/home/users/caep010/.cache/gau_scr/Gau-12496.chk"
 --------
 Frag_205
 --------
 Charge =  0 Multiplicity = 1

                         Standard orientation:
 ---------------------------------------------------------------------
 Center     Atomic      Atomic             Coordinates (Angstroms)
 Number     Number       Type             X           Y           Z
 ---------------------------------------------------------------------
      1          6           0        1.553492    0.516098   -0.089415
      2          6           0        0.593924   -0.620671    0.260411
      3          8           0       -0.657977   -0.538720   -0.405509
      4          6           0       -1.526705    0.444579    0.116897
      5          1           0        2.524752    0.350791    0.389198
      6          1           0        1.180129    1.487760    0.248239
      7          1           0        1.706568    0.565420   -1.171627
      8          1           0        0.440314   -0.667336    1.351829
      9          1           0        1.024962   -1.578201   -0.050454
     10          1           0       -2.478405    0.342898   -0.410631
     11          1           0       -1.703684    0.299738    1.194924
     12          1           0       -1.155079    1.468657   -0.034763
 ---------------------------------------------------------------------

 SCF Done:  E(RB3LYP) =  -194.352942033     A.U. after    1 cycles

 The electronic state is 1-A.
 Alpha  occ. eigenvalues --  -19.14091 -10.22782 -10.22284 -10.17567  -1.02253
 Alpha  occ. eigenvalues --   -0.75313  -0.68178  -0.59675  -0.48001  -0.47673
 Alpha  occ. eigenvalues --   -0.44526  -0.40496  -0.39354  -0.37248  -0.34994
 Alpha  occ. eigenvalues --   -0.30383  -0.24849
 Alpha virt. eigenvalues --    0.09039   0.12661   0.13421   0.15117   0.16064
 Alpha virt. eigenvalues --    0.16795   0.17635   0.19006   0.21361   0.23948
 Alpha virt. eigenvalues --    0.26197   0.50577   0.51772   0.53531   0.55756

 Mulliken charges:
               1
     1  C   -0.331981
     2  C    0.066700
     3  O   -0.472546
     4  C   -0.061448
     5  H    0.102186
     6  H    0.107056
     7  H    0.118718
     8  H    0.077369
     9  H    0.102904
    10  H    0.113991
    11  H    0.086481
    12  H    0.090570
 Sum of Mulliken charges =   0.00000

 Dipole moment (field-independent basis, Debye):
    X=              0.3851    Y=              0.8015    Z=              0.9240  Tot=              1.2824
 Quadrupole moment (field-independent basis, Debye-Ang):
   XX=            -24.5632   YY=            -26.6320   ZZ=            -26.9083
   XY=             -1.7969   XZ=             -0.5008   YZ=             -0.5634

  Exact polarizability:  43.071  -1.957  35.267   0.054  -0.542  34.286
 Approx polarizability:  50.957  -2.378  47.057   1.008   0.940  47.676

                      1                      2                      3
                      A                      A                      A
 Frequencies --    108.8420               208.8160               252.4961
 Red. masses --      1.5557                 1.1373                 1.3052
 Frc consts  --      0.0109                 0.0292                 0.0490
 IR Inten    --      2.2985                 1.6620                 1.1887

                      4                      5                      6
                      A                      A                      A
 Frequencies --    379.3318               463.6121               806.7928
 Red. masses --      2.3771                 2.3617                 1.1182
 Frc consts  --      0.2015                 0.2991                 0.4288
 IR Inten    --      4.7001                 5.3811                 2.5235

                      7                      8                      9
                      A                      A                      A
 Frequencies --    855.9467               999.1152              1093.9080
 Red. masses --      2.4534                 2.9473                 2.2232
 Frc consts  --      1.0590                 1.7334                 1.5674
 IR Inten    --      9.8172                19.6493                20.9761

                     10                     11                     12
                      A                      A                      A
 Frequencies --   1140.9703              1183.0976              1204.4371
 Red. masses --      1.7906                 1.3350                 2.5985
 Frc consts  --      1.3734                 1.1009                 2.2209
 IR Inten    --     43.7059                 9.0391               100.2076

                     13                     14                     15
                      A                      A                      A
 Frequencies --   1243.1536              1340.9018              1403.2004
 Red. masses --      1.6377                 1.1332                 1.2151
 Frc consts  --      1.4912                 1.2005                 1.4096
 IR Inten    --     10.0860                 8.1809                 5.6292

                     16                     17                     18
                      A                      A                      A
 Frequencies --   1428.0960              1487.3519              1496.2851
 Red. masses --      1.2841                 1.1244                 1.0463
 Frc consts  --      1.5430                 1.4655                 1.3802
 IR Inten    --     27.8943                 1.4771                 4.7874

                     19                     20                     21
                      A                      A                      A
 Frequencies --   1504.3261              1511.3417              1521.0623
 Red. masses --      1.0617                 1.0617                 1.0501
 Frc consts  --      1.4155                 1.4289                 1.4314
 IR Inten    --      0.5376                 2.4266                 3.3081

                     22                     23                     24
                      A                      A                      A
 Frequencies --   1531.6493              2975.9363              2985.2677
 Red. masses --      1.0873                 1.0601                 1.0502
 Frc consts  --      1.5029                 5.5318                 5.5142
 IR Inten    --      5.5536                48.0960                77.7264

                     25                     26                     27
                      A                      A                      A
 Frequencies --   3034.0012              3049.9870              3081.4172
 Red. masses --      1.0980                 1.0380                 1.0933
 Frc consts  --      5.9551                 5.6893                 6.1165
 IR Inten    --     54.0444                25.8699                21.8075

                     28                     29                     30
                      A                      A                      A
 Frequencies --   3119.2066              3124.0517              3130.8076
 Red. masses --      1.1006                 1.0971                 1.1035
 Frc consts  --      6.3090                 6.3084                 6.3730
 IR Inten    --     46.0997                23.6203                39.9692

 - Thermochemistry -
 -------------------
 Temperature   298.150 Kelvin.  Pressure   1.00000 Atm.
 Atom     1 has atomic number  6 and mass  12.00000

 Molecular mass:    60.05751 amu.
 Principal axes and moments of inertia in atomic units:
                           1         2         3
     Eigenvalues --   112.29725 354.36608 404.77041
           X            0.99972  -0.01989  -0.01272
           Y            0.01921   0.99847  -0.05188
           Z            0.01373   0.05162   0.99857
 This molecule is an asymmetric top.
 Rotational symmetry number  1.
 Rotational temperatures (Kelvin)      0.77129     0.24442     0.21398
 Rotational constants (GHZ):          16.07111     5.09287     4.45868
 Zero-point vibrational energy     285102.5 (Joules/Mol)
                                   68.14112 (Kcal/Mol)
 Warning -- explicit consideration of   5 degrees of freedom as
           vibrations may cause significant error
 Vibrational temperatures:    156.60   300.44   363.29   545.77   667.03
          (Kelvin)           1160.79  1231.51  1437.50  1573.89  1641.60
                             1702.21  1732.91  1788.62  1929.26  2018.89
                             2054.71  2139.97  2152.82  2164.39  2174.48
                             2188.47  2203.70  4281.70  4295.13  4365.25
                             4388.25  4433.47  4487.84  4494.81  4504.53

 Zero-point correction=                           0.108590 (Hartree/Particle)
 Thermal correction to Energy=                    0.114077
 Thermal correction to Enthalpy=                  0.115021
 Thermal correction to Gibbs Free Energy=         0.080732
 Sum of electronic and zero-point Energies=           -194.244352
 Sum of electronic and thermal Energies=              -194.238865
 Sum of electronic and thermal Enthalpies=            -194.237921
 Sum of electronic and thermal Free Energies=         -194.272210

                     E (Thermal)             CV                S
                      KCal/Mol        Cal/Mol-Kelvin    Cal/Mol-Kelvin
 Total                   71.584             17.812             72.167
 Electronic               0.000              0.000              0.000
 Translational            0.889              2.981             38.198
 Rotational               0.889              2.981             24.292
 Vibrational             69.807             11.850              9.677
 Vibration     1          0.606              1.942              3.289
 Vibration     2          0.642              1.827              2.054
 Vibration     3          0.664              1.759              1.713
 Vibration     4          0.749              1.514              1.042
 Vibration     5          0.821              1.331              0.756

 Normal termination of Gaussian 09 at Sat Aug 21 01:36:48 2021.
