 Gaussian 09, Revision E.01,
 Gaussian 09:  ES64L-G09RevE.01 30-Nov-2015

 ----------------------------
 #P OPT Freq B3LYP/6-31G(d,p)
 ----------------------------

 Leave Link    1 at Thu Sep  8 15:05:26 2022, MaxMem= 24159191040 cpu:         2.6  (Enter /public/home/users/caep010/software/Gaussian09/g09/l101.exe)  --------
 Frag_971
 --------
 Symbolic Z-matrix:
 Charge =  0 Multiplicity = 1

 SCF Done:  E(RB3LYP) =  -265.894409830     A.U. after   14 cycles
 SCF Done:  E(RB3LYP) =  -265.894578413     A.U. after   12 cycles
 SCF Done:  E(RB3LYP) =  -265.893571995     A.U. after   14 cycles
 SCF Done:  E(RB3LYP) =  -265.894596520     A.U. after   10 cycles
 SCF Done:  E(RB3LYP) =  -265.894598260     A.U. after   10 cycles
 SCF Done:  E(RB3LYP) =  -265.894603597     A.U. after   10 cycles
 SCF Done:  E(RB3LYP) =  -265.894604676     A.U. after    8 cycles
 Optimization completed.
    -- Stationary point found.
 Normal termination of Gaussian 09 at Thu Sep  8 15:05:53 2022.

 ----------------------------------------------------------------------
 #P Geom=AllCheck Guess=TCheck SCRF=Check GenChk RB3LYP/6-31G(d,p) Freq
 ----------------------------------------------------------------------

 Structure from the checkpoint file:  "B3LYP6-31Gdp.Frag_971.chk"
 --------
 Frag_971
 --------
 Charge =  0 Multiplicity = 1

                         Standard orientation:
 ---------------------------------------------------------------------
 Center     Atomic      Atomic             Coordinates (Angstroms)
 Number     Number       Type             X           Y           Z
 ---------------------------------------------------------------------
      1          6           0        2.148084   -0.004070    0.000001
      2          6           0        0.940627   -0.053656   -0.000049
      3          6           0       -0.514301   -0.128560   -0.000004
      4          8           0       -1.134615   -1.161032    0.000011
      5          8           0       -1.138190    1.075096    0.000011
      6          1           0        3.214622    0.019849    0.000141
      7          1           0       -0.478637    1.785345   -0.000009
 ---------------------------------------------------------------------

 SCF Done:  E(RB3LYP) =  -265.894604676     A.U. after    1 cycles

 The electronic state is 1-A.
 Alpha  occ. eigenvalues --  -19.21178 -19.15349 -10.35170 -10.23183 -10.22574
 Alpha  occ. eigenvalues --   -1.11708  -1.03653  -0.79134  -0.67210  -0.61418
 Alpha  occ. eigenvalues --   -0.54693  -0.46356  -0.46199  -0.41574  -0.33567
 Alpha  occ. eigenvalues --   -0.32262  -0.31203  -0.28921
 Alpha virt. eigenvalues --   -0.05431   0.01064   0.06735   0.09609   0.10947
 Alpha virt. eigenvalues --    0.19904   0.30947   0.36928   0.41654   0.48657
 Alpha virt. eigenvalues --    0.51021   0.52291   0.57919   0.57981   0.63911

 Mulliken charges:
               1
     1  C   -0.380423
     2  C    0.236114
     3  C    0.497580
     4  O   -0.403780
     5  O   -0.465026
     6  H    0.186317
     7  H    0.329217
 Sum of Mulliken charges =  -0.00000

 Dipole moment (field-independent basis, Debye):
    X=              3.4646    Y=              2.7318    Z=              0.0001  Tot=              4.4121
 Quadrupole moment (field-independent basis, Debye-Ang):
   XX=            -24.6363   YY=            -26.9067   ZZ=            -27.4036
   XY=             -0.9984   XZ=              0.0006   YZ=             -0.0000

  Exact polarizability:  51.872   3.228  29.699   0.001  -0.000  14.748
 Approx polarizability:  91.666  11.083  49.851   0.001  -0.000  20.235

                      1                      2                      3
                      A                      A                      A
 Frequencies --    181.3023               251.8588               490.1884
 Red. masses --      4.8414                 5.4403                 1.1320
 Frc consts  --      0.0938                 0.2033                 0.1603
 IR Inten    --      3.4382                 1.4428               121.3928

                      4                      5                      6
                      A                      A                      A
 Frequencies --    536.1915               597.5280               654.7699
 Red. masses --      6.4190                 9.6270                 1.2228
 Frc consts  --      1.0873                 2.0252                 0.3089
 IR Inten    --      3.8237                 8.6437                43.0088

                      7                      8                      9
                      A                      A                      A
 Frequencies --    686.1217               753.9622               837.7057
 Red. masses --      1.3688                 5.8850                 9.3287
 Frc consts  --      0.3797                 1.9710                 3.8570
 IR Inten    --     26.4152                23.8672                22.2454

                     10                     11                     12
                      A                      A                      A
 Frequencies --   1175.9363              1312.0731              1857.9445
 Red. masses --      2.0477                 2.3463                10.6223
 Frc consts  --      1.6683                 2.3799                21.6041
 IR Inten    --     27.8622               513.6527               270.0146

                     13                     14                     15
                      A                      A                      A
 Frequencies --   2224.3022              3480.6523              3786.4895
 Red. masses --      5.9319                 1.1617                 1.0660
 Frc consts  --     17.2913                 8.2924                 9.0047
 IR Inten    --     52.7714                55.6759                47.8452

 - Thermochemistry -
 -------------------
 Temperature   298.150 Kelvin.  Pressure   1.00000 Atm.
 Atom     1 has atomic number  6 and mass  12.00000

 Molecular mass:    70.00548 amu.
 Principal axes and moments of inertia in atomic units:
                           1         2         3
     Eigenvalues --   155.13416 432.17896 587.31312
           X            0.99996  -0.00922   0.00000
           Y            0.00922   0.99996  -0.00000
           Z           -0.00000   0.00000   1.00000
 This molecule is an asymmetric top.
 Rotational symmetry number  1.
 Rotational temperatures (Kelvin)      0.55832     0.20041     0.14747
 Rotational constants (GHZ):          11.63342     4.17591     3.07288
 Zero-point vibrational energy     112610.6 (Joules/Mol)
                                   26.91459 (Kcal/Mol)
 Warning -- explicit consideration of   5 degrees of freedom as
           vibrations may cause significant error
 Vibrational temperatures:    260.85   362.37   705.27   771.46   859.71
          (Kelvin)            942.07   987.17  1084.78  1205.27  1691.91
                             1887.78  2673.16  3200.27  5007.88  5447.91

 Zero-point correction=                           0.042891 (Hartree/Particle)
 Thermal correction to Energy=                    0.047832
 Thermal correction to Enthalpy=                  0.048776
 Thermal correction to Gibbs Free Energy=         0.015152
 Sum of electronic and zero-point Energies=           -265.851714
 Sum of electronic and thermal Energies=              -265.846773
 Sum of electronic and thermal Enthalpies=            -265.845829
 Sum of electronic and thermal Free Energies=         -265.879453

                     E (Thermal)             CV                S
                      KCal/Mol        Cal/Mol-Kelvin    Cal/Mol-Kelvin
 Total                   30.015             16.549             70.767
 Electronic               0.000              0.000              0.000
 Translational            0.889              2.981             38.655
 Rotational               0.889              2.981             25.180
 Vibrational             28.237             10.587              6.932
 Vibration     1          0.630              1.865              2.315
 Vibration     2          0.664              1.760              1.718
 Vibration     3          0.846              1.272              0.683
 Vibration     4          0.891              1.170              0.574
 Vibration     5          0.955              1.037              0.454

 Optimization completed.
    -- Stationary point found.
 Normal termination of Gaussian 09 at Thu Sep  8 15:06:00 2022.
