 Gaussian 09, Revision E.01,
 Gaussian 09:  ES64L-G09RevE.01 30-Nov-2015

 ----------------------------
 #P OPT Freq B3LYP/6-31G(d,p)
 ----------------------------

 --------
 Frag_785
 --------
 Symbolic Z-matrix:
 Charge =  0 Multiplicity = 1

 SCF Done:  E(RB3LYP) =  -360.798575072     A.U. after   13 cycles
 SCF Done:  E(RB3LYP) =  -360.798652524     A.U. after   10 cycles
 SCF Done:  E(RB3LYP) =  -360.798671311     A.U. after    9 cycles
 SCF Done:  E(RB3LYP) =  -360.798680611     A.U. after   10 cycles
 SCF Done:  E(RB3LYP) =  -360.798685790     A.U. after    8 cycles
 SCF Done:  E(RB3LYP) =  -360.798688912     A.U. after    9 cycles
 SCF Done:  E(RB3LYP) =  -360.798689613     A.U. after    8 cycles
 SCF Done:  E(RB3LYP) =  -360.798689659     A.U. after    8 cycles
 SCF Done:  E(RB3LYP) =  -360.798689672     A.U. after    7 cycles
 SCF Done:  E(RB3LYP) =  -360.798689621     A.U. after    7 cycles
 SCF Done:  E(RB3LYP) =  -360.798689638     A.U. after    7 cycles
 SCF Done:  E(RB3LYP) =  -360.798689676     A.U. after    7 cycles
 Optimization completed.
    -- Stationary point found.
 Normal termination of Gaussian 09 at Thu Sep  8 14:56:21 2022.

 ----------------------------------------------------------------------
 #P Geom=AllCheck Guess=TCheck SCRF=Check GenChk RB3LYP/6-31G(d,p) Freq
 ----------------------------------------------------------------------

 Structure from the checkpoint file:  "B3LYP6-31Gdp.Frag_785.chk"
 --------
 Frag_785
 --------
 Charge =  0 Multiplicity = 1

                         Standard orientation:
 ---------------------------------------------------------------------
 Center     Atomic      Atomic             Coordinates (Angstroms)
 Number     Number       Type             X           Y           Z
 ---------------------------------------------------------------------
      1          6           0       -0.753985    1.432588    0.070807
      2          6           0       -0.437718   -0.065133    0.037231
      3          8           0       -0.272416   -0.594445    1.302128
      4          8           0       -1.436658   -0.809496   -0.567674
      5          8           0        0.752868   -0.287440   -0.774472
      6          7           0        1.915619    0.075752   -0.009658
      7          1           0       -0.898310    1.824709   -0.941615
      8          1           0       -1.661188    1.599488    0.655653
      9          1           0        0.068353    1.983405    0.536158
     10          1           0        0.616876   -0.300408    1.567052
     11          1           0       -1.616814   -0.411255   -1.429318
     12          1           0        2.353125    0.832964   -0.536433
     13          1           0        2.528492   -0.732847   -0.111973
 ---------------------------------------------------------------------

 SCF Done:  E(RB3LYP) =  -360.798689676     A.U. after    1 cycles

 The electronic state is 1-A.
 Alpha  occ. eigenvalues --  -19.17367 -19.15373 -19.14012 -14.38908 -10.32925
 Alpha  occ. eigenvalues --  -10.17871  -1.10200  -1.02844  -1.00032  -0.82135
 Alpha  occ. eigenvalues --   -0.72817  -0.62107  -0.53579  -0.51840  -0.49709
 Alpha  occ. eigenvalues --   -0.46477  -0.45701  -0.41114  -0.39826  -0.36212
 Alpha  occ. eigenvalues --   -0.35516  -0.29947  -0.29129  -0.27607  -0.26275
 Alpha virt. eigenvalues --    0.06136   0.07270   0.11144   0.13629   0.14653
 Alpha virt. eigenvalues --    0.14993   0.15876   0.17249   0.22456   0.23895
 Alpha virt. eigenvalues --    0.27565   0.32294   0.53912   0.55719   0.57468

 Mulliken charges:
               1
     1  C   -0.338504
     2  C    0.715395
     3  O   -0.528721
     4  O   -0.515891
     5  O   -0.449514
     6  N   -0.390203
     7  H    0.092035
     8  H    0.129475
     9  H    0.106636
    10  H    0.321158
    11  H    0.311952
    12  H    0.267928
    13  H    0.278254
 Sum of Mulliken charges =  -0.00000

 Dipole moment (field-independent basis, Debye):
    X=              2.4605    Y=              2.3434    Z=             -1.4739  Tot=              3.7038
 Quadrupole moment (field-independent basis, Debye-Ang):
   XX=            -28.8973   YY=            -37.0505   ZZ=            -34.8656
   XY=             -2.6080   XZ=              2.7705   YZ=             -0.0356

  Exact polarizability:  48.490   0.551  36.357   2.286  -1.209  37.257
 Approx polarizability:  63.300   4.200  48.384   4.032  -1.969  54.132

                      1                      2                      3
                      A                      A                      A
 Frequencies --    109.0403               193.8193               242.8347
 Red. masses --      3.7199                 1.0948                 1.0615
 Frc consts  --      0.0261                 0.0242                 0.0369
 IR Inten    --      1.1983                79.8555                39.3095

                      4                      5                      6
                      A                      A                      A
 Frequencies --    273.1412               309.4058               379.8414
 Red. masses --      1.0957                 3.3073                 3.7340
 Frc consts  --      0.0482                 0.1865                 0.3174
 IR Inten    --      4.5780                 3.0368                 4.3889

                      7                      8                      9
                      A                      A                      A
 Frequencies --    393.9974               486.0488               555.0349
 Red. masses --      3.3205                 4.0914                 1.3093
 Frc consts  --      0.3037                 0.5695                 0.2376
 IR Inten    --      1.0887                 3.4505               113.0758

                     10                     11                     12
                      A                      A                      A
 Frequencies --    570.1462               620.9088               779.4942
 Red. masses --      5.1811                 2.6816                 5.0973
 Frc consts  --      0.9923                 0.6091                 1.8248
 IR Inten    --      6.6139                53.7820                35.2164

                     13                     14                     15
                      A                      A                      A
 Frequencies --    896.8898               947.1496              1004.2694
 Red. masses --      3.2310                 5.9908                 1.6301
 Frc consts  --      1.5313                 3.1665                 0.9687
 IR Inten    --     72.3204                 2.2977                21.3931

                     16                     17                     18
                      A                      A                      A
 Frequencies --   1104.6127              1128.9472              1194.9148
 Red. masses --      1.7326                 1.8311                 1.9589
 Frc consts  --      1.2456                 1.3750                 1.6479
 IR Inten    --     67.5798               172.1079               271.7786

                     19                     20                     21
                      A                      A                      A
 Frequencies --   1221.3599              1303.4898              1395.1874
 Red. masses --      1.8646                 1.1216                 1.5359
 Frc consts  --      1.6388                 1.1228                 1.7614
 IR Inten    --     55.0146                 3.9030               168.1129

                     22                     23                     24
                      A                      A                      A
 Frequencies --   1420.9314              1429.2673              1505.9052
 Red. masses --      1.4766                 1.7276                 1.0834
 Frc consts  --      1.7565                 2.0793                 1.4476
 IR Inten    --     74.3743                78.3964                 6.5025

                     25                     26                     27
                      A                      A                      A
 Frequencies --   1512.3159              1660.2170              3050.7709
 Red. masses --      1.1077                 1.0686                 1.0372
 Frc consts  --      1.4927                 1.7353                 5.6876
 IR Inten    --      3.4272                24.7367                11.4823

                     28                     29                     30
                      A                      A                      A
 Frequencies --   3124.1785              3148.7385              3444.3889
 Red. masses --      1.1011                 1.1030                 1.0483
 Frc consts  --      6.3318                 6.4429                 7.3277
 IR Inten    --     24.4278                16.0081                 0.9765

                     31                     32                     33
                      A                      A                      A
 Frequencies --   3535.6177              3709.8686              3832.4678
 Red. masses --      1.0959                 1.0639                 1.0655
 Frc consts  --      8.0718                 8.6270                 9.2208
 IR Inten    --      1.1392                86.3628                33.0792

 - Thermochemistry -
 -------------------
 Temperature   298.150 Kelvin.  Pressure   1.00000 Atm.
 Atom     1 has atomic number  6 and mass  12.00000

 Molecular mass:    93.04259 amu.
 Principal axes and moments of inertia in atomic units:
                           1         2         3
     Eigenvalues --   362.69714 610.53083 627.78391
           X            0.99854  -0.05035   0.01979
           Y            0.05010   0.99867   0.01253
           Z           -0.02040  -0.01152   0.99973
 This molecule is an asymmetric top.
 Rotational symmetry number  1.
 Rotational temperatures (Kelvin)      0.23880     0.14187     0.13797
 Rotational constants (GHZ):           4.97589     2.95602     2.87478
 Zero-point vibrational energy     278043.2 (Joules/Mol)
                                   66.45393 (Kcal/Mol)
 Warning -- explicit consideration of  10 degrees of freedom as
           vibrations may cause significant error
 Vibrational temperatures:    156.88   278.86   349.38   392.99   445.17
          (Kelvin)            546.51   566.87   699.31   798.57   820.31
                              893.35  1121.52  1290.42  1362.74  1444.92
                             1589.29  1624.30  1719.21  1757.26  1875.43
                             2007.36  2044.40  2056.39  2166.66  2175.88
                             2388.68  4389.37  4494.99  4530.33  4955.70
                             5086.96  5337.67  5514.06

 Zero-point correction=                           0.105901 (Hartree/Particle)
 Thermal correction to Energy=                    0.113117
 Thermal correction to Enthalpy=                  0.114061
 Thermal correction to Gibbs Free Energy=         0.075488
 Sum of electronic and zero-point Energies=           -360.692789
 Sum of electronic and thermal Energies=              -360.685573
 Sum of electronic and thermal Enthalpies=            -360.684628
 Sum of electronic and thermal Free Energies=         -360.723202

                     E (Thermal)             CV                S
                      KCal/Mol        Cal/Mol-Kelvin    Cal/Mol-Kelvin
 Total                   70.982             25.963             81.185
 Electronic               0.000              0.000              0.000
 Translational            0.889              2.981             39.503
 Rotational               0.889              2.981             26.433
 Vibrational             69.205             20.002             15.249
 Vibration     1          0.606              1.942              3.286
 Vibration     2          0.635              1.848              2.191
 Vibration     3          0.659              1.775              1.782
 Vibration     4          0.676              1.723              1.576
 Vibration     5          0.699              1.656              1.366
 Vibration     6          0.750              1.513              1.040
 Vibration     7          0.761              1.483              0.985
 Vibration     8          0.842              1.281              0.694
 Vibration     9          0.910              1.129              0.534
 Vibration    10          0.926              1.096              0.504

 Optimization completed.
    -- Stationary point found.
 Normal termination of Gaussian 09 at Thu Sep  8 14:56:32 2022.
