 Gaussian 09, Revision E.01,
 Gaussian 09:  ES64L-G09RevE.01 30-Nov-2015

 --------------------------------
 #P OPT=calcfc Freq B3LYP/6-31G**
 --------------------------------

 --------
 Frag_370
 --------
 Symbolic Z-matrix:
 Charge =  0 Multiplicity = 1

 SCF Done:  E(RB3LYP) =  -264.530491863     A.U. after   14 cycles
 SCF Done:  E(RB3LYP) =  -264.547104413     A.U. after   14 cycles
 SCF Done:  E(RB3LYP) =  -264.547184394     A.U. after   14 cycles
 SCF Done:  E(RB3LYP) =  -264.550418030     A.U. after   14 cycles
 SCF Done:  E(RB3LYP) =  -264.540267003     A.U. after   14 cycles
 SCF Done:  E(RB3LYP) =  -264.550865405     A.U. after   11 cycles
 SCF Done:  E(RB3LYP) =  -264.551191560     A.U. after   11 cycles
 SCF Done:  E(RB3LYP) =  -264.551172367     A.U. after   11 cycles
 SCF Done:  E(RB3LYP) =  -264.551214821     A.U. after   10 cycles
 SCF Done:  E(RB3LYP) =  -264.551219439     A.U. after    8 cycles
 SCF Done:  E(RB3LYP) =  -264.551220781     A.U. after    8 cycles
 SCF Done:  E(RB3LYP) =  -264.551222965     A.U. after    9 cycles
 SCF Done:  E(RB3LYP) =  -264.551223647     A.U. after    8 cycles
 SCF Done:  E(RB3LYP) =  -264.551223711     A.U. after    7 cycles
 Optimization completed.
    -- Stationary point found.
 Normal termination of Gaussian 09 at Fri Sep 10 21:22:38 2021.

 ----------------------------------------------------------------------
 #P Geom=AllCheck Guess=TCheck SCRF=Check GenChk RB3LYP/6-31G(d,p) Freq
 ----------------------------------------------------------------------

 Structure from the checkpoint file:  "/public/home/users/caep010/.cache/gau_scr/Gau-152944.chk"
 --------
 Frag_370
 --------
 Charge =  0 Multiplicity = 1

                         Standard orientation:
 ---------------------------------------------------------------------
 Center     Atomic      Atomic             Coordinates (Angstroms)
 Number     Number       Type             X           Y           Z
 ---------------------------------------------------------------------
      1          6           0       -1.938573   -0.069231   -0.020425
      2          7           0       -0.651894   -0.742290    0.046074
      3          6           0        0.410857   -0.054952    0.014536
      4          7           0        1.678525   -0.639945   -0.098020
      5          8           0        0.458352    1.316042    0.044122
      6          1           0       -2.412906   -0.074200    0.969176
      7          1           0       -1.884569    0.971286   -0.363191
      8          1           0       -2.598906   -0.629243   -0.691617
      9          1           0        1.599559   -1.650185   -0.084958
     10          1           0        2.332746   -0.318277    0.608823
     11          1           0        1.277139    1.593023   -0.392247
 ---------------------------------------------------------------------

 SCF Done:  E(RB3LYP) =  -264.551223711     A.U. after    1 cycles

 The electronic state is 1-A.
 Alpha  occ. eigenvalues --  -19.18220 -14.34773 -14.29519 -10.29601 -10.18870
 Alpha  occ. eigenvalues --   -1.07387  -0.92142  -0.86703  -0.68238  -0.59110
 Alpha  occ. eigenvalues --   -0.54497  -0.51285  -0.45298  -0.43415  -0.39753
 Alpha  occ. eigenvalues --   -0.38384  -0.36184  -0.30291  -0.24689  -0.23297
 Alpha virt. eigenvalues --    0.05009   0.05994   0.10997   0.14010   0.14609
 Alpha virt. eigenvalues --    0.18449   0.19587   0.21416   0.24711   0.33715
 Alpha virt. eigenvalues --    0.43551   0.52347   0.56867   0.57349   0.61805

 Mulliken charges:
               1
     1  C   -0.183601
     2  N   -0.458034
     3  C    0.615308
     4  N   -0.631837
     5  O   -0.519332
     6  H    0.110262
     7  H    0.106809
     8  H    0.106286
     9  H    0.274907
    10  H    0.258829
    11  H    0.320404
 Sum of Mulliken charges =  -0.00000

 Dipole moment (field-independent basis, Debye):
    X=              2.3058    Y=              0.7288    Z=              0.3162  Tot=              2.4388
 Quadrupole moment (field-independent basis, Debye-Ang):
   XX=            -24.1640   YY=            -29.8893   ZZ=            -30.4754
   XY=             -0.0843   XZ=              1.9526   YZ=             -1.4146

  Exact polarizability:  56.266   2.799  37.799   0.036  -0.049  25.130
 Approx polarizability:  75.182   9.315  56.477  -1.218   0.381  34.894

                      1                      2                      3
                      A                      A                      A
 Frequencies --     99.9322               243.0982               290.2703
 Red. masses --      1.0697                 3.0133                 2.9955
 Frc consts  --      0.0063                 0.1049                 0.1487
 IR Inten    --      1.1044                27.1749                15.5656

                      4                      5                      6
                      A                      A                      A
 Frequencies --    369.0004               460.2511               486.7192
 Red. masses --      1.1644                 1.7377                 1.4239
 Frc consts  --      0.0934                 0.2169                 0.1987
 IR Inten    --     28.3431                91.5407                63.4522

                      7                      8                      9
                      A                      A                      A
 Frequencies --    607.2397               652.0758               809.6562
 Red. masses --      4.2126                 3.0212                 1.6591
 Frc consts  --      0.9152                 0.7569                 0.6408
 IR Inten    --     16.2703                27.6171               251.1583

                     10                     11                     12
                      A                      A                      A
 Frequencies --    880.0491              1042.3347              1135.3532
 Red. masses --      5.0400                 2.8088                 1.3339
 Frc consts  --      2.2998                 1.7980                 1.0130
 IR Inten    --      7.5068                90.0787                 2.2851

                     13                     14                     15
                      A                      A                      A
 Frequencies --   1151.6637              1180.1624              1268.0120
 Red. masses --      1.6505                 1.3893                 1.6625
 Frc consts  --      1.2898                 1.1400                 1.5749
 IR Inten    --      2.5186                29.7402                10.8768

                     16                     17                     18
                      A                      A                      A
 Frequencies --   1370.4641              1457.5974              1509.9300
 Red. masses --      3.5825                 1.1878                 1.0438
 Frc consts  --      3.9643                 1.4869                 1.4021
 IR Inten    --    236.0042                28.8837                 3.4929

                     19                     20                     21
                      A                      A                      A
 Frequencies --   1514.2826              1638.2314              1820.6650
 Red. masses --      1.0491                 1.1535                 7.1372
 Frc consts  --      1.4173                 1.8239                13.9393
 IR Inten    --      3.2961                54.4179               372.5938

                     22                     23                     24
                      A                      A                      A
 Frequencies --   3019.4358              3077.2753              3094.1141
 Red. masses --      1.0329                 1.1020                 1.1038
 Frc consts  --      5.5482                 6.1485                 6.2262
 IR Inten    --     64.9285                37.5770                34.0814

                     25                     26                     27
                      A                      A                      A
 Frequencies --   3526.6556              3640.1776              3791.6614
 Red. masses --      1.0498                 1.0944                 1.0654
 Frc consts  --      7.6928                 8.5441                 9.0245
 IR Inten    --      7.4204                16.6108                38.1151

 - Thermochemistry -
 -------------------
 Temperature   298.150 Kelvin.  Pressure   1.00000 Atm.
 Atom     1 has atomic number  6 and mass  12.00000

 Molecular mass:    74.04801 amu.
 Principal axes and moments of inertia in atomic units:
                           1         2         3
     Eigenvalues --   179.53570 443.25656 606.48309
           X            0.99981  -0.01804   0.00785
           Y            0.01816   0.99973  -0.01472
           Z           -0.00759   0.01486   0.99986
 This molecule is an asymmetric top.
 Rotational symmetry number  1.
 Rotational temperatures (Kelvin)      0.48243     0.19540     0.14281
 Rotational constants (GHZ):          10.05227     4.07155     2.97575
 Zero-point vibrational energy     240068.4 (Joules/Mol)
                                   57.37773 (Kcal/Mol)
 Warning -- explicit consideration of   7 degrees of freedom as
           vibrations may cause significant error
 Vibrational temperatures:    143.78   349.76   417.63   530.91   662.20
          (Kelvin)            700.28   873.68   938.19  1164.91  1266.19
                             1499.69  1633.52  1656.99  1697.99  1824.38
                             1971.79  2097.15  2172.45  2178.71  2357.05
                             2619.53  4344.29  4427.51  4451.73  5074.06
                             5237.40  5455.35

 Zero-point correction=                           0.091437 (Hartree/Particle)
 Thermal correction to Energy=                    0.097319
 Thermal correction to Enthalpy=                  0.098263
 Thermal correction to Gibbs Free Energy=         0.062658
 Sum of electronic and zero-point Energies=           -264.459786
 Sum of electronic and thermal Energies=              -264.453905
 Sum of electronic and thermal Enthalpies=            -264.452961
 Sum of electronic and thermal Free Energies=         -264.488566

                     E (Thermal)             CV                S
                      KCal/Mol        Cal/Mol-Kelvin    Cal/Mol-Kelvin
 Total                   61.068             20.256             74.936
 Electronic               0.000              0.000              0.000
 Translational            0.889              2.981             38.822
 Rotational               0.889              2.981             25.382
 Vibrational             59.291             14.294             10.732
 Vibration     1          0.604              1.949              3.456
 Vibration     2          0.659              1.774              1.780
 Vibration     3          0.686              1.692              1.472
 Vibration     4          0.741              1.536              1.084
 Vibration     5          0.818              1.338              0.765
 Vibration     6          0.843              1.279              0.692
 Vibration     7          0.966              1.016              0.437

 Optimization completed.
    -- Stationary point found.
 Normal termination of Gaussian 09 at Fri Sep 10 21:22:46 2021.
