 Gaussian 09, Revision E.01,
 Gaussian 09:  ES64L-G09RevE.01 30-Nov-2015

 ----------------------------
 #P OPT Freq B3LYP/6-31G(d,p)
 ----------------------------

 --------
 Frag_545
 --------
 Symbolic Z-matrix:
 Charge =  0 Multiplicity = 1

 SCF Done:  E(RB3LYP) =  -247.282144583     A.U. after   13 cycles
 SCF Done:  E(RB3LYP) =  -247.282240354     A.U. after    9 cycles
 SCF Done:  E(RB3LYP) =  -247.282245041     A.U. after    9 cycles
 SCF Done:  E(RB3LYP) =  -247.282247481     A.U. after    8 cycles
 SCF Done:  E(RB3LYP) =  -247.282248643     A.U. after    8 cycles
 Optimization completed.
    -- Stationary point found.
 Normal termination of Gaussian 09 at Thu Sep  8 15:21:02 2022.

 ----------------------------------------------------------------------
 #P Geom=AllCheck Guess=TCheck SCRF=Check GenChk RB3LYP/6-31G(d,p) Freq
 ----------------------------------------------------------------------

 Structure from the checkpoint file:  "B3LYP6-31Gdp.Frag_545.chk"
 --------
 Frag_545
 --------
 Charge =  0 Multiplicity = 1

                         Standard orientation:
 ---------------------------------------------------------------------
 Center     Atomic      Atomic             Coordinates (Angstroms)
 Number     Number       Type             X           Y           Z
 ---------------------------------------------------------------------
      1          6           0        1.193166   -1.112791   -0.131332
      2          6           0        0.382411    0.073914    0.385611
      3          8           0        0.902293    1.244677   -0.225896
      4          6           0       -1.061756   -0.083445    0.082085
      5          7           0       -2.196769   -0.167361   -0.146655
      6          1           0        0.846503   -2.045279    0.320440
      7          1           0        2.244300   -0.958546    0.123072
      8          1           0        1.099173   -1.184347   -1.217148
      9          1           0        0.472208    0.126130    1.481909
     10          1           0        0.413931    2.010094    0.107291
 ---------------------------------------------------------------------

 SCF Done:  E(RB3LYP) =  -247.282248643     A.U. after    1 cycles

 The electronic state is 1-A.
 Alpha  occ. eigenvalues --  -19.17667 -14.34240 -10.29508 -10.23058 -10.20332
 Alpha  occ. eigenvalues --   -1.05328  -0.90748  -0.79256  -0.66954  -0.56682
 Alpha  occ. eigenvalues --   -0.52935  -0.44693  -0.41170  -0.40419  -0.38475
 Alpha  occ. eigenvalues --   -0.36425  -0.33954  -0.33013  -0.30500
 Alpha virt. eigenvalues --    0.01001   0.02831   0.06790   0.11949   0.13114
 Alpha virt. eigenvalues --    0.15331   0.15557   0.18419   0.22484   0.24079
 Alpha virt. eigenvalues --    0.34532   0.51108   0.52428   0.54660   0.55391

 Mulliken charges:
               1
     1  C   -0.313629
     2  C    0.117645
     3  O   -0.515525
     4  C    0.324220
     5  N   -0.464567
     6  H    0.125525
     7  H    0.132706
     8  H    0.141338
     9  H    0.132086
    10  H    0.320200
 Sum of Mulliken charges =  -0.00000

 Dipole moment (field-independent basis, Debye):
    X=              2.5199    Y=              0.3117    Z=              1.6006  Tot=              3.0015
 Quadrupole moment (field-independent basis, Debye-Ang):
   XX=            -38.6062   YY=            -25.4813   ZZ=            -28.8116
   XY=             -2.7151   XZ=              0.0058   YZ=              1.3844

  Exact polarizability:  47.838  -0.055  35.258   1.708   0.234  29.748
 Approx polarizability:  74.964   3.072  46.258   4.552  -0.338  42.110

                      1                      2                      3
                      A                      A                      A
 Frequencies --    183.0170               223.6021               271.6522
 Red. masses --      4.2980                 1.4431                 2.4212
 Frc consts  --      0.0848                 0.0425                 0.1053
 IR Inten    --      8.2080                 1.2610                 9.0740

                      4                      5                      6
                      A                      A                      A
 Frequencies --    335.0759               393.7004               561.4890
 Red. masses --      1.0975                 3.1831                 4.3689
 Frc consts  --      0.0726                 0.2907                 0.8115
 IR Inten    --    134.6776                 8.4578                 3.3534

                      7                      8                      9
                      A                      A                      A
 Frequencies --    596.7216               806.8823               939.0318
 Red. masses --      7.0222                 2.8005                 2.2167
 Frc consts  --      1.4732                 1.0743                 1.1517
 IR Inten    --      2.1924                 5.4631                16.0524

                     10                     11                     12
                      A                      A                      A
 Frequencies --   1048.9947              1090.2280              1151.5594
 Red. masses --      2.4716                 1.6078                 2.2249
 Frc consts  --      1.6024                 1.1259                 1.7383
 IR Inten    --     58.0162                10.3018                41.5234

                     13                     14                     15
                      A                      A                      A
 Frequencies --   1284.8852              1368.5966              1398.7859
 Red. masses --      1.1887                 1.3007                 1.3116
 Frc consts  --      1.1562                 1.4354                 1.5120
 IR Inten    --     59.4763                29.1330                12.6080

                     16                     17                     18
                      A                      A                      A
 Frequencies --   1428.2096              1497.0118              1511.2658
 Red. masses --      1.3423                 1.0448                 1.0480
 Frc consts  --      1.6132                 1.3795                 1.4102
 IR Inten    --      9.6243                 4.4480                 1.6850

                     19                     20                     21
                      A                      A                      A
 Frequencies --   2359.0758              3001.5537              3068.9284
 Red. masses --     12.6628                 1.0829                 1.0340
 Frc consts  --     41.5206                 5.7483                 5.7375
 IR Inten    --      0.5327                29.1035                 7.4963

                     22                     23                     24
                      A                      A                      A
 Frequencies --   3153.1295              3156.7174              3809.3718
 Red. masses --      1.1042                 1.1045                 1.0667
 Frc consts  --      6.4680                 6.4847                 9.1197
 IR Inten    --     11.4196                11.3319                27.9298

 - Thermochemistry -
 -------------------
 Temperature   298.150 Kelvin.  Pressure   1.00000 Atm.
 Atom     1 has atomic number  6 and mass  12.00000

 Molecular mass:    71.03711 amu.
 Principal axes and moments of inertia in atomic units:
                           1         2         3
     Eigenvalues --   205.35420 454.56054 609.97475
           X            0.99800  -0.06315  -0.00084
           Y            0.06315   0.99772   0.02379
           Z           -0.00066  -0.02379   0.99972
 This molecule is an asymmetric top.
 Rotational symmetry number  1.
 Rotational temperatures (Kelvin)      0.42178     0.19054     0.14200
 Rotational constants (GHZ):           8.78843     3.97030     2.95871
 Zero-point vibrational energy     207190.1 (Joules/Mol)
                                   49.51963 (Kcal/Mol)
 Warning -- explicit consideration of   7 degrees of freedom as
           vibrations may cause significant error
 Vibrational temperatures:    263.32   321.71   390.85   482.10   566.45
          (Kelvin)            807.86   858.55  1160.92  1351.06  1509.27
                             1568.59  1656.84  1848.66  1969.10  2012.54
                             2054.87  2153.86  2174.37  3394.18  4318.56
                             4415.50  4536.64  4541.81  5480.83

 Zero-point correction=                           0.078915 (Hartree/Particle)
 Thermal correction to Energy=                    0.084598
 Thermal correction to Enthalpy=                  0.085542
 Thermal correction to Gibbs Free Energy=         0.050442
 Sum of electronic and zero-point Energies=           -247.203334
 Sum of electronic and thermal Energies=              -247.197650
 Sum of electronic and thermal Enthalpies=            -247.196706
 Sum of electronic and thermal Free Energies=         -247.231807

                     E (Thermal)             CV                S
                      KCal/Mol        Cal/Mol-Kelvin    Cal/Mol-Kelvin
 Total                   53.086             19.167             73.876
 Electronic               0.000              0.000              0.000
 Translational            0.889              2.981             38.699
 Rotational               0.889              2.981             25.546
 Vibrational             51.309             13.205              9.631
 Vibration     1          0.631              1.863              2.297
 Vibration     2          0.649              1.805              1.930
 Vibration     3          0.675              1.726              1.586
 Vibration     4          0.716              1.605              1.236
 Vibration     5          0.761              1.484              0.986
 Vibration     6          0.917              1.115              0.521
 Vibration     7          0.955              1.039              0.455

 Normal termination of Gaussian 09 at Thu Sep  8 15:21:09 2022.
