 Gaussian 09, Revision E.01,
 Gaussian 09:  ES64L-G09RevE.01 30-Nov-2015

 ----------------------------
 #P OPT Freq B3LYP/6-31G(d,p)
 ----------------------------

 --------
 Frag_609
 --------
 Symbolic Z-matrix:
 Charge =  0 Multiplicity = 1

 SCF Done:  E(RB3LYP) =  -347.012974785     A.U. after   14 cycles
 SCF Done:  E(RB3LYP) =  -347.013071668     A.U. after    9 cycles
 SCF Done:  E(RB3LYP) =  -347.013077661     A.U. after    8 cycles
 SCF Done:  E(RB3LYP) =  -347.013078405     A.U. after    7 cycles
 SCF Done:  E(RB3LYP) =  -347.013078143     A.U. after    7 cycles
 SCF Done:  E(RB3LYP) =  -347.013078505     A.U. after    7 cycles
 Optimization completed.
    -- Stationary point found.
 Normal termination of Gaussian 09 at Thu Sep  8 15:12:08 2022.

 ----------------------------------------------------------------------
 #P Geom=AllCheck Guess=TCheck SCRF=Check GenChk RB3LYP/6-31G(d,p) Freq
 ----------------------------------------------------------------------

 Structure from the checkpoint file:  "B3LYP6-31Gdp.Frag_609.chk"
 --------
 Frag_609
 --------
 Charge =  0 Multiplicity = 1

                         Standard orientation:
 ---------------------------------------------------------------------
 Center     Atomic      Atomic             Coordinates (Angstroms)
 Number     Number       Type             X           Y           Z
 ---------------------------------------------------------------------
      1          6           0       -1.953909    0.788931   -0.000003
      2          6           0       -0.909706   -0.302967   -0.000029
      3          8           0       -1.198113   -1.485548   -0.000003
      4          6           0        0.580321    0.106307   -0.000002
      5          6           0        1.241356   -0.453363   -1.269344
      6          6           0        1.241329   -0.453419    1.269328
      7          8           0        0.622790    1.537179    0.000029
      8          1           0       -2.947173    0.338789   -0.000027
      9          1           0       -1.823490    1.435529   -0.873507
     10          1           0       -1.823508    1.435460    0.873556
     11          1           0        2.313986   -0.226430   -1.269575
     12          1           0        0.795968   -0.004621   -2.162159
     13          1           0        1.114079   -1.537015   -1.319308
     14          1           0        2.313962   -0.226492    1.269589
     15          1           0        0.795926   -0.004718    2.162156
     16          1           0        1.114050   -1.537074    1.319241
     17          1           0        1.552438    1.800591    0.000122
 ---------------------------------------------------------------------

 SCF Done:  E(RB3LYP) =  -347.013078505     A.U. after    1 cycles

 The electronic state is 1-A.
 Alpha  occ. eigenvalues --  -19.15219 -19.13613 -10.27189 -10.25116 -10.18364
 Alpha  occ. eigenvalues --  -10.18363 -10.18211  -1.04080  -1.02401  -0.78412
 Alpha  occ. eigenvalues --   -0.73761  -0.69779  -0.62838  -0.52050  -0.49292
 Alpha  occ. eigenvalues --   -0.47741  -0.45378  -0.42056  -0.41537  -0.41379
 Alpha  occ. eigenvalues --   -0.40820  -0.39710  -0.36507  -0.36180  -0.34315
 Alpha  occ. eigenvalues --   -0.34246  -0.27653  -0.24155
 Alpha virt. eigenvalues --   -0.01236   0.06363   0.11057   0.12521   0.14598
 Alpha virt. eigenvalues --    0.14676   0.15490   0.17257   0.18119   0.18628
 Alpha virt. eigenvalues --    0.20136   0.20561   0.21822   0.25782   0.26128

 Mulliken charges:
               1
     1  C   -0.369353
     2  C    0.417705
     3  O   -0.454293
     4  C    0.214196
     5  C   -0.316101
     6  C   -0.316106
     7  O   -0.562384
     8  H    0.126538
     9  H    0.139245
    10  H    0.139247
    11  H    0.091671
    12  H    0.114343
    13  H    0.132319
    14  H    0.091671
    15  H    0.114343
    16  H    0.132322
    17  H    0.304638
 Sum of Mulliken charges =  -0.00000

 Dipole moment (field-independent basis, Debye):
    X=              2.0054    Y=              1.7280    Z=              0.0001  Tot=              2.6472
 Quadrupole moment (field-independent basis, Debye-Ang):
   XX=            -39.4702   YY=            -47.3646   ZZ=            -41.9003
   XY=             -1.7007   XZ=              0.0003   YZ=              0.0003

  Exact polarizability:  63.976  -0.084  59.677   0.000   0.000  51.515
 Approx polarizability:  81.901   4.420  94.468   0.000  -0.000  69.046

                      1                      2                      3
                      A                      A                      A
 Frequencies --     24.6541               166.0637               222.6310
 Red. masses --      3.7856                 1.0243                 1.8424
 Frc consts  --      0.0014                 0.0166                 0.0538
 IR Inten    --      5.9106                 1.0234                 0.0009

                      4                      5                      6
                      A                      A                      A
 Frequencies --    247.6967               254.9525               265.6276
 Red. masses --      1.3141                 1.7697                 1.0569
 Frc consts  --      0.0475                 0.0678                 0.0439
 IR Inten    --      1.6031                 7.5638               107.4534

                      7                      8                      9
                      A                      A                      A
 Frequencies --    285.7370               321.0519               367.8356
 Red. masses --      1.4940                 2.3847                 3.0675
 Frc consts  --      0.0719                 0.1448                 0.2445
 IR Inten    --      2.8151                 1.3524                 1.6313

                     10                     11                     12
                      A                      A                      A
 Frequencies --    429.2055               487.7520               549.8348
 Red. masses --      3.6884                 3.2501                 3.8549
 Frc consts  --      0.4003                 0.4556                 0.6866
 IR Inten    --     19.4494                 4.0483                11.0682

                     13                     14                     15
                      A                      A                      A
 Frequencies --    602.8003               683.0843               852.9312
 Red. masses --      2.3021                 3.3043                 2.7469
 Frc consts  --      0.4929                 0.9084                 1.1774
 IR Inten    --      0.0522                 2.9563                 6.2940

                     16                     17                     18
                      A                      A                      A
 Frequencies --    932.1455               965.6649               993.9726
 Red. masses --      1.5827                 2.1315                 1.7580
 Frc consts  --      0.8103                 1.1711                 1.0233
 IR Inten    --      0.1723                29.5625                 2.1217

                     19                     20                     21
                      A                      A                      A
 Frequencies --    995.1392              1051.5116              1133.5510
 Red. masses --      1.3472                 1.6813                 1.5058
 Frc consts  --      0.7860                 1.0953                 1.1400
 IR Inten    --      0.6940                 5.3270                70.5869

                     22                     23                     24
                      A                      A                      A
 Frequencies --   1198.6214              1199.0592              1231.6481
 Red. masses --      3.5172                 2.2026                 2.8751
 Frc consts  --      2.9772                 1.8658                 2.5697
 IR Inten    --     11.9208               124.1642                35.9041

                     25                     26                     27
                      A                      A                      A
 Frequencies --   1375.3744              1395.6600              1400.2930
 Red. masses --      1.6393                 1.4694                 1.2476
 Frc consts  --      1.8271                 1.6863                 1.4414
 IR Inten    --     37.2215                24.2838                 6.3752

                     28                     29                     30
                      A                      A                      A
 Frequencies --   1420.4451              1468.7187              1476.0897
 Red. masses --      1.2398                 1.0571                 1.0516
 Frc consts  --      1.4738                 1.3436                 1.3500
 IR Inten    --      9.6331                15.7132                10.6236

                     31                     32                     33
                      A                      A                      A
 Frequencies --   1492.9936              1500.3711              1511.3724
 Red. masses --      1.0456                 1.0488                 1.0578
 Frc consts  --      1.3732                 1.3911                 1.4236
 IR Inten    --      0.9986                 1.3961                 5.4082

                     34                     35                     36
                      A                      A                      A
 Frequencies --   1526.6982              1809.3095              3039.4278
 Red. masses --      1.0842                10.8706                 1.0387
 Frc consts  --      1.4888                20.9666                 5.6534
 IR Inten    --     13.6003               115.3976                14.9146

                     37                     38                     39
                      A                      A                      A
 Frequencies --   3044.2212              3058.9980              3112.7009
 Red. masses --      1.0385                 1.0351                 1.0994
 Frc consts  --      5.6706                 5.7066                 6.2758
 IR Inten    --     27.3216                 0.8995                14.4651

                     40                     41                     42
                      A                      A                      A
 Frequencies --   3116.0422              3122.6798              3145.9555
 Red. masses --      1.0998                 1.0981                 1.1026
 Frc consts  --      6.2918                 6.3087                 6.4292
 IR Inten    --     32.0209                 5.2216                 4.4302

                     43                     44                     45
                      A                      A                      A
 Frequencies --   3150.3999              3170.5788              3812.5939
 Red. masses --      1.1016                 1.1060                 1.0664
 Frc consts  --      6.4419                 6.5504                 9.1333
 IR Inten    --     16.9374                12.0031                11.5462

 - Thermochemistry -
 -------------------
 Temperature   298.150 Kelvin.  Pressure   1.00000 Atm.
 Atom     1 has atomic number  6 and mass  12.00000

 Molecular mass:   102.06808 amu.
 Principal axes and moments of inertia in atomic units:
                           1         2         3
     Eigenvalues --   551.69907 770.18385 919.15751
           X            0.99171  -0.12846  -0.00000
           Y            0.12846   0.99171  -0.00000
           Z            0.00000   0.00000   1.00000
 This molecule is an asymmetric top.
 Rotational symmetry number  1.
 Warning -- assumption of classical behavior for rotation
           may cause significant error
 Rotational temperatures (Kelvin)      0.15699     0.11246     0.09423
 Rotational constants (GHZ):           3.27124     2.34326     1.96347
 Zero-point vibrational energy     380496.8 (Joules/Mol)
                                   90.94091 (Kcal/Mol)
 Warning -- explicit consideration of  13 degrees of freedom as
           vibrations may cause significant error
 Vibrational temperatures:     35.47   238.93   320.32   356.38   366.82
          (Kelvin)            382.18   411.11   461.92   529.23   617.53
                              701.77   791.09   867.29   982.80  1227.18
                             1341.15  1389.37  1430.10  1431.78  1512.89
                             1630.93  1724.55  1725.18  1772.06  1978.85
                             2008.04  2014.71  2043.70  2113.16  2123.76
                             2148.08  2158.70  2174.53  2196.58  2603.19
                             4373.05  4379.95  4401.21  4478.48  4483.28
                             4492.83  4526.32  4532.72  4561.75  5485.47

 Zero-point correction=                           0.144924 (Hartree/Particle)
 Thermal correction to Energy=                    0.153771
 Thermal correction to Enthalpy=                  0.154715
 Thermal correction to Gibbs Free Energy=         0.111626
 Sum of electronic and zero-point Energies=           -346.868155
 Sum of electronic and thermal Energies=              -346.859308
 Sum of electronic and thermal Enthalpies=            -346.858363
 Sum of electronic and thermal Free Energies=         -346.901453

                     E (Thermal)             CV                S
                      KCal/Mol        Cal/Mol-Kelvin    Cal/Mol-Kelvin
 Total                   96.493             31.768             90.689
 Electronic               0.000              0.000              0.000
 Translational            0.889              2.981             39.779
 Rotational               0.889              2.981             27.459
 Vibrational             94.715             25.806             23.450
 Vibration     1          0.593              1.985              6.219
 Vibration     2          0.624              1.884              2.480
 Vibration     3          0.648              1.807              1.938
 Vibration     4          0.661              1.767              1.747
 Vibration     5          0.665              1.754              1.696
 Vibration     6          0.671              1.736              1.624
 Vibration     7          0.684              1.700              1.499
 Vibration     8          0.707              1.633              1.305
 Vibration     9          0.740              1.538              1.089
 Vibration    10          0.791              1.407              0.861
 Vibration    11          0.844              1.277              0.689
 Vibration    12          0.905              1.140              0.545
 Vibration    13          0.961              1.026              0.445

 Optimization completed.
    -- Stationary point found.
 Normal termination of Gaussian 09 at Thu Sep  8 15:12:24 2022.
