 Gaussian 09, Revision E.01,
 Gaussian 09:  ES64L-G09RevE.01 30-Nov-2015

 ----------------------------
 #P OPT Freq B3LYP/6-31G(d,p)
 ----------------------------

 ---------
 Frag_1060
 ---------
 Symbolic Z-matrix:
 Charge =  0 Multiplicity = 1

 SCF Done:  E(RB3LYP) =  -206.529080877     A.U. after   12 cycles
 SCF Done:  E(RB3LYP) =  -206.529117045     A.U. after   10 cycles
 SCF Done:  E(RB3LYP) =  -206.529120682     A.U. after    7 cycles
 SCF Done:  E(RB3LYP) =  -206.529121655     A.U. after    7 cycles
 SCF Done:  E(RB3LYP) =  -206.529122001     A.U. after    7 cycles
 SCF Done:  E(RB3LYP) =  -206.529122154     A.U. after    7 cycles
 SCF Done:  E(RB3LYP) =  -206.529122200     A.U. after    6 cycles
 Optimization completed.
    -- Stationary point found.
 Normal termination of Gaussian 09 at Thu Sep  8 14:50:56 2022.

 ----------------------------------------------------------------------
 #P Geom=AllCheck Guess=TCheck SCRF=Check GenChk RB3LYP/6-31G(d,p) Freq
 ----------------------------------------------------------------------

 Structure from the checkpoint file:  "B3LYP6-31Gdp.Frag_1060.chk"
 ---------
 Frag_1060
 ---------
 Charge =  0 Multiplicity = 1

                         Standard orientation:
 ---------------------------------------------------------------------
 Center     Atomic      Atomic             Coordinates (Angstroms)
 Number     Number       Type             X           Y           Z
 ---------------------------------------------------------------------
      1          7           0       -1.479002   -0.538589   -0.217306
      2          6           0       -0.672103    0.587325    0.240401
      3          7           0        0.638794    0.526864   -0.395270
      4          7           0        1.395360   -0.556038    0.155491
      5          1           0       -2.307053   -0.613943    0.370305
      6          1           0       -0.927543   -1.377915   -0.042545
      7          1           0       -0.575160    0.634042    1.348621
      8          1           0       -1.139386    1.526081   -0.083956
      9          1           0        1.112788    1.420167   -0.263207
     10          1           0        2.054222   -0.866514   -0.551818
     11          1           0        1.928689   -0.271529    0.979783
 ---------------------------------------------------------------------

 SCF Done:  E(RB3LYP) =  -206.529122200     A.U. after    1 cycles

 The electronic state is 1-A.
 Alpha  occ. eigenvalues --  -14.34268 -14.34189 -14.29373 -10.22428  -0.96120
 Alpha  occ. eigenvalues --   -0.86008  -0.76341  -0.61067  -0.52154  -0.49349
 Alpha  occ. eigenvalues --   -0.46430  -0.43197  -0.40242  -0.36845  -0.25630
 Alpha  occ. eigenvalues --   -0.23738  -0.21545
 Alpha virt. eigenvalues --    0.07046   0.11000   0.11518   0.15225   0.16162
 Alpha virt. eigenvalues --    0.17036   0.19518   0.22520   0.25438   0.26034
 Alpha virt. eigenvalues --    0.55679   0.57068   0.62462   0.64675   0.67115

 Mulliken charges:
               1
     1  N   -0.589988
     2  C    0.117264
     3  N   -0.388966
     4  N   -0.483144
     5  H    0.225099
     6  H    0.251211
     7  H    0.047064
     8  H    0.094650
     9  H    0.232841
    10  H    0.261830
    11  H    0.232138
 Sum of Mulliken charges =   0.00000

 Dipole moment (field-independent basis, Debye):
    X=              1.7745    Y=              0.9184    Z=              2.1408  Tot=              2.9284
 Quadrupole moment (field-independent basis, Debye-Ang):
   XX=            -20.3019   YY=            -23.5709   ZZ=            -27.8791
   XY=              0.5300   XZ=             -2.3473   YZ=              0.2254

  Exact polarizability:  39.626  -1.659  34.066  -0.543   0.574  28.262
 Approx polarizability:  47.831  -2.673  45.566  -0.432   0.719  39.172

                      1                      2                      3
                      A                      A                      A
 Frequencies --    158.9792               224.9237               300.7799
 Red. masses --      2.7756                 1.0555                 1.1004
 Frc consts  --      0.0413                 0.0315                 0.0587
 IR Inten    --      4.7837                49.4868                57.8858

                      4                      5                      6
                      A                      A                      A
 Frequencies --    385.0984               557.8808               753.8918
 Red. masses --      2.6664                 2.6162                 1.8180
 Frc consts  --      0.2330                 0.4797                 0.6088
 IR Inten    --      1.0028                22.4378                29.4477

                      7                      8                      9
                      A                      A                      A
 Frequencies --    896.5233               919.4707               973.8954
 Red. masses --      1.3085                 1.9170                 1.5740
 Frc consts  --      0.6196                 0.9549                 0.8796
 IR Inten    --    181.5512                51.6566                75.8596

                     10                     11                     12
                      A                      A                      A
 Frequencies --   1073.4722              1112.1189              1181.5878
 Red. masses --      2.1471                 1.5474                 2.1749
 Frc consts  --      1.4577                 1.1276                 1.7891
 IR Inten    --     37.7296                28.5776                 0.8926

                     13                     14                     15
                      A                      A                      A
 Frequencies --   1244.5994              1288.4729              1342.3332
 Red. masses --      1.3423                 1.2680                 1.2109
 Frc consts  --      1.2250                 1.2403                 1.2855
 IR Inten    --      5.7995                 3.6446                 4.2125

                     16                     17                     18
                      A                      A                      A
 Frequencies --   1455.3595              1496.0782              1533.3179
 Red. masses --      1.3336                 1.1758                 1.1177
 Frc consts  --      1.6643                 1.5506                 1.5482
 IR Inten    --     27.4692                 5.5386                 3.0646

                     19                     20                     21
                      A                      A                      A
 Frequencies --   1654.6329              1674.0925              2842.6500
 Red. masses --      1.0900                 1.0876                 1.0739
 Frc consts  --      1.7583                 1.7959                 5.1128
 IR Inten    --     44.4241                 8.0436               168.3417

                     22                     23                     24
                      A                      A                      A
 Frequencies --   3049.0041              3417.0715              3455.8071
 Red. masses --      1.0860                 1.0556                 1.0741
 Frc consts  --      5.9484                 7.2621                 7.5580
 IR Inten    --     49.2773                21.1758                 8.2775

                     25                     26                     27
                      A                      A                      A
 Frequencies --   3477.0254              3562.3761              3567.8874
 Red. masses --      1.0497                 1.0910                 1.0877
 Frc consts  --      7.4773                 8.1578                 8.1580
 IR Inten    --      5.3779                 0.7787                 0.5690

 - Thermochemistry -
 -------------------
 Temperature   298.150 Kelvin.  Pressure   1.00000 Atm.
 Atom     1 has atomic number  7 and mass  14.00307

 Molecular mass:    61.06400 amu.
 Principal axes and moments of inertia in atomic units:
                           1         2         3
     Eigenvalues --   112.36758 333.17558 394.60031
           X            0.99991  -0.00173  -0.01295
           Y            0.00204   0.99972   0.02375
           Z            0.01290  -0.02378   0.99963
 This molecule is an asymmetric top.
 Rotational symmetry number  1.
 Rotational temperatures (Kelvin)      0.77081     0.25996     0.21950
 Rotational constants (GHZ):          16.06105     5.41679     4.57359
 Zero-point vibrational energy     260781.9 (Joules/Mol)
                                   62.32837 (Kcal/Mol)
 Warning -- explicit consideration of   5 degrees of freedom as
           vibrations may cause significant error
 Vibrational temperatures:    228.74   323.61   432.75   554.07   802.67
          (Kelvin)           1084.68  1289.90  1322.91  1401.22  1544.49
                             1600.09  1700.04  1790.70  1853.82  1931.32
                             2093.94  2152.52  2206.10  2380.64  2408.64
                             4089.93  4386.83  4916.40  4972.13  5002.66
                             5125.46  5133.39

 Zero-point correction=                           0.099327 (Hartree/Particle)
 Thermal correction to Energy=                    0.104601
 Thermal correction to Enthalpy=                  0.105545
 Thermal correction to Gibbs Free Energy=         0.071894
 Sum of electronic and zero-point Energies=           -206.429796
 Sum of electronic and thermal Energies=              -206.424521
 Sum of electronic and thermal Enthalpies=            -206.423577
 Sum of electronic and thermal Free Energies=         -206.457228

                     E (Thermal)             CV                S
                      KCal/Mol        Cal/Mol-Kelvin    Cal/Mol-Kelvin
 Total                   65.638             17.634             70.825
 Electronic               0.000              0.000              0.000
 Translational            0.889              2.981             38.248
 Rotational               0.889              2.981             24.206
 Vibrational             63.861             11.672              8.371
 Vibration     1          0.621              1.893              2.562
 Vibration     2          0.650              1.803              1.919
 Vibration     3          0.693              1.672              1.413
 Vibration     4          0.754              1.502              1.019
 Vibration     5          0.913              1.122              0.528

 Optimization completed.
    -- Stationary point found.
 Normal termination of Gaussian 09 at Thu Sep  8 14:51:03 2022.
