 Gaussian 09, Revision D.01,
 Gaussian 09:  ES64L-G09RevD.01 24-Apr-2013

 --------------------------------
 #P OPT=calcfc Freq B3LYP/6-31G**
 --------------------------------

 --------
 Frag_107
 --------
 Symbolic Z-matrix:
 Charge =  0 Multiplicity = 1

 SCF Done:  E(RB3LYP) =  -248.482682015     A.U. after   14 cycles
 SCF Done:  E(RB3LYP) =  -248.484087077     A.U. after   12 cycles
 SCF Done:  E(RB3LYP) =  -248.482964279     A.U. after   13 cycles
 SCF Done:  E(RB3LYP) =  -248.485029280     A.U. after   11 cycles
 SCF Done:  E(RB3LYP) =  -248.485137533     A.U. after   12 cycles
 SCF Done:  E(RB3LYP) =  -248.485157396     A.U. after   11 cycles
 SCF Done:  E(RB3LYP) =  -248.485175185     A.U. after   11 cycles
 SCF Done:  E(RB3LYP) =  -248.485178838     A.U. after    8 cycles
 Optimization completed.
    -- Stationary point found.
 Normal termination of Gaussian 09 at Fri Jul 23 10:45:33 2021.

 ----------------------------------------------------------------------
 #P Geom=AllCheck Guess=TCheck SCRF=Check GenChk RB3LYP/6-31G(d,p) Freq
 ----------------------------------------------------------------------

 Structure from the checkpoint file:  "/vol2/users/liuj201281/HOFBenchmark/IsodesmicSplit/Sample60/Ring26/Running/Gau-469851.chk"
 --------
 Frag_107
 --------
 Charge =  0 Multiplicity = 1

                         Standard orientation:
 ---------------------------------------------------------------------
 Center     Atomic      Atomic             Coordinates (Angstroms)
 Number     Number       Type             X           Y           Z
 ---------------------------------------------------------------------
      1          6           0       -0.497211    1.430558   -0.014621
      2          6           0       -0.504114    0.085693    0.011350
      3          7           0       -1.644413   -0.715104    0.087953
      4          8           0        0.593691   -0.723961    0.016780
      5          6           0        1.865695   -0.096525   -0.012118
      6          1           0        0.414437    2.007438    0.019337
      7          1           0       -1.433981    1.973156   -0.028664
      8          1           0       -1.523364   -1.605917   -0.378542
      9          1           0       -2.486955   -0.244513   -0.212624
     10          1           0        2.601203   -0.902160   -0.025181
     11          1           0        1.982926    0.524413   -0.908604
     12          1           0        2.020880    0.526644    0.876704
 ---------------------------------------------------------------------

 SCF Done:  E(RB3LYP) =  -248.485178838     A.U. after    1 cycles

 The electronic state is 1-A.
 Alpha  occ. eigenvalues --  -19.17400 -14.33298 -10.26467 -10.23571 -10.14511
 Alpha  occ. eigenvalues --   -1.06534  -0.89790  -0.72527  -0.70118  -0.56593
 Alpha  occ. eigenvalues --   -0.51950  -0.49275  -0.46299  -0.44306  -0.41709
 Alpha  occ. eigenvalues --   -0.38364  -0.36106  -0.33633  -0.27285  -0.19351
 Alpha virt. eigenvalues --    0.06756   0.09247   0.11371   0.12347   0.15450
 Alpha virt. eigenvalues --    0.15785   0.17260   0.18536   0.19260   0.28035
 Alpha virt. eigenvalues --    0.34137   0.38812   0.50063   0.54094   0.57140

 Mulliken charges:
               1
     1  C   -0.359426
     2  C    0.535143
     3  N   -0.633029
     4  O   -0.495773
     5  C   -0.076041
     6  H    0.084609
     7  H    0.075567
     8  H    0.261740
     9  H    0.258208
    10  H    0.119107
    11  H    0.113362
    12  H    0.116534
 Sum of Mulliken charges =   0.00000

 Dipole moment (field-independent basis, Debye):
    X=              0.2424    Y=             -0.2321    Z=             -1.1668  Tot=              1.2141
 Quadrupole moment (field-independent basis, Debye-Ang):
   XX=            -23.4557   YY=            -30.8818   ZZ=            -33.0755
   XY=              1.1249   XZ=              2.4807   YZ=              1.6078

  Exact polarizability:  49.887  -0.132  51.244   0.519   0.521  25.147
 Approx polarizability:  60.759   0.843  80.951   0.094  -0.356  34.605

                      1                      2                      3
                      A                      A                      A
 Frequencies --    117.3714               239.4559               270.2800
 Red. masses --      3.1013                 1.0764                 1.0568
 Frc consts  --      0.0252                 0.0364                 0.0455
 IR Inten    --      7.8557                 6.2514                33.4523

                      4                      5                      6
                      A                      A                      A
 Frequencies --    327.1426               460.1643               556.0078
 Red. masses --      2.7214                 2.4583                 2.9950
 Frc consts  --      0.1716                 0.3067                 0.5455
 IR Inten    --      1.4411                10.0550                10.9598

                      7                      8                      9
                      A                      A                      A
 Frequencies --    598.2404               684.1603               695.4033
 Red. masses --      1.5472                 1.2888                 1.2685
 Frc consts  --      0.3263                 0.3554                 0.3614
 IR Inten    --    131.3646                 6.0602                29.8327

                     10                     11                     12
                      A                      A                      A
 Frequencies --    737.1284               875.2765               983.0829
 Red. masses --      2.2776                 3.7816                 1.5685
 Frc consts  --      0.7291                 1.7069                 0.8931
 IR Inten    --    212.1732                32.1231                 3.5527

                     13                     14                     15
                      A                      A                      A
 Frequencies --   1093.3542              1177.7496              1183.2587
 Red. masses --      2.2761                 2.2401                 1.2877
 Frc consts  --      1.6031                 1.8307                 1.0623
 IR Inten    --     14.2220                71.8253                 3.3577

                     16                     17                     18
                      A                      A                      A
 Frequencies --   1227.5742              1387.5430              1448.9575
 Red. masses --      1.4970                 2.9276                 1.2037
 Frc consts  --      1.3292                 3.3209                 1.4889
 IR Inten    --     19.6698               196.6582                 7.0737

                     19                     20                     21
                      A                      A                      A
 Frequencies --   1498.2270              1500.1618              1524.5217
 Red. masses --      1.1100                 1.1544                 1.0478
 Frc consts  --      1.4680                 1.5307                 1.4349
 IR Inten    --      9.1024                 9.0721                14.4673

                     22                     23                     24
                      A                      A                      A
 Frequencies --   1643.9968              1730.3872              3025.3439
 Red. masses --      1.1705                 5.2772                 1.0334
 Frc consts  --      1.8638                 9.3098                 5.5730
 IR Inten    --     71.7341               236.2879                37.0605

                     25                     26                     27
                      A                      A                      A
 Frequencies --   3088.9443              3150.6586              3202.2638
 Red. masses --      1.1061                 1.1016                 1.0621
 Frc consts  --      6.2183                 6.4431                 6.4169
 IR Inten    --     39.9722                22.2699                 1.6070

                     28                     29                     30
                      A                      A                      A
 Frequencies --   3295.4851              3559.6045              3673.3914
 Red. masses --      1.1138                 1.0484                 1.0969
 Frc consts  --      7.1271                 7.8269                 8.7204
 IR Inten    --      8.6310                11.4185                11.6594

 - Thermochemistry -
 -------------------
 Temperature   298.150 Kelvin.  Pressure   1.00000 Atm.
 Atom     1 has atomic number  6 and mass  12.00000

 Molecular mass:    73.05276 amu.
 Principal axes and moments of inertia in atomic units:
                           1         2         3
     Eigenvalues --   193.35346 424.54787 604.37384
           X            0.99987   0.01294   0.00911
           Y           -0.01306   0.99984   0.01256
           Z           -0.00894  -0.01268   0.99988
 This molecule is an asymmetric top.
 Rotational symmetry number  1.
 Rotational temperatures (Kelvin)      0.44796     0.20401     0.14331
 Rotational constants (GHZ):           9.33390     4.25097     2.98613
 Zero-point vibrational energy     268891.4 (Joules/Mol)
                                   64.26659 (Kcal/Mol)
 Warning -- explicit consideration of   7 degrees of freedom as
           vibrations may cause significant error
 Vibrational temperatures:    168.87   344.52   388.87   470.68   662.07
          (Kelvin)            799.97   860.73   984.35  1000.53  1060.56
                             1259.33  1414.44  1573.09  1694.52  1702.44
                             1766.20  1996.36  2084.72  2155.61  2158.40
                             2193.44  2365.34  2489.64  4352.79  4444.30
                             4533.09  4607.34  4741.46  5121.47  5285.18

 Zero-point correction=                           0.102415 (Hartree/Particle)
 Thermal correction to Energy=                    0.108440
 Thermal correction to Enthalpy=                  0.109384
 Thermal correction to Gibbs Free Energy=         0.073661
 Sum of electronic and zero-point Energies=           -248.382763
 Sum of electronic and thermal Energies=              -248.376739
 Sum of electronic and thermal Enthalpies=            -248.375795
 Sum of electronic and thermal Free Energies=         -248.411518

                     E (Thermal)             CV                S
                      KCal/Mol        Cal/Mol-Kelvin    Cal/Mol-Kelvin
 Total                   68.047             21.321             75.186
 Electronic               0.000              0.000              0.000
 Translational            0.889              2.981             38.782
 Rotational               0.889              2.981             25.409
 Vibrational             66.270             15.360             10.994
 Vibration     1          0.608              1.935              3.143
 Vibration     2          0.657              1.780              1.807
 Vibration     3          0.674              1.728              1.594
 Vibration     4          0.711              1.621              1.274
 Vibration     5          0.818              1.338              0.766
 Vibration     6          0.911              1.127              0.532
 Vibration     7          0.956              1.036              0.453

 Normal termination of Gaussian 09 at Fri Jul 23 10:45:44 2021.
