 Gaussian 09, Revision E.01,
 Gaussian 09:  ES64L-G09RevE.01 30-Nov-2015

 ----------------------------
 #P OPT Freq B3LYP/6-31G(d,p)
 ----------------------------

 --------
 Frag_627
 --------
 Symbolic Z-matrix:
 Charge =  0 Multiplicity = 1

 SCF Done:  E(RB3LYP) =  -280.559907439     A.U. after   14 cycles
 SCF Done:  E(RB3LYP) =  -280.560015764     A.U. after   10 cycles
 SCF Done:  E(RB3LYP) =  -280.560040715     A.U. after   10 cycles
 SCF Done:  E(RB3LYP) =  -280.560046717     A.U. after    9 cycles
 SCF Done:  E(RB3LYP) =  -280.560050792     A.U. after    8 cycles
 SCF Done:  E(RB3LYP) =  -280.560051467     A.U. after    8 cycles
 Optimization completed.
    -- Stationary point found.
 Normal termination of Gaussian 09 at Thu Sep  8 15:10:11 2022.

 ----------------------------------------------------------------------
 #P Geom=AllCheck Guess=TCheck SCRF=Check GenChk RB3LYP/6-31G(d,p) Freq
 ----------------------------------------------------------------------

 Structure from the checkpoint file:  "B3LYP6-31Gdp.Frag_627.chk"
 --------
 Frag_627
 --------
 Charge =  0 Multiplicity = 1

                         Standard orientation:
 ---------------------------------------------------------------------
 Center     Atomic      Atomic             Coordinates (Angstroms)
 Number     Number       Type             X           Y           Z
 ---------------------------------------------------------------------
      1          7           0       -1.823572    0.041125   -0.037944
      2          7           0       -0.636156   -0.810274    0.024606
      3          6           0        0.423322   -0.087367    0.005625
      4          7           0        0.493488    1.295396    0.078875
      5          8           0        1.619054   -0.729879   -0.052917
      6          1           0       -2.298403   -0.105848    0.854437
      7          1           0       -2.430286   -0.420955   -0.715490
      8          1           0        1.168320    1.705489   -0.556602
      9          1           0       -0.445419    1.674510   -0.038797
     10          1           0        2.277100   -0.173691    0.387278
 ---------------------------------------------------------------------

 SCF Done:  E(RB3LYP) =  -280.560051467     A.U. after    1 cycles

 The electronic state is 1-A.
 Alpha  occ. eigenvalues --  -19.18100 -14.34637 -14.34165 -14.31489 -10.29584
 Alpha  occ. eigenvalues --   -1.07762  -0.95443  -0.89128  -0.77950  -0.59726
 Alpha  occ. eigenvalues --   -0.54817  -0.51595  -0.48000  -0.44666  -0.42107
 Alpha  occ. eigenvalues --   -0.37289  -0.34432  -0.29843  -0.23823  -0.21574
 Alpha virt. eigenvalues --    0.05146   0.06265   0.08630   0.12306   0.15923
 Alpha virt. eigenvalues --    0.16432   0.18959   0.25705   0.34773   0.45107
 Alpha virt. eigenvalues --    0.55243   0.58956   0.60831   0.64794   0.66760

 Mulliken charges:
               1
     1  N   -0.515015
     2  N   -0.394360
     3  C    0.662229
     4  N   -0.632557
     5  O   -0.506445
     6  H    0.259834
     7  H    0.261268
     8  H    0.257702
     9  H    0.287567
    10  H    0.319776
 Sum of Mulliken charges =  -0.00000

 Dipole moment (field-independent basis, Debye):
    X=              0.3742    Y=              2.6034    Z=             -0.1532  Tot=              2.6346
 Quadrupole moment (field-independent basis, Debye-Ang):
   XX=            -20.2621   YY=            -32.1104   ZZ=            -28.6654
   XY=              3.3604   XZ=              0.0944   YZ=             -1.8234

  Exact polarizability:  50.421   4.845  33.978  -0.264   0.100  21.837
 Approx polarizability:  70.528   9.632  51.771  -0.536   1.383  30.844

                      1                      2                      3
                      A                      A                      A
 Frequencies --    148.8803               288.2611               341.4741
 Red. masses --      1.1106                 4.3778                 2.7747
 Frc consts  --      0.0145                 0.2143                 0.1906
 IR Inten    --     63.1261                 2.2330                12.9829

                      4                      5                      6
                      A                      A                      A
 Frequencies --    375.3006               476.3960               499.6076
 Red. masses --      1.2670                 1.6651                 1.5311
 Frc consts  --      0.1051                 0.2227                 0.2252
 IR Inten    --     74.6170                77.4123                53.6474

                      7                      8                      9
                      A                      A                      A
 Frequencies --    606.9473               655.4225               842.7148
 Red. masses --      4.4775                 3.3847                 1.6534
 Frc consts  --      0.9718                 0.8567                 0.6918
 IR Inten    --      6.1679                54.3098               217.5426

                     10                     11                     12
                      A                      A                      A
 Frequencies --    913.1129              1010.4029              1085.9073
 Red. masses --      5.7105                 4.4551                 1.3760
 Frc consts  --      2.8052                 2.6798                 0.9560
 IR Inten    --      6.3121                69.4205                32.0747

                     13                     14                     15
                      A                      A                      A
 Frequencies --   1179.0118              1262.3328              1292.1171
 Red. masses --      1.4334                 1.2685                 1.2488
 Frc consts  --      1.1740                 1.1909                 1.2284
 IR Inten    --     47.6802                76.0709                73.1055

                     16                     17                     18
                      A                      A                      A
 Frequencies --   1423.4851              1611.6307              1655.0676
 Red. masses --      4.4539                 1.2087                 1.1122
 Frc consts  --      5.3174                 1.8498                 1.7949
 IR Inten    --    178.7215                82.0479                 3.8763

                     19                     20                     21
                      A                      A                      A
 Frequencies --   1779.4065              3446.0323              3482.5132
 Red. masses --      4.4540                 1.0506                 1.0506
 Frc consts  --      8.3091                 7.3505                 7.5068
 IR Inten    --    294.7566                 0.4209                39.8856

                     22                     23                     24
                      A                      A                      A
 Frequencies --   3516.2055              3613.8803              3806.5446
 Red. masses --      1.0912                 1.0932                 1.0653
 Frc consts  --      7.9490                 8.4122                 9.0946
 IR Inten    --      0.2660                27.0049                40.7527

 - Thermochemistry -
 -------------------
 Temperature   298.150 Kelvin.  Pressure   1.00000 Atm.
 Atom     1 has atomic number  7 and mass  14.00307

 Molecular mass:    75.04326 amu.
 Principal axes and moments of inertia in atomic units:
                           1         2         3
     Eigenvalues --   175.09118 427.38602 589.18630
           X            0.99959   0.02877  -0.00012
           Y           -0.02876   0.99940  -0.01911
           Z           -0.00043   0.01910   0.99982
 This molecule is an asymmetric top.
 Rotational symmetry number  1.
 Rotational temperatures (Kelvin)      0.49468     0.20266     0.14701
 Rotational constants (GHZ):          10.30744     4.22274     3.06311
 Zero-point vibrational energy     211216.6 (Joules/Mol)
                                   50.48197 (Kcal/Mol)
 Warning -- explicit consideration of   7 degrees of freedom as
           vibrations may cause significant error
 Vibrational temperatures:    214.21   414.74   491.30   539.97   685.43
          (Kelvin)            718.82   873.26   943.01  1212.48  1313.76
                             1453.74  1562.38  1696.33  1816.21  1859.07
                             2048.07  2318.77  2381.27  2560.17  4958.07
                             5010.55  5059.03  5199.56  5476.76

 Zero-point correction=                           0.080448 (Hartree/Particle)
 Thermal correction to Energy=                    0.086057
 Thermal correction to Enthalpy=                  0.087002
 Thermal correction to Gibbs Free Energy=         0.052141
 Sum of electronic and zero-point Energies=           -280.479603
 Sum of electronic and thermal Energies=              -280.473994
 Sum of electronic and thermal Enthalpies=            -280.473050
 Sum of electronic and thermal Free Energies=         -280.507911

                     E (Thermal)             CV                S
                      KCal/Mol        Cal/Mol-Kelvin    Cal/Mol-Kelvin
 Total                   54.002             19.644             73.371
 Electronic               0.000              0.000              0.000
 Translational            0.889              2.981             38.862
 Rotational               0.889              2.981             25.292
 Vibrational             52.224             13.683              9.216
 Vibration     1          0.618              1.904              2.686
 Vibration     2          0.685              1.696              1.484
 Vibration     3          0.721              1.593              1.205
 Vibration     4          0.746              1.523              1.058
 Vibration     5          0.833              1.302              0.720
 Vibration     6          0.855              1.251              0.659
 Vibration     7          0.966              1.017              0.438

 Normal termination of Gaussian 09 at Thu Sep  8 15:10:19 2022.
