 Gaussian 09, Revision E.01,
 Gaussian 09:  ES64L-G09RevE.01 30-Nov-2015

 ----------------------------
 #P OPT Freq B3LYP/6-31G(d,p)
 ----------------------------

 --------
 Frag_915
 --------
 Symbolic Z-matrix:
 Charge =  0 Multiplicity = 1

 SCF Done:  E(RB3LYP) =  -322.503487875     A.U. after   13 cycles
 SCF Done:  E(RB3LYP) =  -322.503601597     A.U. after    9 cycles
 SCF Done:  E(RB3LYP) =  -322.503609674     A.U. after    9 cycles
 SCF Done:  E(RB3LYP) =  -322.503614584     A.U. after    9 cycles
 SCF Done:  E(RB3LYP) =  -322.503616132     A.U. after    8 cycles
 SCF Done:  E(RB3LYP) =  -322.503616494     A.U. after    8 cycles
 SCF Done:  E(RB3LYP) =  -322.503616622     A.U. after    7 cycles
 SCF Done:  E(RB3LYP) =  -322.503616701     A.U. after    7 cycles
 SCF Done:  E(RB3LYP) =  -322.503616749     A.U. after    7 cycles
 Optimization completed.
    -- Stationary point found.
 Normal termination of Gaussian 09 at Thu Sep  8 15:09:42 2022.

 ----------------------------------------------------------------------
 #P Geom=AllCheck Guess=TCheck SCRF=Check GenChk RB3LYP/6-31G(d,p) Freq
 ----------------------------------------------------------------------

 Structure from the checkpoint file:  "B3LYP6-31Gdp.Frag_915.chk"
 --------
 Frag_915
 --------
 Charge =  0 Multiplicity = 1

                         Standard orientation:
 ---------------------------------------------------------------------
 Center     Atomic      Atomic             Coordinates (Angstroms)
 Number     Number       Type             X           Y           Z
 ---------------------------------------------------------------------
      1          6           0        0.956345    1.346757   -0.002584
      2          6           0        0.317902   -0.038941   -0.011117
      3          8           0        0.686787   -0.816476    1.115543
      4          8           0        0.777386   -0.709364   -1.141386
      5          6           0       -1.182747    0.069467   -0.041398
      6          7           0       -2.341300    0.141209   -0.043381
      7          1           0        2.039559    1.214733    0.036761
      8          1           0        0.624965    1.918060    0.868409
      9          1           0        0.688444    1.895690   -0.907943
     10          1           0        0.279796   -0.440779    1.909260
     11          1           0        0.493950   -1.633138   -1.065483
 ---------------------------------------------------------------------

 SCF Done:  E(RB3LYP) =  -322.503616749     A.U. after    1 cycles

 The electronic state is 1-A.
 Alpha  occ. eigenvalues --  -19.18414 -19.18309 -14.34866 -10.34933 -10.23346
 Alpha  occ. eigenvalues --  -10.20430  -1.10111  -1.02725  -0.91194  -0.78268
 Alpha  occ. eigenvalues --   -0.67070  -0.59550  -0.56571  -0.48399  -0.42826
 Alpha  occ. eigenvalues --   -0.41848  -0.40295  -0.39276  -0.36955  -0.35716
 Alpha  occ. eigenvalues --   -0.34010  -0.32275  -0.30884
 Alpha virt. eigenvalues --    0.01117   0.01706   0.05147   0.09601   0.13020
 Alpha virt. eigenvalues --    0.14398   0.15323   0.16303   0.22058   0.25310
 Alpha virt. eigenvalues --    0.25976   0.37377   0.51484   0.54145   0.55125

 Mulliken charges:
               1
     1  C   -0.311262
     2  C    0.456753
     3  O   -0.526196
     4  O   -0.501827
     5  C    0.302790
     6  N   -0.463742
     7  H    0.143301
     8  H    0.113416
     9  H    0.139637
    10  H    0.320578
    11  H    0.326551
 Sum of Mulliken charges =  -0.00000

 Dipole moment (field-independent basis, Debye):
    X=              2.0311    Y=              0.3165    Z=              1.2828  Tot=              2.4230
 Quadrupole moment (field-independent basis, Debye-Ang):
   XX=            -44.9400   YY=            -31.1843   ZZ=            -32.1407
   XY=              2.3033   XZ=             -0.0875   YZ=              2.0315

  Exact polarizability:  49.413  -0.427  36.929  -0.649   0.862  36.528
 Approx polarizability:  78.678  -4.174  49.310  -1.827   0.790  52.313

                      1                      2                      3
                      A                      A                      A
 Frequencies --    176.1379               183.0445               248.4289
 Red. masses --      4.0924                 3.8712                 1.0450
 Frc consts  --      0.0748                 0.0764                 0.0380
 IR Inten    --      8.2720                 9.4748                25.7331

                      4                      5                      6
                      A                      A                      A
 Frequencies --    260.7030               361.7669               383.4831
 Red. masses --      1.2593                 1.2601                 3.0377
 Frc consts  --      0.0504                 0.0972                 0.2632
 IR Inten    --     73.3870               129.1918                19.1928

                      7                      8                      9
                      A                      A                      A
 Frequencies --    417.1014               497.3486               598.8989
 Red. masses --      3.5447                 4.6854                 5.4611
 Frc consts  --      0.3633                 0.6828                 1.1541
 IR Inten    --     11.0565                26.9575                 5.7589

                     10                     11                     12
                      A                      A                      A
 Frequencies --    607.0274               728.0511               923.0436
 Red. masses --      6.5177                 4.8684                 2.3214
 Frc consts  --      1.4150                 1.5204                 1.1653
 IR Inten    --      4.6132                11.6876                24.4867

                     13                     14                     15
                      A                      A                      A
 Frequencies --    982.0794              1086.3534              1133.0558
 Red. masses --      2.0237                 2.5408                 1.5904
 Frc consts  --      1.1500                 1.7667                 1.2030
 IR Inten    --     51.1193                81.2618               105.2253

                     16                     17                     18
                      A                      A                      A
 Frequencies --   1187.0644              1334.3443              1392.3424
 Red. masses --      2.8089                 1.7251                 1.4072
 Frc consts  --      2.3320                 1.8097                 1.6073
 IR Inten    --    130.9355               152.7391                44.9784

                     19                     20                     21
                      A                      A                      A
 Frequencies --   1431.1688              1491.9454              1502.4480
 Red. masses --      1.5018                 1.0478                 1.0591
 Frc consts  --      1.8124                 1.3741                 1.4086
 IR Inten    --     43.0475                 1.3719                 1.7652

                     22                     23                     24
                      A                      A                      A
 Frequencies --   2352.3604              3067.8231              3150.4324
 Red. masses --     12.7279                 1.0344                 1.1036
 Frc consts  --     41.4967                 5.7359                 6.4538
 IR Inten    --      0.6381                 4.0518                10.8273

                     25                     26                     27
                      A                      A                      A
 Frequencies --   3163.7022              3788.2765              3806.9245
 Red. masses --      1.1048                 1.0657                 1.0660
 Frc consts  --      6.5149                 9.0105                 9.1027
 IR Inten    --      6.4028                39.8081                33.2203

 - Thermochemistry -
 -------------------
 Temperature   298.150 Kelvin.  Pressure   1.00000 Atm.
 Atom     1 has atomic number  6 and mass  12.00000

 Molecular mass:    87.03203 amu.
 Principal axes and moments of inertia in atomic units:
                           1         2         3
     Eigenvalues --   354.96260 626.36611 645.41203
           X            0.99851   0.05381   0.00932
           Y           -0.05461   0.98344   0.17280
           Z            0.00013  -0.17305   0.98491
 This molecule is an asymmetric top.
 Rotational symmetry number  1.
 Rotational temperatures (Kelvin)      0.24401     0.13828     0.13420
 Rotational constants (GHZ):           5.08431     2.88129     2.79626
 Zero-point vibrational energy     216855.2 (Joules/Mol)
                                   51.82963 (Kcal/Mol)
 Warning -- explicit consideration of  10 degrees of freedom as
           vibrations may cause significant error
 Vibrational temperatures:    253.42   263.36   357.43   375.09   520.50
          (Kelvin)            551.75   600.12   715.57   861.68   873.38
                             1047.50  1328.05  1412.99  1563.02  1630.21
                             1707.92  1919.82  2003.27  2059.13  2146.57
                             2161.68  3384.52  4413.91  4532.76  4551.86
                             5450.48  5477.31

 Zero-point correction=                           0.082596 (Hartree/Particle)
 Thermal correction to Energy=                    0.089376
 Thermal correction to Enthalpy=                  0.090321
 Thermal correction to Gibbs Free Energy=         0.052701
 Sum of electronic and zero-point Energies=           -322.421021
 Sum of electronic and thermal Energies=              -322.414240
 Sum of electronic and thermal Enthalpies=            -322.413296
 Sum of electronic and thermal Free Energies=         -322.450916

                     E (Thermal)             CV                S
                      KCal/Mol        Cal/Mol-Kelvin    Cal/Mol-Kelvin
 Total                   56.084             23.895             79.178
 Electronic               0.000              0.000              0.000
 Translational            0.889              2.981             39.304
 Rotational               0.889              2.981             26.465
 Vibrational             54.307             17.933             13.409
 Vibration     1          0.628              1.872              2.369
 Vibration     2          0.631              1.863              2.297
 Vibration     3          0.662              1.765              1.742
 Vibration     4          0.669              1.745              1.657
 Vibration     5          0.736              1.551              1.115
 Vibration     6          0.753              1.505              1.025
 Vibration     7          0.780              1.433              0.902
 Vibration     8          0.853              1.256              0.665
 Vibration     9          0.957              1.034              0.452
 Vibration    10          0.966              1.017              0.438

 Optimization completed.
    -- Stationary point found.
 Normal termination of Gaussian 09 at Thu Sep  8 15:09:51 2022.
