 Gaussian 09, Revision E.01,
 Gaussian 09:  ES64L-G09RevE.01 30-Nov-2015

 -------------------------
 #P OPT Freq B3LYP/6-31G**
 -------------------------

 --------
 Frag_286
 --------
 Symbolic Z-matrix:
 Charge =  0 Multiplicity = 1

 SCF Done:  E(RB3LYP) =  -266.718374988     A.U. after   15 cycles
 SCF Done:  E(RB3LYP) =  -266.732272299     A.U. after   13 cycles
 SCF Done:  E(RB3LYP) =  -266.733417321     A.U. after   12 cycles
 SCF Done:  E(RB3LYP) =  -266.734573427     A.U. after   12 cycles
 SCF Done:  E(RB3LYP) =  -266.735171393     A.U. after   12 cycles
 SCF Done:  E(RB3LYP) =  -266.735591794     A.U. after   12 cycles
 SCF Done:  E(RB3LYP) =  -266.735629859     A.U. after   11 cycles
 SCF Done:  E(RB3LYP) =  -266.735634803     A.U. after    9 cycles
 SCF Done:  E(RB3LYP) =  -266.735635476     A.U. after    8 cycles
 SCF Done:  E(RB3LYP) =  -266.735635549     A.U. after    7 cycles
 Optimization completed.
    -- Stationary point found.
 Normal termination of Gaussian 09 at Sat Aug 21 01:33:06 2021.

 ----------------------------------------------------------------------
 #P Geom=AllCheck Guess=TCheck SCRF=Check GenChk RB3LYP/6-31G(d,p) Freq
 ----------------------------------------------------------------------

 Structure from the checkpoint file:  "/public/home/users/caep010/.cache/gau_scr/Gau-96350.chk"
 --------
 Frag_286
 --------
 Charge =  0 Multiplicity = 1

                         Standard orientation:
 ---------------------------------------------------------------------
 Center     Atomic      Atomic             Coordinates (Angstroms)
 Number     Number       Type             X           Y           Z
 ---------------------------------------------------------------------
      1          6           0        1.048903    1.474782   -0.255766
      2          6           0        0.690037    0.205600   -0.019132
      3          6           0        1.706938   -0.878271    0.240807
      4          6           0       -0.752164   -0.206762   -0.028247
      5          7           0       -1.194255   -1.392613   -0.251620
      6          7           0       -1.668219    0.815936    0.184860
      7          1           0        2.092583    1.775215   -0.251052
      8          1           0        0.317820    2.239646   -0.493448
      9          1           0        1.721884   -1.614745   -0.572161
     10          1           0        1.483047   -1.425714    1.162862
     11          1           0        2.712154   -0.458322    0.320087
     12          1           0       -0.429955   -2.024292   -0.488770
     13          1           0       -2.613371    0.468127    0.286623
     14          1           0       -1.409129    1.504733    0.877204
 ---------------------------------------------------------------------

 SCF Done:  E(RB3LYP) =  -266.735635549     A.U. after    1 cycles

 The electronic state is 1-A.
 Alpha  occ. eigenvalues --  -14.33667 -14.29095 -10.25318 -10.20847 -10.19192
 Alpha  occ. eigenvalues --  -10.19025  -0.93840  -0.84098  -0.79759  -0.69582
 Alpha  occ. eigenvalues --   -0.61716  -0.55196  -0.51398  -0.46271  -0.45365
 Alpha  occ. eigenvalues --   -0.42650  -0.42451  -0.38514  -0.36650  -0.35843
 Alpha  occ. eigenvalues --   -0.26407  -0.25420  -0.23400
 Alpha virt. eigenvalues --   -0.02317   0.07814   0.08906   0.10820   0.12947
 Alpha virt. eigenvalues --    0.14795   0.15079   0.17021   0.18232   0.20874
 Alpha virt. eigenvalues --    0.24527   0.30518   0.32908   0.37180   0.41080

 Mulliken charges:
               1
     1  C   -0.283108
     2  C    0.129785
     3  C   -0.381851
     4  C    0.398474
     5  N   -0.573303
     6  N   -0.609963
     7  H    0.098635
     8  H    0.113533
     9  H    0.123947
    10  H    0.128270
    11  H    0.112942
    12  H    0.218254
    13  H    0.268590
    14  H    0.255797
 Sum of Mulliken charges =  -0.00000

 Dipole moment (field-independent basis, Debye):
    X=              1.6220    Y=              1.3992    Z=              1.2337  Tot=              2.4720
 Quadrupole moment (field-independent basis, Debye-Ang):
   XX=            -35.4963   YY=            -36.0190   ZZ=            -37.6042
   XY=             -4.7069   XZ=             -2.6661   YZ=              1.6579

  Exact polarizability:  60.674   4.525  73.517  -1.025   0.684  31.371
 Approx polarizability:  80.036  14.618 126.269  -1.218   1.749  45.203

                      1                      2                      3
                      A                      A                      A
 Frequencies --     77.1152               184.6656               288.6684
 Red. masses --      3.3527                 1.0642                 3.0665
 Frc consts  --      0.0117                 0.0214                 0.1506
 IR Inten    --      1.0000                 0.3963                 2.0540

                      4                      5                      6
                      A                      A                      A
 Frequencies --    332.9719               395.2569               444.9096
 Red. masses --      2.6406                 2.5563                 1.2607
 Frc consts  --      0.1725                 0.2353                 0.1470
 IR Inten    --      3.0054                 1.5140                45.1487

                      7                      8                      9
                      A                      A                      A
 Frequencies --    520.6708               544.1118               610.9406
 Red. masses --      2.2585                 2.9625                 1.4479
 Frc consts  --      0.3607                 0.5168                 0.3184
 IR Inten    --     16.3058                 6.3291               123.8245

                     10                     11                     12
                      A                      A                      A
 Frequencies --    682.1855               752.8510               809.5224
 Red. masses --      1.2907                 3.2285                 2.1075
 Frc consts  --      0.3539                 1.0781                 0.8137
 IR Inten    --    113.4443                 2.5113                23.5040

                     13                     14                     15
                      A                      A                      A
 Frequencies --    848.6752               955.3271               961.2185
 Red. masses --      1.1517                 1.5485                 1.5996
 Frc consts  --      0.4887                 0.8327                 0.8707
 IR Inten    --     37.7646                21.0735                13.7014

                     16                     17                     18
                      A                      A                      A
 Frequencies --   1024.3566              1074.1775              1119.2861
 Red. masses --      1.3805                 1.4756                 1.7322
 Frc consts  --      0.8535                 1.0032                 1.2786
 IR Inten    --      6.1963                 0.9246                33.7039

                     19                     20                     21
                      A                      A                      A
 Frequencies --   1172.4248              1272.2241              1414.8160
 Red. masses --      1.3350                 2.2373                 1.3012
 Frc consts  --      1.0812                 2.1335                 1.5346
 IR Inten    --     60.2179                28.4324                17.3434

                     22                     23                     24
                      A                      A                      A
 Frequencies --   1442.2145              1459.4408              1493.8740
 Red. masses --      1.7300                 1.5895                 1.0478
 Frc consts  --      2.1201                 1.9948                 1.3777
 IR Inten    --     13.1409                38.8275                 8.0690

                     25                     26                     27
                      A                      A                      A
 Frequencies --   1508.6420              1623.4733              1685.3461
 Red. masses --      1.0549                 1.3531                 4.3281
 Frc consts  --      1.4146                 2.1012                 7.2431
 IR Inten    --     13.2661                58.4749               128.6496

                     28                     29                     30
                      A                      A                      A
 Frequencies --   1726.2723              3038.1590              3093.7630
 Red. masses --      4.9675                 1.0398                 1.0978
 Frc consts  --      8.7218                 5.6549                 6.1906
 IR Inten    --     55.9285                15.4587                17.3606

                     31                     32                     33
                      A                      A                      A
 Frequencies --   3136.2636              3162.7696              3252.2811
 Red. masses --      1.1012                 1.0610                 1.1156
 Frc consts  --      6.3819                 6.2531                 6.9522
 IR Inten    --     14.3698                 7.1702                 8.2998

                     34                     35                     36
                      A                      A                      A
 Frequencies --   3511.5842              3564.1982              3683.1469
 Red. masses --      1.0745                 1.0468                 1.0993
 Frc consts  --      7.8067                 7.8348                 8.7861
 IR Inten    --      0.6667                15.1385                15.5493

 - Thermochemistry -
 -------------------
 Temperature   298.150 Kelvin.  Pressure   1.00000 Atm.
 Atom     1 has atomic number  6 and mass  12.00000

 Molecular mass:    84.06875 amu.
 Principal axes and moments of inertia in atomic units:
                           1         2         3
     Eigenvalues --   351.16638 542.84878 850.79828
           X            0.99700  -0.07720  -0.00578
           Y            0.07720   0.99702   0.00045
           Z            0.00573  -0.00089   0.99998
 This molecule is an asymmetric top.
 Rotational symmetry number  1.
 Rotational temperatures (Kelvin)      0.24665     0.15955     0.10180
 Rotational constants (GHZ):           5.13928     3.32457     2.12123
 Zero-point vibrational energy     316219.7 (Joules/Mol)
                                   75.57832 (Kcal/Mol)
 Warning -- explicit consideration of   9 degrees of freedom as
           vibrations may cause significant error
 Vibrational temperatures:    110.95   265.69   415.33   479.07   568.69
          (Kelvin)            640.12   749.13   782.85   879.01   981.51
                             1083.18  1164.72  1221.05  1374.50  1382.98
                             1473.82  1545.50  1610.40  1686.86  1830.44
                             2035.60  2075.02  2099.81  2149.35  2170.60
                             2335.81  2424.83  2483.72  4371.23  4451.23
                             4512.38  4550.51  4679.30  5052.38  5128.08
                             5299.22

 Zero-point correction=                           0.120442 (Hartree/Particle)
 Thermal correction to Energy=                    0.127185
 Thermal correction to Enthalpy=                  0.128129
 Thermal correction to Gibbs Free Energy=         0.090266
 Sum of electronic and zero-point Energies=           -266.615194
 Sum of electronic and thermal Energies=              -266.608450
 Sum of electronic and thermal Enthalpies=            -266.607506
 Sum of electronic and thermal Free Energies=         -266.645370

                     E (Thermal)             CV                S
                      KCal/Mol        Cal/Mol-Kelvin    Cal/Mol-Kelvin
 Total                   79.810             24.816             79.690
 Electronic               0.000              0.000              0.000
 Translational            0.889              2.981             39.201
 Rotational               0.889              2.981             26.586
 Vibrational             78.032             18.855             13.903
 Vibration     1          0.599              1.964              3.963
 Vibration     2          0.631              1.861              2.281
 Vibration     3          0.685              1.695              1.482
 Vibration     4          0.715              1.610              1.246
 Vibration     5          0.762              1.480              0.980
 Vibration     6          0.804              1.372              0.811
 Vibration     7          0.876              1.204              0.608
 Vibration     8          0.899              1.153              0.557
 Vibration     9          0.970              1.009              0.431

 Normal termination of Gaussian 09 at Sat Aug 21 01:33:17 2021.
