 Gaussian 09, Revision D.01,
 Gaussian 09:  ES64L-G09RevD.01 24-Apr-2013

 -------------------------
 #P OPT Freq B3LYP/6-31G**
 -------------------------

 -------
 Frag_60
 -------
 Symbolic Z-matrix:
 Charge =  0 Multiplicity = 1

 SCF Done:  E(RB3LYP) =  -194.368725622     A.U. after   12 cycles
 SCF Done:  E(RB3LYP) =  -194.368725847     A.U. after    6 cycles
 Optimization completed.
    -- Stationary point found.
 Normal termination of Gaussian 09 at Fri Jul 23 07:54:54 2021.

 ----------------------------------------------------------------------
 #P Geom=AllCheck Guess=TCheck SCRF=Check GenChk RB3LYP/6-31G(d,p) Freq
 ----------------------------------------------------------------------

 Structure from the checkpoint file:  "/vol2/users/liuj201281/HOFBenchmark/IsodesmicSplit/Sample60/Ring26/Running/Gau-118471.chk"
 -------
 Frag_60
 -------
 Charge =  0 Multiplicity = 1

                         Standard orientation:
 ---------------------------------------------------------------------
 Center     Atomic      Atomic             Coordinates (Angstroms)
 Number     Number       Type             X           Y           Z
 ---------------------------------------------------------------------
      1          6           0       -0.286506   -0.610373    1.272876
      2          6           0       -0.286506    0.238482    0.000000
      3          6           0       -0.286506   -0.610373   -1.272876
      4          8           0        0.800872    1.166818    0.000000
      5          1           0        0.597712   -1.260198    1.304833
      6          1           0       -0.270334    0.031190    2.158232
      7          1           0       -1.171565   -1.253504    1.324496
      8          1           0       -1.179937    0.874693    0.000000
      9          1           0       -1.171565   -1.253504   -1.324496
     10          1           0        0.597712   -1.260198   -1.304833
     11          1           0       -0.270334    0.031190   -2.158232
     12          1           0        1.618449    0.649373    0.000000
 ---------------------------------------------------------------------

 SCF Done:  E(RB3LYP) =  -194.368725847     A.U. after    1 cycles

 The electronic state is 1-A'.
 Alpha  occ. eigenvalues --  -19.13529 -10.23280 -10.17528 -10.17527  -1.00882
 Alpha  occ. eigenvalues --   -0.76536  -0.68795  -0.59654  -0.47379  -0.46294
 Alpha  occ. eigenvalues --   -0.42305  -0.40707  -0.38782  -0.35588  -0.35270
 Alpha  occ. eigenvalues --   -0.31392  -0.26171
 Alpha virt. eigenvalues --    0.07478   0.11934   0.13298   0.15178   0.15578
 Alpha virt. eigenvalues --    0.17498   0.18881   0.19309   0.22756   0.24028
 Alpha virt. eigenvalues --    0.26422   0.50090   0.52817   0.54813   0.57851

 Mulliken charges:
               1
     1  C   -0.319667
     2  C    0.166504
     3  C   -0.319667
     4  O   -0.537615
     5  H    0.090335
     6  H    0.116506
     7  H    0.101085
     8  H    0.100093
     9  H    0.101085
    10  H    0.090335
    11  H    0.116506
    12  H    0.294501
 Sum of Mulliken charges =   0.00000

 Dipole moment (field-independent basis, Debye):
    X=              0.1023    Y=             -1.5936    Z=              0.0000  Tot=              1.5968
 Quadrupole moment (field-independent basis, Debye-Ang):
   XX=            -23.4296   YY=            -29.5743   ZZ=            -26.5793
   XY=             -1.2510   XZ=              0.0000   YZ=              0.0000

  Exact polarizability:  37.933   0.880  36.001   0.000   0.000  37.925
 Approx polarizability:  52.899   0.354  49.564   0.000   0.000  45.405

                      1                      2                      3
                     A"                     A'                     A"
 Frequencies --    232.6358               269.2466               306.8884
 Red. masses --      1.0260                 1.0724                 1.0541
 Frc consts  --      0.0327                 0.0458                 0.0585
 IR Inten    --      0.2069                 0.3199               100.7742

                      4                      5                      6
                     A'                     A"                     A'
 Frequencies --    356.9976               427.7280               473.3858
 Red. masses --      2.1425                 3.3500                 2.0137
 Frc consts  --      0.1609                 0.3611                 0.2659
 IR Inten    --      0.2624                30.3679                 3.7047

                      7                      8                      9
                     A'                     A"                     A"
 Frequencies --    818.8527               924.2203               942.9738
 Red. masses --      2.8945                 1.3865                 1.2588
 Frc consts  --      1.1435                 0.6978                 0.6595
 IR Inten    --      6.2142                 0.2760                 0.8431

                     10                     11                     12
                     A'                     A'                     A"
 Frequencies --    974.1682              1090.4055              1150.6590
 Red. masses --      2.1783                 1.4454                 2.0740
 Frc consts  --      1.2180                 1.0125                 1.6179
 IR Inten    --     17.2933                91.2712                17.5093

                     13                     14                     15
                     A'                     A'                     A"
 Frequencies --   1192.8283              1318.1790              1369.0738
 Red. masses --      2.0231                 1.5197                 1.3299
 Frc consts  --      1.6960                 1.5558                 1.4686
 IR Inten    --     29.9012                 5.6158                 8.7663

                     16                     17                     18
                     A"                     A'                     A'
 Frequencies --   1413.4739              1421.5314              1430.9226
 Red. masses --      1.3339                 1.1744                 1.2515
 Frc consts  --      1.5702                 1.3982                 1.5098
 IR Inten    --     12.4740                18.5809                36.9162

                     19                     20                     21
                     A"                     A"                     A'
 Frequencies --   1497.5573              1500.0216              1512.6191
 Red. masses --      1.0443                 1.0567                 1.0594
 Frc consts  --      1.3799                 1.4008                 1.4282
 IR Inten    --      0.1635                 0.2790                 7.2920

                     22                     23                     24
                     A'                     A"                     A'
 Frequencies --   1521.3156              3029.5772              3033.9452
 Red. masses --      1.0523                 1.0391                 1.0428
 Frc consts  --      1.4350                 5.6190                 5.6554
 IR Inten    --      7.4022                14.6428                15.3642

                     25                     26                     27
                     A'                     A"                     A'
 Frequencies --   3054.6807              3096.7585              3107.4405
 Red. masses --      1.0819                 1.0986                 1.0980
 Frc consts  --      5.9482                 6.2074                 6.2470
 IR Inten    --     22.3928                 3.4865                78.3770

                     28                     29                     30
                     A"                     A'                     A'
 Frequencies --   3128.4648              3130.3428              3790.2716
 Red. masses --      1.1022                 1.1024                 1.0659
 Frc consts  --      6.3557                 6.3643                 9.0220
 IR Inten    --     20.3600                31.5305                 6.5581

 - Thermochemistry -
 -------------------
 Temperature   298.150 Kelvin.  Pressure   1.00000 Atm.
 Atom     1 has atomic number  6 and mass  12.00000

 Molecular mass:    60.05751 amu.
 Principal axes and moments of inertia in atomic units:
                           1         2         3
     Eigenvalues --   212.97443 226.49155 381.02683
           X            0.00000   0.54138   0.84078
           Y            0.00000   0.84078  -0.54138
           Z            1.00000   0.00000   0.00000
 This molecule is an asymmetric top.
 Rotational symmetry number  1.
 Rotational temperatures (Kelvin)      0.40669     0.38242     0.22732
 Rotational constants (GHZ):           8.47398     7.96825     4.73652
 Zero-point vibrational energy     284215.8 (Joules/Mol)
                                   67.92920 (Kcal/Mol)
 Warning -- explicit consideration of   6 degrees of freedom as
           vibrations may cause significant error
 Vibrational temperatures:    334.71   387.39   441.54   513.64   615.40
          (Kelvin)            681.10  1178.14  1329.75  1356.73  1401.61
                             1568.85  1655.54  1716.21  1896.56  1969.79
                             2033.67  2045.26  2058.78  2154.65  2158.19
                             2176.32  2188.83  4358.88  4365.16  4395.00
                             4455.54  4470.91  4501.16  4503.86  5453.35

 Zero-point correction=                           0.108252 (Hartree/Particle)
 Thermal correction to Energy=                    0.113680
 Thermal correction to Enthalpy=                  0.114624
 Thermal correction to Gibbs Free Energy=         0.080876
 Sum of electronic and zero-point Energies=           -194.260474
 Sum of electronic and thermal Energies=              -194.255046
 Sum of electronic and thermal Enthalpies=            -194.254102
 Sum of electronic and thermal Free Energies=         -194.287850

                     E (Thermal)             CV                S
                      KCal/Mol        Cal/Mol-Kelvin    Cal/Mol-Kelvin
 Total                   71.335             18.943             71.028
 Electronic               0.000              0.000              0.000
 Translational            0.889              2.981             38.198
 Rotational               0.889              2.981             24.423
 Vibrational             69.558             12.981              8.407
 Vibration     1          0.653              1.791              1.859
 Vibration     2          0.674              1.730              1.601
 Vibration     3          0.697              1.661              1.379
 Vibration     4          0.732              1.561              1.135
 Vibration     5          0.789              1.410              0.866
 Vibration     6          0.830              1.309              0.728

 Optimization completed.
    -- Stationary point found.
 Normal termination of Gaussian 09 at Fri Jul 23 07:55:04 2021.
