 Gaussian 09, Revision E.01,
 Gaussian 09:  ES64L-G09RevE.01 30-Nov-2015

 -------------------------
 #P OPT Freq B3LYP/6-31G**
 -------------------------

 --------
 Frag_190
 --------
 Symbolic Z-matrix:
 Charge =  0 Multiplicity = 1

 SCF Done:  E(RB3LYP) =  -345.541037738     A.U. after   15 cycles
 SCF Done:  E(RB3LYP) =  -345.544830847     A.U. after   13 cycles
 SCF Done:  E(RB3LYP) =  -345.545177603     A.U. after   12 cycles
 SCF Done:  E(RB3LYP) =  -345.545194574     A.U. after    9 cycles
 SCF Done:  E(RB3LYP) =  -345.545195809     A.U. after    8 cycles
 Optimization completed.
    -- Stationary point found.
 Normal termination of Gaussian 09 at Sat Aug 21 01:35:29 2021.

 ----------------------------------------------------------------------
 #P Geom=AllCheck Guess=TCheck SCRF=Check GenChk RB3LYP/6-31G(d,p) Freq
 ----------------------------------------------------------------------

 Structure from the checkpoint file:  "/public/home/users/caep010/.cache/gau_scr/Gau-14391.chk"
 --------
 Frag_190
 --------
 Charge =  0 Multiplicity = 1

                         Standard orientation:
 ---------------------------------------------------------------------
 Center     Atomic      Atomic             Coordinates (Angstroms)
 Number     Number       Type             X           Y           Z
 ---------------------------------------------------------------------
      1          6           0        1.907325    1.246046    0.000045
      2          6           0        0.682353    0.681735   -0.000041
      3          6           0       -0.541886    1.469165   -0.000015
      4          6           0       -1.755470    0.871505    0.000002
      5          6           0       -1.866553   -0.576075    0.000045
      6          6           0       -0.778573   -1.382923   -0.000003
      7          6           0        0.581178   -0.828563   -0.000222
      8          8           0        1.579810   -1.545442    0.000091
      9          1           0        2.789566    0.614615    0.000004
     10          1           0        2.040568    2.323710    0.000142
     11          1           0       -0.452665    2.552539    0.000011
     12          1           0       -2.664345    1.464945    0.000042
     13          1           0       -2.862408   -1.012647    0.000138
     14          1           0       -0.859439   -2.464971    0.000070
 ---------------------------------------------------------------------

 SCF Done:  E(RB3LYP) =  -345.545195809     A.U. after    1 cycles

 The electronic state is 1-A.
 Alpha  occ. eigenvalues --  -19.12560 -10.26774 -10.21610 -10.21379 -10.21168
 Alpha  occ. eigenvalues --  -10.21020 -10.20683 -10.19534  -1.02292  -0.85469
 Alpha  occ. eigenvalues --   -0.79072  -0.74192  -0.67320  -0.60248  -0.57984
 Alpha  occ. eigenvalues --   -0.50836  -0.49187  -0.46682  -0.43540  -0.41951
 Alpha  occ. eigenvalues --   -0.41355  -0.40699  -0.37716  -0.35830  -0.33659
 Alpha  occ. eigenvalues --   -0.29928  -0.24427  -0.22863
 Alpha virt. eigenvalues --   -0.09688   0.01354   0.02538   0.08944   0.11674
 Alpha virt. eigenvalues --    0.14249   0.15971   0.16096   0.17421   0.18218
 Alpha virt. eigenvalues --    0.22404   0.28054   0.29807   0.31270   0.33815

 Mulliken charges:
               1
     1  C   -0.248433
     2  C    0.096301
     3  C   -0.100600
     4  C   -0.096873
     5  C   -0.075777
     6  C   -0.115724
     7  C    0.377486
     8  O   -0.496905
     9  H    0.147046
    10  H    0.114902
    11  H    0.094126
    12  H    0.096990
    13  H    0.102101
    14  H    0.105361
 Sum of Mulliken charges =   0.00000

 Dipole moment (field-independent basis, Debye):
    X=             -2.0968    Y=              2.5640    Z=             -0.0003  Tot=              3.3123
 Quadrupole moment (field-independent basis, Debye-Ang):
   XX=            -42.6976   YY=            -43.9974   ZZ=            -47.8568
   XY=              6.0287   XZ=             -0.0007   YZ=              0.0006

  Exact polarizability: 104.265   7.919  89.808   0.000   0.000  26.505
 Approx polarizability: 184.871  11.284 157.853   0.003  -0.001  40.825

                      1                      2                      3
                      A                      A                      A
 Frequencies --     96.4462               236.0697               339.1493
 Red. masses --      4.2504                 4.1887                 3.0013
 Frc consts  --      0.0233                 0.1375                 0.2034
 IR Inten    --      4.0395                 0.0546                 4.8678

                      4                      5                      6
                      A                      A                      A
 Frequencies --    434.6589               444.8333               470.8956
 Red. masses --      2.9857                 6.0208                 2.4117
 Frc consts  --      0.3324                 0.7019                 0.3151
 IR Inten    --      1.5249                 4.5633                 1.4221

                      7                      8                      9
                      A                      A                      A
 Frequencies --    524.8325               575.2731               672.9500
 Red. masses --      5.3559                 7.1698                 1.0717
 Frc consts  --      0.8692                 1.3980                 0.2860
 IR Inten    --      8.0351                 2.3038                19.8797

                     10                     11                     12
                      A                      A                      A
 Frequencies --    715.4523               766.2712               817.1677
 Red. masses --      4.6754                 2.2746                 1.4390
 Frc consts  --      1.4100                 0.7869                 0.5661
 IR Inten    --      7.5707                 1.8402                28.1589

                     13                     14                     15
                      A                      A                      A
 Frequencies --    879.4194               880.3711               956.6437
 Red. masses --      1.9937                 4.5053                 2.1142
 Frc consts  --      0.9085                 2.0574                 1.1400
 IR Inten    --     13.6717                 0.2354                 0.6177

                     16                     17                     18
                      A                      A                      A
 Frequencies --    982.5938               997.3465              1004.5288
 Red. masses --      1.2995                 1.3795                 2.0547
 Frc consts  --      0.7392                 0.8085                 1.2216
 IR Inten    --      1.8045                25.2435                 1.9726

                     19                     20                     21
                      A                      A                      A
 Frequencies --   1017.0401              1158.3104              1187.5083
 Red. masses --      1.3032                 1.7212                 1.1705
 Frc consts  --      0.7942                 1.3606                 0.9725
 IR Inten    --      0.1143                18.8528                 0.9427

                     22                     23                     24
                      A                      A                      A
 Frequencies --   1216.1233              1334.7906              1385.0507
 Red. masses --      1.5468                 2.5454                 1.4652
 Frc consts  --      1.3479                 2.6720                 1.6560
 IR Inten    --     13.3847                 3.3722                 9.5788

                     25                     26                     27
                      A                      A                      A
 Frequencies --   1431.6692              1472.5782              1602.9218
 Red. masses --      1.5210                 1.7186                 7.7228
 Frc consts  --      1.8368                 2.1957                11.6910
 IR Inten    --     37.1931                 0.3192                35.1738

                     28                     29                     30
                      A                      A                      A
 Frequencies --   1644.7478              1688.8217              1750.8142
 Red. masses --      4.9948                 6.0981                 8.6376
 Frc consts  --      7.9610                10.2473                15.5999
 IR Inten    --     40.0666                33.5072               146.9043

                     31                     32                     33
                      A                      A                      A
 Frequencies --   3164.0719              3175.8088              3180.4881
 Red. masses --      1.0587                 1.0863                 1.0896
 Frc consts  --      6.2446                 6.4552                 6.4940
 IR Inten    --      3.7208                 4.2524                14.6511

                     34                     35                     36
                      A                      A                      A
 Frequencies --   3206.0517              3215.8304              3264.8928
 Red. masses --      1.0954                 1.0960                 1.1176
 Frc consts  --      6.6337                 6.6779                 7.0188
 IR Inten    --     19.4693                 6.7306                 1.6929

 - Thermochemistry -
 -------------------
 Temperature   298.150 Kelvin.  Pressure   1.00000 Atm.
 Atom     1 has atomic number  6 and mass  12.00000

 Molecular mass:   106.04186 amu.
 Principal axes and moments of inertia in atomic units:
                           1         2         3
     Eigenvalues --   548.18772 756.536161304.72387
           X            0.99411   0.10841  -0.00000
           Y           -0.10841   0.99411   0.00000
           Z            0.00000  -0.00000   1.00000
 This molecule is an asymmetric top.
 Rotational symmetry number  1.
 Warning -- assumption of classical behavior for rotation
           may cause significant error
 Rotational temperatures (Kelvin)      0.15800     0.11449     0.06638
 Rotational constants (GHZ):           3.29220     2.38553     1.38324
 Zero-point vibrational energy     286460.3 (Joules/Mol)
                                   68.46566 (Kcal/Mol)
 Warning -- explicit consideration of   8 degrees of freedom as
           vibrations may cause significant error
 Vibrational temperatures:    138.76   339.65   487.96   625.38   640.02
          (Kelvin)            677.51   755.12   827.69   968.22  1029.37
                             1102.49  1175.72  1265.29  1266.66  1376.40
                             1413.73  1434.96  1445.29  1463.29  1666.55
                             1708.56  1749.73  1920.46  1992.78  2059.85
                             2118.71  2306.24  2366.42  2429.83  2519.03
                             4552.39  4569.27  4576.01  4612.79  4626.86
                             4697.45

 Zero-point correction=                           0.109107 (Hartree/Particle)
 Thermal correction to Energy=                    0.115526
 Thermal correction to Enthalpy=                  0.116470
 Thermal correction to Gibbs Free Energy=         0.078552
 Sum of electronic and zero-point Energies=           -345.436089
 Sum of electronic and thermal Energies=              -345.429670
 Sum of electronic and thermal Enthalpies=            -345.428726
 Sum of electronic and thermal Free Energies=         -345.466644

                     E (Thermal)             CV                S
                      KCal/Mol        Cal/Mol-Kelvin    Cal/Mol-Kelvin
 Total                   72.494             24.889             79.806
 Electronic               0.000              0.000              0.000
 Translational            0.889              2.981             39.893
 Rotational               0.889              2.981             27.783
 Vibrational             70.716             18.928             12.129
 Vibration     1          0.603              1.952              3.525
 Vibration     2          0.655              1.786              1.832
 Vibration     3          0.719              1.597              1.216
 Vibration     4          0.795              1.395              0.844
 Vibration     5          0.804              1.372              0.812
 Vibration     6          0.828              1.315              0.735
 Vibration     7          0.880              1.195              0.599
 Vibration     8          0.932              1.085              0.494

 Optimization completed.
    -- Stationary point found.
 Normal termination of Gaussian 09 at Sat Aug 21 01:35:43 2021.
