 Gaussian 09, Revision E.01,
 Gaussian 09:  ES64L-G09RevE.01 30-Nov-2015

 ----------------------------
 #P OPT Freq B3LYP/6-31G(d,p)
 ----------------------------

 --------
 Frag_527
 --------
 Symbolic Z-matrix:
 Charge =  0 Multiplicity = 1

 SCF Done:  E(RB3LYP) =  -270.502678429     A.U. after   13 cycles
 SCF Done:  E(RB3LYP) =  -270.502782559     A.U. after   11 cycles
 SCF Done:  E(RB3LYP) =  -270.502605365     A.U. after   11 cycles
 SCF Done:  E(RB3LYP) =  -270.502762774     A.U. after   11 cycles
 SCF Done:  E(RB3LYP) =  -270.502795493     A.U. after    9 cycles
 SCF Done:  E(RB3LYP) =  -270.502795186     A.U. after    8 cycles
 SCF Done:  E(RB3LYP) =  -270.502795783     A.U. after    8 cycles
 SCF Done:  E(RB3LYP) =  -270.502795936     A.U. after    7 cycles
 Optimization completed.
    -- Stationary point found.
 Normal termination of Gaussian 09 at Thu Sep  8 15:04:27 2022.

 ----------------------------------------------------------------------
 #P Geom=AllCheck Guess=TCheck SCRF=Check GenChk RB3LYP/6-31G(d,p) Freq
 ----------------------------------------------------------------------

 Structure from the checkpoint file:  "B3LYP6-31Gdp.Frag_527.chk"
 --------
 Frag_527
 --------
 Charge =  0 Multiplicity = 1

                         Standard orientation:
 ---------------------------------------------------------------------
 Center     Atomic      Atomic             Coordinates (Angstroms)
 Number     Number       Type             X           Y           Z
 ---------------------------------------------------------------------
      1          6           0       -2.377211    0.000008   -0.034756
      2          6           0       -1.171746   -0.000168    0.020083
      3          6           0        0.301628   -0.000010    0.034540
      4          6           0        0.830023   -1.271616   -0.656989
      5          6           0        0.829760    1.271719   -0.656971
      6          8           0        0.689109    0.000023    1.418064
      7          1           0       -3.442065   -0.000317   -0.069399
      8          1           0        0.470829   -2.158246   -0.129976
      9          1           0        1.926532   -1.274114   -0.643612
     10          1           0        0.502013   -1.323063   -1.698936
     11          1           0        0.470383    2.158267   -0.129944
     12          1           0        1.926268    1.274448   -0.643597
     13          1           0        0.501738    1.323112   -1.698915
     14          1           0        1.656712    0.000134    1.434430
 ---------------------------------------------------------------------

 SCF Done:  E(RB3LYP) =  -270.502795936     A.U. after    1 cycles

 The electronic state is 1-A.
 Alpha  occ. eigenvalues --  -19.14525 -10.26732 -10.18424 -10.18423 -10.18179
 Alpha  occ. eigenvalues --  -10.17836  -1.02183  -0.79714  -0.72675  -0.69773
 Alpha  occ. eigenvalues --   -0.62693  -0.52364  -0.49043  -0.47744  -0.44051
 Alpha  occ. eigenvalues --   -0.41743  -0.39876  -0.38235  -0.36298  -0.33514
 Alpha  occ. eigenvalues --   -0.27940  -0.27032  -0.25827
 Alpha virt. eigenvalues --    0.04194   0.05830   0.07323   0.12263   0.13319
 Alpha virt. eigenvalues --    0.13822   0.16304   0.16650   0.18870   0.19678
 Alpha virt. eigenvalues --    0.20862   0.24550   0.25568   0.27414   0.43519

 Mulliken charges:
               1
     1  C   -0.453469
     2  C    0.353401
     3  C    0.126326
     4  C   -0.307563
     5  C   -0.307549
     6  O   -0.535903
     7  H    0.156417
     8  H    0.128005
     9  H    0.091370
    10  H    0.113576
    11  H    0.128010
    12  H    0.091367
    13  H    0.113575
    14  H    0.302437
 Sum of Mulliken charges =  -0.00000

 Dipole moment (field-independent basis, Debye):
    X=              1.3348    Y=             -0.0001    Z=             -1.3386  Tot=              1.8904
 Quadrupole moment (field-independent basis, Debye-Ang):
   XX=            -28.9744   YY=            -36.8750   ZZ=            -39.3014
   XY=              0.0015   XZ=              1.5780   YZ=              0.0002

  Exact polarizability:  72.374  -0.001  43.481   0.899   0.000  42.543
 Approx polarizability: 109.488  -0.007  54.901   3.297  -0.000  60.100

                      1                      2                      3
                      A                      A                      A
 Frequencies --    181.7663               189.3953               247.9349
 Red. masses --      3.0106                 3.2585                 1.0251
 Frc consts  --      0.0586                 0.0689                 0.0371
 IR Inten    --      1.4363                 2.5477                 2.0350

                      4                      5                      6
                      A                      A                      A
 Frequencies --    268.4088               285.1262               352.0465
 Red. masses --      1.0514                 1.0897                 2.3086
 Frc consts  --      0.0446                 0.0522                 0.1686
 IR Inten    --    109.5775                 0.5493                 1.1652

                      7                      8                      9
                      A                      A                      A
 Frequencies --    403.9244               415.3209               564.7359
 Red. masses --      3.9627                 2.8441                 4.7050
 Frc consts  --      0.3809                 0.2890                 0.8841
 IR Inten    --      8.5795                 3.7667                 7.5985

                     10                     11                     12
                      A                      A                      A
 Frequencies --    569.0290               625.7351               661.8403
 Red. masses --      5.7269                 1.2200                 1.2612
 Frc consts  --      1.0925                 0.2814                 0.3255
 IR Inten    --      2.8478                48.2925                38.3301

                     13                     14                     15
                      A                      A                      A
 Frequencies --    712.9994               909.3306               925.5434
 Red. masses --      4.1389                 2.2716                 1.5499
 Frc consts  --      1.2397                 1.1067                 0.7823
 IR Inten    --      1.4687                26.3870                 0.0976

                     16                     17                     18
                      A                      A                      A
 Frequencies --    970.4450              1025.3772              1155.8628
 Red. masses --      2.2130                 1.2992                 1.4878
 Frc consts  --      1.2279                 0.8048                 1.1711
 IR Inten    --     12.8925                 0.0742               122.6238

                     19                     20                     21
                      A                      A                      A
 Frequencies --   1194.1547              1203.6262              1385.1276
 Red. masses --      3.4136                 2.4609                 1.7457
 Frc consts  --      2.8681                 2.1005                 1.9733
 IR Inten    --     29.6848                39.9728                56.2288

                     22                     23                     24
                      A                      A                      A
 Frequencies --   1405.9100              1425.7022              1492.3979
 Red. masses --      1.2448                 1.2299                 1.0471
 Frc consts  --      1.4497                 1.4729                 1.3741
 IR Inten    --      5.8289                 3.3545                 0.1003

                     25                     26                     27
                      A                      A                      A
 Frequencies --   1496.2167              1509.0416              1521.3728
 Red. masses --      1.0499                 1.0510                 1.0790
 Frc consts  --      1.3848                 1.4102                 1.4714
 IR Inten    --      1.6405                 0.5843                 6.7411

                     28                     29                     30
                      A                      A                      A
 Frequencies --   2242.7055              3039.8066              3045.2458
 Red. masses --      5.9339                 1.0389                 1.0389
 Frc consts  --     17.5846                 5.6563                 5.6765
 IR Inten    --      1.1822                 8.8989                32.2619

                     31                     32                     33
                      A                      A                      A
 Frequencies --   3114.5057              3121.0466              3147.0407
 Red. masses --      1.0983                 1.0977                 1.1033
 Frc consts  --      6.2772                 6.3000                 6.4378
 IR Inten    --      3.5075                46.1732                12.4215

                     34                     35                     36
                      A                      A                      A
 Frequencies --   3148.7547              3490.6433              3794.1969
 Red. masses --      1.1036                 1.1615                 1.0658
 Frc consts  --      6.4467                 8.3384                 9.0403
 IR Inten    --     20.4729                56.4680                 9.0424

 - Thermochemistry -
 -------------------
 Temperature   298.150 Kelvin.  Pressure   1.00000 Atm.
 Atom     1 has atomic number  6 and mass  12.00000

 Molecular mass:    84.05751 amu.
 Principal axes and moments of inertia in atomic units:
                           1         2         3
     Eigenvalues --   379.00753 655.75745 669.58049
           X            0.99974   0.00000  -0.02264
           Y           -0.00000   1.00000   0.00000
           Z            0.02264  -0.00000   0.99974
 This molecule is an asymmetric top.
 Rotational symmetry number  1.
 Rotational temperatures (Kelvin)      0.22853     0.13208     0.12936
 Rotational constants (GHZ):           4.76176     2.75215     2.69533
 Zero-point vibrational energy     306497.1 (Joules/Mol)
                                   73.25457 (Kcal/Mol)
 Warning -- explicit consideration of  10 degrees of freedom as
           vibrations may cause significant error
 Vibrational temperatures:    261.52   272.50   356.72   386.18   410.23
          (Kelvin)            506.52   581.16   597.55   812.53   818.70
                              900.29   952.24  1025.85  1308.32  1331.65
                             1396.25  1475.29  1663.03  1718.12  1731.75
                             1992.89  2022.79  2051.26  2147.23  2152.72
                             2171.17  2188.91  3226.75  4373.60  4381.42
                             4481.07  4490.48  4527.88  4530.35  5022.25
                             5459.00

 Zero-point correction=                           0.116739 (Hartree/Particle)
 Thermal correction to Energy=                    0.124099
 Thermal correction to Enthalpy=                  0.125044
 Thermal correction to Gibbs Free Energy=         0.086567
 Sum of electronic and zero-point Energies=           -270.386057
 Sum of electronic and thermal Energies=              -270.378696
 Sum of electronic and thermal Enthalpies=            -270.377752
 Sum of electronic and thermal Free Energies=         -270.416229

                     E (Thermal)             CV                S
                      KCal/Mol        Cal/Mol-Kelvin    Cal/Mol-Kelvin
 Total                   77.874             27.215             80.980
 Electronic               0.000              0.000              0.000
 Translational            0.889              2.981             39.200
 Rotational               0.889              2.981             26.612
 Vibrational             76.096             21.253             15.168
 Vibration     1          0.630              1.865              2.310
 Vibration     2          0.633              1.854              2.234
 Vibration     3          0.662              1.766              1.745
 Vibration     4          0.673              1.731              1.606
 Vibration     5          0.683              1.701              1.503
 Vibration     6          0.729              1.571              1.157
 Vibration     7          0.769              1.462              0.948
 Vibration     8          0.779              1.437              0.908
 Vibration     9          0.921              1.108              0.514
 Vibration    10          0.925              1.098              0.506

 Optimization completed.
    -- Stationary point found.
 Normal termination of Gaussian 09 at Thu Sep  8 15:04:38 2022.
