 Gaussian 09, Revision E.01,
 Gaussian 09:  ES64L-G09RevE.01 30-Nov-2015

 -------------------------
 #P OPT Freq B3LYP/6-31G**
 -------------------------

 --------
 Frag_219
 --------
 Symbolic Z-matrix:
 Charge =  0 Multiplicity = 1

 SCF Done:  E(RB3LYP) =  -284.403336256     A.U. after   14 cycles
 SCF Done:  E(RB3LYP) =  -284.417430534     A.U. after   13 cycles
 SCF Done:  E(RB3LYP) =  -284.418238899     A.U. after   12 cycles
 SCF Done:  E(RB3LYP) =  -284.418355362     A.U. after   12 cycles
 SCF Done:  E(RB3LYP) =  -284.418347938     A.U. after   12 cycles
 SCF Done:  E(RB3LYP) =  -284.418495027     A.U. after   10 cycles
 SCF Done:  E(RB3LYP) =  -284.418688411     A.U. after   11 cycles
 SCF Done:  E(RB3LYP) =  -284.418864412     A.U. after   13 cycles
 SCF Done:  E(RB3LYP) =  -284.419183086     A.U. after   11 cycles
 SCF Done:  E(RB3LYP) =  -284.420169966     A.U. after   12 cycles
 SCF Done:  E(RB3LYP) =  -284.433896952     A.U. after   13 cycles
 SCF Done:  E(RB3LYP) =  -284.436828840     A.U. after   13 cycles
 SCF Done:  E(RB3LYP) =  -284.436996786     A.U. after   11 cycles
 SCF Done:  E(RB3LYP) =  -284.437010677     A.U. after    9 cycles
 SCF Done:  E(RB3LYP) =  -284.437014705     A.U. after    8 cycles
 SCF Done:  E(RB3LYP) =  -284.437019584     A.U. after    9 cycles
 SCF Done:  E(RB3LYP) =  -284.437027233     A.U. after   11 cycles
 SCF Done:  E(RB3LYP) =  -284.437034328     A.U. after   10 cycles
 SCF Done:  E(RB3LYP) =  -284.437035476     A.U. after    8 cycles
 Optimization completed.
    -- Stationary point found.
 Normal termination of Gaussian 09 at Sat Aug 21 01:37:25 2021.

 ----------------------------------------------------------------------
 #P Geom=AllCheck Guess=TCheck SCRF=Check GenChk RB3LYP/6-31G(d,p) Freq
 ----------------------------------------------------------------------

 Structure from the checkpoint file:  "/public/home/users/caep010/.cache/gau_scr/Gau-161509.chk"
 --------
 Frag_219
 --------
 Charge =  0 Multiplicity = 1

                         Standard orientation:
 ---------------------------------------------------------------------
 Center     Atomic      Atomic             Coordinates (Angstroms)
 Number     Number       Type             X           Y           Z
 ---------------------------------------------------------------------
      1          7           0        1.775799    0.121613    0.072241
      2          6           0        0.641260   -0.796256   -0.102406
      3          6           0       -0.693722   -0.036864   -0.004144
      4          8           0       -1.759335   -0.598015    0.082560
      5          8           0       -0.552638    1.295513   -0.053489
      6          1           0        2.555897   -0.119579   -0.529385
      7          1           0        2.115426    0.111443    1.029325
      8          1           0        0.609021   -1.627174    0.610625
      9          1           0        0.677196   -1.238682   -1.103203
     10          1           0        0.422425    1.441433   -0.106324
 ---------------------------------------------------------------------

 SCF Done:  E(RB3LYP) =  -284.437035476     A.U. after    1 cycles

 The electronic state is 1-A.
 Alpha  occ. eigenvalues --  -19.17550 -19.11952 -14.36128 -10.30588 -10.24045
 Alpha  occ. eigenvalues --   -1.08593  -1.00419  -0.91692  -0.71782  -0.58675
 Alpha  occ. eigenvalues --   -0.54104  -0.51194  -0.48788  -0.44389  -0.42140
 Alpha  occ. eigenvalues --   -0.38671  -0.36662  -0.30085  -0.29841  -0.25250
 Alpha virt. eigenvalues --    0.01930   0.05127   0.10637   0.12475   0.14247
 Alpha virt. eigenvalues --    0.18600   0.19067   0.24341   0.32426   0.38059
 Alpha virt. eigenvalues --    0.51664   0.54061   0.56344   0.57905   0.62145

 Mulliken charges:
               1
     1  N   -0.644825
     2  C   -0.163573
     3  C    0.585361
     4  O   -0.458832
     5  O   -0.484465
     6  H    0.266007
     7  H    0.268811
     8  H    0.140433
     9  H    0.151646
    10  H    0.339436
 Sum of Mulliken charges =  -0.00000

 Dipole moment (field-independent basis, Debye):
    X=              5.5255    Y=             -0.8070    Z=              0.0235  Tot=              5.5842
 Quadrupole moment (field-independent basis, Debye-Ang):
   XX=            -30.2417   YY=            -30.4744   ZZ=            -26.7265
   XY=             -1.5733   XZ=              0.7606   YZ=              0.5210

  Exact polarizability:  40.411   3.151  33.924  -0.642   0.054  25.101
 Approx polarizability:  56.148   8.974  50.764  -1.742  -0.449  35.394

                      1                      2                      3
                      A                      A                      A
 Frequencies --     90.8279               275.4436               323.4114
 Red. masses --      2.0424                 1.2301                 4.0867
 Frc consts  --      0.0099                 0.0550                 0.2518
 IR Inten    --      3.4273                19.0799                18.0321

                      4                      5                      6
                      A                      A                      A
 Frequencies --    503.3792               548.0602               655.1161
 Red. masses --      5.3780                 2.9069                 4.7963
 Frc consts  --      0.8029                 0.5144                 1.2128
 IR Inten    --      1.8430                 6.2989                 6.7542

                      7                      8                      9
                      A                      A                      A
 Frequencies --    827.4483               866.8657               901.4791
 Red. masses --      2.2507                 1.3052                 1.4708
 Frc consts  --      0.9079                 0.5779                 0.7042
 IR Inten    --     30.5045               104.0709                69.0512

                     10                     11                     12
                      A                      A                      A
 Frequencies --    952.5764              1073.0687              1163.1573
 Red. masses --      1.8110                 3.0006                 1.2595
 Frc consts  --      0.9682                 2.0357                 1.0040
 IR Inten    --     55.8063                 9.3652                 3.1941

                     13                     14                     15
                      A                      A                      A
 Frequencies --   1237.3823              1322.3003              1371.5364
 Red. masses --      3.0349                 1.2451                 1.3303
 Frc consts  --      2.7378                 1.2827                 1.4744
 IR Inten    --     16.5719                 8.3174                 3.8974

                     16                     17                     18
                      A                      A                      A
 Frequencies --   1441.2317              1482.7207              1669.1075
 Red. masses --      1.5838                 1.0826                 1.0919
 Frc consts  --      1.9383                 1.4022                 1.7923
 IR Inten    --    411.7249                 7.8287                32.9898

                     19                     20                     21
                      A                      A                      A
 Frequencies --   1884.1252              3062.5456              3110.5485
 Red. masses --      9.6453                 1.0607                 1.1053
 Frc consts  --     20.1736                 5.8615                 6.3007
 IR Inten    --    303.9436                16.2366                 9.4503

                     22                     23                     24
                      A                      A                      A
 Frequencies --   3453.4552              3528.7120              3614.9560
 Red. masses --      1.0644                 1.0504                 1.0946
 Frc consts  --      7.4797                 7.7060                 8.4281
 IR Inten    --    264.0169                 0.6592                 8.1066

 - Thermochemistry -
 -------------------
 Temperature   298.150 Kelvin.  Pressure   1.00000 Atm.
 Atom     1 has atomic number  7 and mass  14.00307

 Molecular mass:    75.03203 amu.
 Principal axes and moments of inertia in atomic units:
                           1         2         3
     Eigenvalues --   178.53842 443.45589 598.33281
           X            0.99982  -0.01891   0.00323
           Y            0.01888   0.99978   0.00902
           Z           -0.00340  -0.00895   0.99995
 This molecule is an asymmetric top.
 Rotational symmetry number  1.
 Rotational temperatures (Kelvin)      0.48513     0.19532     0.14476
 Rotational constants (GHZ):          10.10842     4.06972     3.01628
 Zero-point vibrational energy     211496.5 (Joules/Mol)
                                   50.54888 (Kcal/Mol)
 Warning -- explicit consideration of   5 degrees of freedom as
           vibrations may cause significant error
 Vibrational temperatures:    130.68   396.30   465.32   724.25   788.54
          (Kelvin)            942.56  1190.51  1247.22  1297.03  1370.54
                             1543.90  1673.52  1780.31  1902.49  1973.33
                             2073.61  2133.30  2401.47  2710.83  4406.31
                             4475.38  4968.75  5077.02  5201.11

 Zero-point correction=                           0.080555 (Hartree/Particle)
 Thermal correction to Energy=                    0.085853
 Thermal correction to Enthalpy=                  0.086797
 Thermal correction to Gibbs Free Energy=         0.052057
 Sum of electronic and zero-point Energies=           -284.356481
 Sum of electronic and thermal Energies=              -284.351183
 Sum of electronic and thermal Enthalpies=            -284.350239
 Sum of electronic and thermal Free Energies=         -284.384978

                     E (Thermal)             CV                S
                      KCal/Mol        Cal/Mol-Kelvin    Cal/Mol-Kelvin
 Total                   53.873             17.853             73.115
 Electronic               0.000              0.000              0.000
 Translational            0.889              2.981             38.862
 Rotational               0.889              2.981             25.363
 Vibrational             52.096             11.892              8.890
 Vibration     1          0.602              1.956              3.642
 Vibration     2          0.677              1.719              1.562
 Vibration     3          0.708              1.629              1.293
 Vibration     4          0.859              1.243              0.650
 Vibration     5          0.903              1.144              0.548

 Optimization completed.
    -- Stationary point found.
 Normal termination of Gaussian 09 at Sat Aug 21 01:37:33 2021.
