 Gaussian 09, Revision E.01,
 Gaussian 09:  ES64L-G09RevE.01 30-Nov-2015

 ----------------------------
 #P OPT Freq B3LYP/6-31G(d,p)
 ----------------------------

 --------
 Frag_686
 --------
 Symbolic Z-matrix:
 Charge =  0 Multiplicity = 1

 SCF Done:  E(RB3LYP) =  -193.121571296     A.U. after   13 cycles
 SCF Done:  E(RB3LYP) =  -193.121613832     A.U. after    8 cycles
 SCF Done:  E(RB3LYP) =  -193.121616002     A.U. after    8 cycles
 Optimization completed.
    -- Stationary point found.
 Normal termination of Gaussian 09 at Thu Sep  8 15:21:32 2022.

 ----------------------------------------------------------------------
 #P Geom=AllCheck Guess=TCheck SCRF=Check GenChk RB3LYP/6-31G(d,p) Freq
 ----------------------------------------------------------------------

 Structure from the checkpoint file:  "B3LYP6-31Gdp.Frag_686.chk"
 --------
 Frag_686
 --------
 Charge =  0 Multiplicity = 1

                         Standard orientation:
 ---------------------------------------------------------------------
 Center     Atomic      Atomic             Coordinates (Angstroms)
 Number     Number       Type             X           Y           Z
 ---------------------------------------------------------------------
      1          6           0       -1.510588   -0.529581   -0.000003
      2          6           0       -0.781508    0.583973    0.000005
      3          6           0        0.718644    0.630173   -0.000003
      4          8           0        1.251771   -0.682735    0.000005
      5          1           0       -2.595561   -0.493599    0.000003
      6          1           0       -1.039449   -1.506348   -0.000008
      7          1           0       -1.264017    1.561020    0.000003
      8          1           0        1.055849    1.202895    0.882950
      9          1           0        1.055838    1.202876   -0.882972
     10          1           0        2.213883   -0.612361   -0.000012
 ---------------------------------------------------------------------

 SCF Done:  E(RB3LYP) =  -193.121616002     A.U. after    1 cycles

 The electronic state is 1-A.
 Alpha  occ. eigenvalues --  -19.14533 -10.23677 -10.18346 -10.16898  -1.01894
 Alpha  occ. eigenvalues --   -0.77251  -0.67275  -0.54755  -0.51545  -0.44852
 Alpha  occ. eigenvalues --   -0.44065  -0.41207  -0.34889  -0.33311  -0.27675
 Alpha  occ. eigenvalues --   -0.24540
 Alpha virt. eigenvalues --    0.02980   0.07101   0.12767   0.14685   0.17180
 Alpha virt. eigenvalues --    0.17466   0.19994   0.20943   0.29621   0.36162
 Alpha virt. eigenvalues --    0.51893   0.54826   0.55312   0.58881   0.63267

 Mulliken charges:
               1
     1  C   -0.222874
     2  C   -0.065622
     3  C    0.042447
     4  O   -0.536120
     5  H    0.090659
     6  H    0.119029
     7  H    0.082647
     8  H    0.090414
     9  H    0.090415
    10  H    0.309004
 Sum of Mulliken charges =  -0.00000

 Dipole moment (field-independent basis, Debye):
    X=              1.2534    Y=              1.2618    Z=             -0.0000  Tot=              1.7786
 Quadrupole moment (field-independent basis, Debye-Ang):
   XX=            -19.2045   YY=            -24.3000   ZZ=            -26.5293
   XY=              0.4057   XZ=             -0.0001   YZ=              0.0000

  Exact polarizability:  43.919   5.786  40.716  -0.000   0.000  20.954
 Approx polarizability:  55.839  11.830  61.878   0.000   0.000  28.429

                      1                      2                      3
                      A                      A                      A
 Frequencies --    142.4821               256.4555               282.3269
 Red. masses --      1.5621                 1.1767                 3.5419
 Frc consts  --      0.0187                 0.0456                 0.1663
 IR Inten    --     60.5332                74.6271                 4.0332

                      4                      5                      6
                      A                      A                      A
 Frequencies --    564.0696               601.5479               893.6025
 Red. masses --      1.2232                 2.8439                 2.7015
 Frc consts  --      0.2293                 0.6063                 1.2710
 IR Inten    --      6.3426                10.5239                 2.7922

                      7                      8                      9
                      A                      A                      A
 Frequencies --    946.6810              1015.4091              1029.6837
 Red. masses --      1.3321                 1.7321                 1.0708
 Frc consts  --      0.7034                 1.0522                 0.6689
 IR Inten    --     35.4931                49.7033                 7.5505

                     10                     11                     12
                      A                      A                      A
 Frequencies --   1048.5271              1151.0789              1241.1720
 Red. masses --      1.6913                 2.2775                 1.2191
 Frc consts  --      1.0955                 1.7780                 1.1065
 IR Inten    --     13.6644                17.3823                84.1028

                     13                     14                     15
                      A                      A                      A
 Frequencies --   1258.7240              1327.3156              1442.8706
 Red. masses --      1.0701                 1.2843                 1.1956
 Frc consts  --      0.9989                 1.3331                 1.4665
 IR Inten    --      0.0378                 2.0235                 2.8654

                     16                     17                     18
                      A                      A                      A
 Frequencies --   1471.8864              1522.8141              1736.3994
 Red. masses --      1.4567                 1.0904                 4.7406
 Frc consts  --      1.8594                 1.4898                 8.4213
 IR Inten    --     12.7528                 7.4974                 6.9778

                     19                     20                     21
                      A                      A                      A
 Frequencies --   2948.6572              2962.7334              3152.0001
 Red. masses --      1.0553                 1.1045                 1.0788
 Frc consts  --      5.4059                 5.7122                 6.3150
 IR Inten    --     67.6415                72.6662                14.9003

                     22                     23                     24
                      A                      A                      A
 Frequencies --   3171.6644              3259.8007              3836.8720
 Red. masses --      1.0715                 1.1158                 1.0667
 Frc consts  --      6.3506                 6.9859                 9.2522
 IR Inten    --      9.4490                 8.7796                19.7570

 - Thermochemistry -
 -------------------
 Temperature   298.150 Kelvin.  Pressure   1.00000 Atm.
 Atom     1 has atomic number  6 and mass  12.00000

 Molecular mass:    58.04186 amu.
 Principal axes and moments of inertia in atomic units:
                           1         2         3
     Eigenvalues --   105.08634 300.99862 394.86152
           X            0.99932   0.03693  -0.00000
           Y           -0.03693   0.99932   0.00000
           Z            0.00000  -0.00000   1.00000
 This molecule is an asymmetric top.
 Rotational symmetry number  1.
 Rotational temperatures (Kelvin)      0.82422     0.28775     0.21935
 Rotational constants (GHZ):          17.17389     5.99585     4.57057
 Zero-point vibrational energy     222892.8 (Joules/Mol)
                                   53.27267 (Kcal/Mol)
 Warning -- explicit consideration of   5 degrees of freedom as
           vibrations may cause significant error
 Vibrational temperatures:    205.00   368.98   406.20   811.57   865.49
          (Kelvin)           1285.69  1362.06  1460.95  1481.48  1508.59
                             1656.14  1785.77  1811.02  1909.71  2075.97
                             2117.71  2190.99  2498.29  4242.45  4262.71
                             4535.02  4563.31  4690.12  5520.40

 Zero-point correction=                           0.084895 (Hartree/Particle)
 Thermal correction to Energy=                    0.089919
 Thermal correction to Enthalpy=                  0.090863
 Thermal correction to Gibbs Free Energy=         0.057715
 Sum of electronic and zero-point Energies=           -193.036721
 Sum of electronic and thermal Energies=              -193.031697
 Sum of electronic and thermal Enthalpies=            -193.030753
 Sum of electronic and thermal Free Energies=         -193.063901

                     E (Thermal)             CV                S
                      KCal/Mol        Cal/Mol-Kelvin    Cal/Mol-Kelvin
 Total                   56.425             16.449             69.766
 Electronic               0.000              0.000              0.000
 Translational            0.889              2.981             38.096
 Rotational               0.889              2.981             24.039
 Vibrational             54.648             10.487              7.631
 Vibration     1          0.616              1.911              2.770
 Vibration     2          0.666              1.752              1.686
 Vibration     3          0.681              1.706              1.520
 Vibration     4          0.920              1.109              0.516
 Vibration     5          0.960              1.029              0.447

 Optimization completed.
    -- Stationary point found.
 Normal termination of Gaussian 09 at Thu Sep  8 15:21:39 2022.
