 Gaussian 09, Revision E.01,
 Gaussian 09:  ES64L-G09RevE.01 30-Nov-2015

 ----------------------------
 #P OPT Freq B3LYP/6-31G(d,p)
 ----------------------------

 --------
 Frag_722
 --------
 Symbolic Z-matrix:
 Charge =  0 Multiplicity = 1

 SCF Done:  E(RB3LYP) =  -225.145119908     A.U. after   14 cycles
 SCF Done:  E(RB3LYP) =  -225.145214416     A.U. after   10 cycles
 SCF Done:  E(RB3LYP) =  -225.145212785     A.U. after   10 cycles
 SCF Done:  E(RB3LYP) =  -225.145215512     A.U. after   10 cycles
 SCF Done:  E(RB3LYP) =  -225.145220548     A.U. after   10 cycles
 Optimization completed.
    -- Stationary point found.
 Normal termination of Gaussian 09 at Thu Sep  8 14:57:36 2022.

 ----------------------------------------------------------------------
 #P Geom=AllCheck Guess=TCheck SCRF=Check GenChk RB3LYP/6-31G(d,p) Freq
 ----------------------------------------------------------------------

 Structure from the checkpoint file:  "B3LYP6-31Gdp.Frag_722.chk"
 --------
 Frag_722
 --------
 Charge =  0 Multiplicity = 1

                         Standard orientation:
 ---------------------------------------------------------------------
 Center     Atomic      Atomic             Coordinates (Angstroms)
 Number     Number       Type             X           Y           Z
 ---------------------------------------------------------------------
      1          6           0       -1.310990   -0.181290    0.000002
      2          7           0        0.174362    0.032301   -0.000038
      3          7           0        1.004739   -0.933441    0.000019
      4          8           0        0.514508    1.226333    0.000007
      5          1           0       -1.701250    0.313477   -0.889075
      6          1           0       -1.557828   -1.242841   -0.000848
      7          1           0       -1.701037    0.311979    0.890016
      8          1           0        0.456281   -1.797553   -0.000025
 ---------------------------------------------------------------------

 SCF Done:  E(RB3LYP) =  -225.145220548     A.U. after    1 cycles

 The electronic state is 1-A.
 Alpha  occ. eigenvalues --  -19.15044 -14.53204 -14.36364 -10.25393  -1.16254
 Alpha  occ. eigenvalues --   -0.95956  -0.79506  -0.62323  -0.56236  -0.52005
 Alpha  occ. eigenvalues --   -0.48783  -0.45188  -0.41855  -0.30899  -0.27102
 Alpha  occ. eigenvalues --   -0.26471
 Alpha virt. eigenvalues --   -0.04423   0.05650   0.10718   0.11926   0.14267
 Alpha virt. eigenvalues --    0.16428   0.29282   0.35090   0.47080   0.49770
 Alpha virt. eigenvalues --    0.52393   0.66387   0.66635   0.69835   0.69987

 Mulliken charges:
               1
     1  C   -0.193715
     2  N    0.216873
     3  N   -0.303801
     4  O   -0.417797
     5  H    0.170254
     6  H    0.122102
     7  H    0.170258
     8  H    0.235825
 Sum of Mulliken charges =   0.00000

 Dipole moment (field-independent basis, Debye):
    X=             -3.9208    Y=             -2.4346    Z=              0.0000  Tot=              4.6152
 Quadrupole moment (field-independent basis, Debye-Ang):
   XX=            -24.9376   YY=            -23.9110   ZZ=            -22.9809
   XY=              0.2016   XZ=             -0.0004   YZ=             -0.0000

  Exact polarizability:  30.853  -2.655  39.895   0.000   0.000  18.128
 Approx polarizability:  42.336  -9.382  82.327   0.000   0.000  24.782

                      1                      2                      3
                      A                      A                      A
 Frequencies --     99.9503               495.8207               568.4596
 Red. masses --      1.0872                 3.0086                 2.9905
 Frc consts  --      0.0064                 0.4358                 0.5694
 IR Inten    --      0.4484                 4.0297                20.4812

                      4                      5                      6
                      A                      A                      A
 Frequencies --    631.8343               800.8664               893.8642
 Red. masses --      5.1219                 1.2044                 6.9470
 Frc consts  --      1.2047                 0.4551                 3.2703
 IR Inten    --      9.3249                39.3369                 5.2774

                      7                      8                      9
                      A                      A                      A
 Frequencies --   1105.8327              1133.8372              1294.4333
 Red. masses --      1.3642                 1.4671                 2.1243
 Frc consts  --      0.9829                 1.1113                 2.0972
 IR Inten    --      3.9099                 1.4047                98.8230

                     10                     11                     12
                      A                      A                      A
 Frequencies --   1420.6435              1479.5449              1479.6393
 Red. masses --      1.2715                 1.0792                 2.0609
 Frc consts  --      1.5119                 1.3920                 2.6584
 IR Inten    --     29.3389                17.7842               137.4012

                     13                     14                     15
                      A                      A                      A
 Frequencies --   1492.8316              1672.7358              3084.2269
 Red. masses --      1.1576                 3.9885                 1.0298
 Frc consts  --      1.5199                 6.5753                 5.7715
 IR Inten    --      9.1964               120.8637                 4.7903

                     16                     17                     18
                      A                      A                      A
 Frequencies --   3187.3515              3189.8543              3452.9768
 Red. masses --      1.1091                 1.1064                 1.0741
 Frc consts  --      6.6384                 6.6331                 7.5453
 IR Inten    --      5.5454                 1.3380                 0.9585

 - Thermochemistry -
 -------------------
 Temperature   298.150 Kelvin.  Pressure   1.00000 Atm.
 Atom     1 has atomic number  6 and mass  12.00000

 Molecular mass:    60.03236 amu.
 Principal axes and moments of inertia in atomic units:
                           1         2         3
     Eigenvalues --   154.14812 175.62660 318.38326
           X            0.99923   0.03916  -0.00000
           Y           -0.03916   0.99923   0.00000
           Z            0.00000  -0.00000   1.00000
 This molecule is an asymmetric top.
 Rotational symmetry number  1.
 Rotational temperatures (Kelvin)      0.56189     0.49317     0.27204
 Rotational constants (GHZ):          11.70784    10.27601     5.66846
 Zero-point vibrational energy     164395.0 (Joules/Mol)
                                   39.29136 (Kcal/Mol)
 Warning -- explicit consideration of   3 degrees of freedom as
           vibrations may cause significant error
 Vibrational temperatures:    143.81   713.37   817.89   909.07  1152.27
          (Kelvin)           1286.07  1591.04  1631.34  1862.40  2043.99
                             2128.73  2128.87  2147.85  2406.69  4437.51
                             4585.88  4589.48  4968.06

 Zero-point correction=                           0.062615 (Hartree/Particle)
 Thermal correction to Energy=                    0.066947
 Thermal correction to Enthalpy=                  0.067891
 Thermal correction to Gibbs Free Energy=         0.035844
 Sum of electronic and zero-point Energies=           -225.082606
 Sum of electronic and thermal Energies=              -225.078274
 Sum of electronic and thermal Enthalpies=            -225.077330
 Sum of electronic and thermal Free Energies=         -225.109377

                     E (Thermal)             CV                S
                      KCal/Mol        Cal/Mol-Kelvin    Cal/Mol-Kelvin
 Total                   42.010             13.448             67.449
 Electronic               0.000              0.000              0.000
 Translational            0.889              2.981             38.197
 Rotational               0.889              2.981             23.670
 Vibrational             40.232              7.486              5.582
 Vibration     1          0.604              1.949              3.455
 Vibration     2          0.851              1.259              0.669
 Vibration     3          0.924              1.099              0.507

 Optimization completed.
    -- Stationary point found.
 Normal termination of Gaussian 09 at Thu Sep  8 14:57:42 2022.
