 Gaussian 09, Revision E.01,
 Gaussian 09:  ES64L-G09RevE.01 30-Nov-2015

 ----------------------------
 #P OPT Freq B3LYP/6-31G(d,p)
 ----------------------------

 ---------
 Frag_1154
 ---------
 Symbolic Z-matrix:
 Charge =  0 Multiplicity = 1

 SCF Done:  E(RB3LYP) =  -246.069266814     A.U. after   14 cycles
 SCF Done:  E(RB3LYP) =  -246.069423275     A.U. after   12 cycles
 SCF Done:  E(RB3LYP) =  -246.069422703     A.U. after    9 cycles
 SCF Done:  E(RB3LYP) =  -246.069411904     A.U. after   11 cycles
 SCF Done:  E(RB3LYP) =  -246.069431280     A.U. after    9 cycles
 Optimization completed.
    -- Stationary point found.
 Normal termination of Gaussian 09 at Thu Sep  8 14:47:48 2022.

 ----------------------------------------------------------------------
 #P Geom=AllCheck Guess=TCheck SCRF=Check GenChk RB3LYP/6-31G(d,p) Freq
 ----------------------------------------------------------------------

 Structure from the checkpoint file:  "B3LYP6-31Gdp.Frag_1154.chk"
 ---------
 Frag_1154
 ---------
 Charge =  0 Multiplicity = 1

                         Standard orientation:
 ---------------------------------------------------------------------
 Center     Atomic      Atomic             Coordinates (Angstroms)
 Number     Number       Type             X           Y           Z
 ---------------------------------------------------------------------
      1          6           0       -1.280615   -1.035769   -0.000021
      2          6           0       -0.429723    0.206486    0.000104
      3          8           0       -0.848556    1.342576   -0.000019
      4          6           0        1.035487   -0.032527   -0.000104
      5          7           0        2.182279   -0.217982    0.000042
      6          1           0       -2.333716   -0.752570   -0.000524
      7          1           0       -1.051943   -1.645894   -0.880974
      8          1           0       -1.052735   -1.645408    0.881485
 ---------------------------------------------------------------------

 SCF Done:  E(RB3LYP) =  -246.069431280     A.U. after    1 cycles

 The electronic state is 1-A.
 Alpha  occ. eigenvalues --  -19.19061 -14.37077 -10.34177 -10.25189 -10.22657
 Alpha  occ. eigenvalues --   -1.09123  -0.93008  -0.79517  -0.67563  -0.52319
 Alpha  occ. eigenvalues --   -0.48324  -0.47893  -0.43781  -0.40809  -0.39225
 Alpha  occ. eigenvalues --   -0.36074  -0.35859  -0.30161
 Alpha virt. eigenvalues --   -0.09100   0.00979   0.06526   0.08729   0.13374
 Alpha virt. eigenvalues --    0.13802   0.16254   0.23891   0.31352   0.35860
 Alpha virt. eigenvalues --    0.48846   0.50020   0.54949   0.55402   0.58440

 Mulliken charges:
               1
     1  C   -0.385929
     2  C    0.421771
     3  O   -0.376363
     4  C    0.308515
     5  N   -0.438858
     6  H    0.156916
     7  H    0.156968
     8  H    0.156979
 Sum of Mulliken charges =  -0.00000

 Dipole moment (field-independent basis, Debye):
    X=             -2.5402    Y=             -2.2354    Z=              0.0002  Tot=              3.3837
 Quadrupole moment (field-independent basis, Debye-Ang):
   XX=            -34.0972   YY=            -29.6088   ZZ=            -26.7992
   XY=              3.5466   XZ=             -0.0003   YZ=              0.0000

  Exact polarizability:  48.219  -3.242  34.931   0.001  -0.001  22.909
 Approx polarizability:  79.272 -14.755  57.076   0.005  -0.003  32.292

                      1                      2                      3
                      A                      A                      A
 Frequencies --    131.5830               176.8553               258.6735
 Red. masses --      1.0492                 5.9623                 8.2293
 Frc consts  --      0.0107                 0.1099                 0.3244
 IR Inten    --      0.5885                 8.1125                 9.5306

                      4                      5                      6
                      A                      A                      A
 Frequencies --    431.8135               598.2769               604.9156
 Red. masses --      3.7899                 2.7883                 8.3678
 Frc consts  --      0.4164                 0.5880                 1.8041
 IR Inten    --      5.7986                 0.5296                 0.5471

                      7                      8                      9
                      A                      A                      A
 Frequencies --    720.2960               987.7452              1048.3693
 Red. masses --      4.5484                 2.0148                 1.7851
 Frc consts  --      1.3904                 1.1581                 1.1559
 IR Inten    --     23.6032                22.3057                 5.7288

                     10                     11                     12
                      A                      A                      A
 Frequencies --   1202.0662              1403.1031              1470.4946
 Red. masses --      3.1152                 1.3029                 1.0518
 Frc consts  --      2.6521                 1.5113                 1.3400
 IR Inten    --    126.3122                35.3160                15.4648

                     13                     14                     15
                      A                      A                      A
 Frequencies --   1477.7513              1809.4522              2343.0951
 Red. masses --      1.0456                11.3899                12.7297
 Frc consts  --      1.3453                21.9717                41.1764
 IR Inten    --     10.9357               148.8122                23.3102

                     16                     17                     18
                      A                      A                      A
 Frequencies --   3050.7546              3116.0292              3173.4251
 Red. masses --      1.0366                 1.0999                 1.1036
 Frc consts  --      5.6845                 6.2920                 6.5483
 IR Inten    --      0.4096                 1.6592                 2.6160

 - Thermochemistry -
 -------------------
 Temperature   298.150 Kelvin.  Pressure   1.00000 Atm.
 Atom     1 has atomic number  6 and mass  12.00000

 Molecular mass:    69.02146 amu.
 Principal axes and moments of inertia in atomic units:
                           1         2         3
     Eigenvalues --   178.01040 437.02618 603.85711
           X            0.99718   0.07509  -0.00000
           Y           -0.07509   0.99718  -0.00000
           Z            0.00000   0.00000   1.00000
 This molecule is an asymmetric top.
 Rotational symmetry number  1.
 Rotational temperatures (Kelvin)      0.48657     0.19819     0.14343
 Rotational constants (GHZ):          10.13840     4.12960     2.98869
 Zero-point vibrational energy     143580.0 (Joules/Mol)
                                   34.31644 (Kcal/Mol)
 Warning -- explicit consideration of   6 degrees of freedom as
           vibrations may cause significant error
 Vibrational temperatures:    189.32   254.46   372.17   621.28   860.79
          (Kelvin)            870.34  1036.34  1421.14  1508.37  1729.50
                             2018.75  2115.71  2126.15  2603.39  3371.19
                             4389.35  4483.27  4565.85

 Zero-point correction=                           0.054687 (Hartree/Particle)
 Thermal correction to Energy=                    0.060076
 Thermal correction to Enthalpy=                  0.061020
 Thermal correction to Gibbs Free Energy=         0.026233
 Sum of electronic and zero-point Energies=           -246.014745
 Sum of electronic and thermal Energies=              -246.009356
 Sum of electronic and thermal Enthalpies=            -246.008411
 Sum of electronic and thermal Free Energies=         -246.043199

                     E (Thermal)             CV                S
                      KCal/Mol        Cal/Mol-Kelvin    Cal/Mol-Kelvin
 Total                   37.698             16.969             73.216
 Electronic               0.000              0.000              0.000
 Translational            0.889              2.981             38.613
 Rotational               0.889              2.981             25.355
 Vibrational             35.921             11.008              9.248
 Vibration     1          0.612              1.922              2.923
 Vibration     2          0.628              1.871              2.361
 Vibration     3          0.667              1.748              1.671
 Vibration     4          0.793              1.401              0.853
 Vibration     5          0.956              1.035              0.453
 Vibration     6          0.963              1.021              0.441

 Optimization completed.
    -- Stationary point found.
 Normal termination of Gaussian 09 at Thu Sep  8 14:47:54 2022.
