 Gaussian 09, Revision E.01,
 Gaussian 09:  ES64L-G09RevE.01 30-Nov-2015

 ----------------------------
 #P OPT Freq B3LYP/6-31G(d,p)
 ----------------------------

 --------
 Frag_573
 --------
 Symbolic Z-matrix:
 Charge =  0 Multiplicity = 1

 SCF Done:  E(RB3LYP) =  -243.401492014     A.U. after   15 cycles
 SCF Done:  E(RB3LYP) =  -243.401539286     A.U. after    9 cycles
 SCF Done:  E(RB3LYP) =  -243.401545095     A.U. after   11 cycles
 SCF Done:  E(RB3LYP) =  -243.401547977     A.U. after    9 cycles
 SCF Done:  E(RB3LYP) =  -243.401547980     A.U. after    8 cycles
 Optimization completed.
    -- Stationary point found.
 Normal termination of Gaussian 09 at Thu Sep  8 15:23:18 2022.

 ----------------------------------------------------------------------
 #P Geom=AllCheck Guess=TCheck SCRF=Check GenChk RB3LYP/6-31G(d,p) Freq
 ----------------------------------------------------------------------

 Structure from the checkpoint file:  "B3LYP6-31Gdp.Frag_573.chk"
 --------
 Frag_573
 --------
 Charge =  0 Multiplicity = 1

                         Standard orientation:
 ---------------------------------------------------------------------
 Center     Atomic      Atomic             Coordinates (Angstroms)
 Number     Number       Type             X           Y           Z
 ---------------------------------------------------------------------
      1          6           0       -0.621207    1.347531    0.000017
      2          6           0       -0.470224   -0.159884    0.000315
      3          7           0       -1.406106   -1.021554   -0.000116
      4          7           0        0.859466   -0.765264    0.000075
      5          7           0        1.866793   -0.036979   -0.000070
      6          1           0       -0.161360    1.802193   -0.884819
      7          1           0       -0.161818    1.802463    0.884949
      8          1           0       -1.680378    1.609080   -0.000292
      9          1           0       -2.318375   -0.555872   -0.000485
     10          1           0        1.629445    0.982823   -0.000565
 ---------------------------------------------------------------------

 SCF Done:  E(RB3LYP) =  -243.401547980     A.U. after    1 cycles

 The electronic state is 1-A.
 Alpha  occ. eigenvalues --  -14.39809 -14.39384 -14.34685 -10.27966 -10.22285
 Alpha  occ. eigenvalues --   -1.04463  -0.93053  -0.76184  -0.71210  -0.59788
 Alpha  occ. eigenvalues --   -0.50509  -0.49752  -0.46769  -0.43501  -0.40485
 Alpha  occ. eigenvalues --   -0.36643  -0.32463  -0.29753  -0.24095
 Alpha virt. eigenvalues --   -0.08354   0.02565   0.05694   0.09808   0.12128
 Alpha virt. eigenvalues --    0.14618   0.16995   0.20512   0.26374   0.37124
 Alpha virt. eigenvalues --    0.39624   0.49476   0.50705   0.55508   0.60352

 Mulliken charges:
               1
     1  C   -0.402233
     2  C    0.361937
     3  N   -0.442106
     4  N   -0.171468
     5  N   -0.218165
     6  H    0.147227
     7  H    0.147231
     8  H    0.131502
     9  H    0.234646
    10  H    0.211430
 Sum of Mulliken charges =   0.00000

 Dipole moment (field-independent basis, Debye):
    X=             -2.2061    Y=              4.3318    Z=             -0.0006  Tot=              4.8612
 Quadrupole moment (field-independent basis, Debye-Ang):
   XX=            -31.1123   YY=            -32.7774   ZZ=            -29.2437
   XY=              0.5498   XZ=              0.0003   YZ=             -0.0004

  Exact polarizability:  56.479   7.687  43.250   0.003  -0.000  23.656
 Approx polarizability:  93.383  22.957  68.788   0.008   0.002  34.529

                      1                      2                      3
                      A                      A                      A
 Frequencies --     76.0764               172.8845               360.5416
 Red. masses --      3.0465                 1.0647                 3.5558
 Frc consts  --      0.0104                 0.0187                 0.2723
 IR Inten    --     13.1517                 0.4040                 0.5518

                      4                      5                      6
                      A                      A                      A
 Frequencies --    465.4978               502.7713               611.3282
 Red. masses --      2.5847                 3.2287                 3.7721
 Frc consts  --      0.3300                 0.4809                 0.8306
 IR Inten    --     20.7121                 6.0908                 2.1286

                      7                      8                      9
                      A                      A                      A
 Frequencies --    757.9259               824.8355               985.9980
 Red. masses --      4.8221                 1.1637                 2.3066
 Frc consts  --      1.6321                 0.4665                 1.3212
 IR Inten    --      3.9546                 0.3253                 5.8378

                     10                     11                     12
                      A                      A                      A
 Frequencies --   1018.9355              1066.0209              1080.4734
 Red. masses --      1.3235                 1.5263                 1.7022
 Frc consts  --      0.8096                 1.0219                 1.1708
 IR Inten    --     91.4869                50.4425                 0.9619

                     13                     14                     15
                      A                      A                      A
 Frequencies --   1341.2715              1408.3740              1480.1579
 Red. masses --      1.6917                 1.2626                 1.2243
 Frc consts  --      1.7931                 1.4756                 1.5803
 IR Inten    --     65.2352                18.8984                78.7953

                     16                     17                     18
                      A                      A                      A
 Frequencies --   1488.5580              1498.4211              1646.0920
 Red. masses --      1.0442                 1.0790                11.9120
 Frc consts  --      1.3632                 1.4273                19.0170
 IR Inten    --      8.1677                 1.0649                24.9888

                     19                     20                     21
                      A                      A                      A
 Frequencies --   1735.6135              3045.2618              3102.5316
 Red. masses --      9.3940                 1.0390                 1.0683
 Frc consts  --     16.6727                 5.6769                 6.0586
 IR Inten    --     51.7909                 0.8429                63.2992

                     22                     23                     24
                      A                      A                      A
 Frequencies --   3106.3022              3150.6141              3458.8034
 Red. masses --      1.1007                 1.1003                 1.0754
 Frc consts  --      6.2574                 6.4348                 7.5799
 IR Inten    --      6.7920                 5.6284                 0.8648

 - Thermochemistry -
 -------------------
 Temperature   298.150 Kelvin.  Pressure   1.00000 Atm.
 Atom     1 has atomic number  6 and mass  12.00000

 Molecular mass:    71.04835 amu.
 Principal axes and moments of inertia in atomic units:
                           1         2         3
     Eigenvalues --   201.76858 380.63793 571.13411
           X            0.99993  -0.01210   0.00000
           Y            0.01210   0.99993  -0.00001
           Z           -0.00000   0.00001   1.00000
 This molecule is an asymmetric top.
 Rotational symmetry number  1.
 Rotational temperatures (Kelvin)      0.42927     0.22755     0.15165
 Rotational constants (GHZ):           8.94461     4.74136     3.15993
 Zero-point vibrational energy     205669.7 (Joules/Mol)
                                   49.15624 (Kcal/Mol)
 Warning -- explicit consideration of   6 degrees of freedom as
           vibrations may cause significant error
 Vibrational temperatures:    109.46   248.74   518.74   669.75   723.37
          (Kelvin)            879.56  1090.49  1186.75  1418.63  1466.02
                             1533.76  1554.56  1929.79  2026.33  2129.61
                             2141.70  2155.89  2368.36  2497.16  4381.45
                             4463.85  4469.27  4533.03  4976.44

 Zero-point correction=                           0.078335 (Hartree/Particle)
 Thermal correction to Energy=                    0.083859
 Thermal correction to Enthalpy=                  0.084803
 Thermal correction to Gibbs Free Energy=         0.049559
 Sum of electronic and zero-point Energies=           -243.323213
 Sum of electronic and thermal Energies=              -243.317689
 Sum of electronic and thermal Enthalpies=            -243.316745
 Sum of electronic and thermal Free Energies=         -243.351989

                     E (Thermal)             CV                S
                      KCal/Mol        Cal/Mol-Kelvin    Cal/Mol-Kelvin
 Total                   52.622             18.168             74.177
 Electronic               0.000              0.000              0.000
 Translational            0.889              2.981             38.699
 Rotational               0.889              2.981             25.287
 Vibrational             50.845             12.206             10.191
 Vibration     1          0.599              1.965              3.990
 Vibration     2          0.626              1.876              2.404
 Vibration     3          0.735              1.554              1.120
 Vibration     4          0.823              1.327              0.750
 Vibration     5          0.858              1.244              0.651
 Vibration     6          0.970              1.008              0.431

 Optimization completed.
    -- Stationary point found.
 Normal termination of Gaussian 09 at Thu Sep  8 15:23:26 2022.
