 Gaussian 09, Revision E.01,
 Gaussian 09:  ES64L-G09RevE.01 30-Nov-2015

 ----------------------------
 #P OPT Freq B3LYP/6-31G(d,p)
 ----------------------------

 ---------
 Frag_1008
 ---------
 Symbolic Z-matrix:
 Charge =  0 Multiplicity = 1

 SCF Done:  E(RB3LYP) =  -323.651411586     A.U. after   14 cycles
 SCF Done:  E(RB3LYP) =  -323.651518892     A.U. after    9 cycles
 SCF Done:  E(RB3LYP) =  -323.651523794     A.U. after    8 cycles
 SCF Done:  E(RB3LYP) =  -323.651526040     A.U. after    8 cycles
 Optimization completed.
    -- Stationary point found.
 Normal termination of Gaussian 09 at Thu Sep  8 14:49:32 2022.

 ----------------------------------------------------------------------
 #P Geom=AllCheck Guess=TCheck SCRF=Check GenChk RB3LYP/6-31G(d,p) Freq
 ----------------------------------------------------------------------

 Structure from the checkpoint file:  "B3LYP6-31Gdp.Frag_1008.chk"
 ---------
 Frag_1008
 ---------
 Charge =  0 Multiplicity = 1

                         Standard orientation:
 ---------------------------------------------------------------------
 Center     Atomic      Atomic             Coordinates (Angstroms)
 Number     Number       Type             X           Y           Z
 ---------------------------------------------------------------------
      1          6           0       -0.425287    1.279935    0.799037
      2          6           0       -0.348085    0.000004   -0.036234
      3          6           0       -0.425346   -1.279908    0.799064
      4          8           0       -1.286024    0.000013   -1.094971
      5          7           0        0.980451   -0.000047   -0.790723
      6          8           0        1.935132   -0.000009   -0.049428
      7          1           0        0.394559    1.313802    1.520566
      8          1           0       -1.373816    1.316184    1.345187
      9          1           0       -0.367294    2.155746    0.147046
     10          1           0       -0.367374   -2.155736    0.147094
     11          1           0        0.394488   -1.313789    1.520608
     12          1           0       -1.373884   -1.316110    1.345201
     13          1           0       -2.170398    0.000017   -0.706659
 ---------------------------------------------------------------------

 SCF Done:  E(RB3LYP) =  -323.651526040     A.U. after    1 cycles

 The electronic state is 1-A.
 Alpha  occ. eigenvalues --  -19.21643 -19.15830 -14.44914 -10.27650 -10.19422
 Alpha  occ. eigenvalues --  -10.19421  -1.16289  -1.04005  -0.80607  -0.71162
 Alpha  occ. eigenvalues --   -0.70583  -0.57637  -0.51411  -0.50094  -0.47603
 Alpha  occ. eigenvalues --   -0.43152  -0.42752  -0.42638  -0.40370  -0.39657
 Alpha  occ. eigenvalues --   -0.37265  -0.35633  -0.28489  -0.22366
 Alpha virt. eigenvalues --   -0.08904   0.06052   0.11242   0.12111   0.14476
 Alpha virt. eigenvalues --    0.14880   0.17616   0.18509   0.19551   0.20315
 Alpha virt. eigenvalues --    0.25327   0.25733   0.34834   0.48641   0.53875

 Mulliken charges:
               1
     1  C   -0.325983
     2  C    0.340326
     3  C   -0.325983
     4  O   -0.536480
     5  N    0.052782
     6  O   -0.242269
     7  H    0.129580
     8  H    0.104840
     9  H    0.130491
    10  H    0.130492
    11  H    0.129579
    12  H    0.104841
    13  H    0.307784
 Sum of Mulliken charges =  -0.00000

 Dipole moment (field-independent basis, Debye):
    X=             -2.5911    Y=              0.0000    Z=              2.3111  Tot=              3.4720
 Quadrupole moment (field-independent basis, Debye-Ang):
   XX=            -35.1939   YY=            -34.0929   ZZ=            -39.3710
   XY=              0.0001   XZ=             -0.5422   YZ=             -0.0002

  Exact polarizability:  51.944   0.000  41.590  -0.041   0.000  41.472
 Approx polarizability:  79.671   0.000  53.342   4.223   0.000  62.053

                      1                      2                      3
                      A                      A                      A
 Frequencies --     50.9589               194.6489               219.7627
 Red. masses --      7.4430                 1.0555                 1.0865
 Frc consts  --      0.0114                 0.0236                 0.0309
 IR Inten    --      0.0173               119.4742                 1.0583

                      4                      5                      6
                      A                      A                      A
 Frequencies --    257.6526               280.9486               316.3167
 Red. masses --      1.0455                 3.5814                 3.2000
 Frc consts  --      0.0409                 0.1666                 0.1886
 IR Inten    --      0.1711                 1.4918                 0.2208

                      7                      8                      9
                      A                      A                      A
 Frequencies --    360.3549               437.2035               457.1038
 Red. masses --      2.5940                 3.6727                 3.7042
 Frc consts  --      0.1985                 0.4136                 0.4560
 IR Inten    --      0.0853                 3.3803                18.0533

                     10                     11                     12
                      A                      A                      A
 Frequencies --    588.9075               751.1751               837.4794
 Red. masses --      3.7986                 5.2930                 4.1115
 Frc consts  --      0.7762                 1.7597                 1.6990
 IR Inten    --      0.0749                 4.8199                27.8110

                     13                     14                     15
                      A                      A                      A
 Frequencies --    934.9860               996.2316               998.0708
 Red. masses --      1.5123                 1.8115                 1.2834
 Frc consts  --      0.7789                 1.0593                 0.7532
 IR Inten    --      0.0241                 5.9215                 0.0058

                     16                     17                     18
                      A                      A                      A
 Frequencies --   1121.1921              1187.1816              1262.9226
 Red. masses --      1.4224                 3.5012                 3.5179
 Frc consts  --      1.0535                 2.9074                 3.3059
 IR Inten    --     75.8229                31.1357               133.1516

                     19                     20                     21
                      A                      A                      A
 Frequencies --   1328.2175              1396.8490              1413.7652
 Red. masses --      1.5576                 1.2551                 1.2320
 Frc consts  --      1.6190                 1.4429                 1.4508
 IR Inten    --     29.4312                 8.8136                 5.3108

                     22                     23                     24
                      A                      A                      A
 Frequencies --   1491.8127              1497.0727              1509.7912
 Red. masses --      1.0450                 1.0491                 1.0598
 Frc consts  --      1.3702                 1.3853                 1.4234
 IR Inten    --      0.9043                 0.7774                 2.3709

                     25                     26                     27
                      A                      A                      A
 Frequencies --   1520.1991              1686.1491              3049.8952
 Red. masses --      1.0608                13.8175                 1.0357
 Frc consts  --      1.4444                23.1458                 5.6762
 IR Inten    --     10.8409                65.4343                10.9663

                     28                     29                     30
                      A                      A                      A
 Frequencies --   3053.3619              3124.6887              3127.7919
 Red. masses --      1.0358                 1.1012                 1.1014
 Frc consts  --      5.6897                 6.3347                 6.3484
 IR Inten    --     16.3937                 6.7326                22.5751

                     31                     32                     33
                      A                      A                      A
 Frequencies --   3147.5887              3150.6579              3828.3963
 Red. masses --      1.1040                 1.1033                 1.0662
 Frc consts  --      6.4446                 6.4529                 9.2073
 IR Inten    --      5.5517                15.7264                21.5016

 - Thermochemistry -
 -------------------
 Temperature   298.150 Kelvin.  Pressure   1.00000 Atm.
 Atom     1 has atomic number  6 and mass  12.00000

 Molecular mass:    89.04768 amu.
 Principal axes and moments of inertia in atomic units:
                           1         2         3
     Eigenvalues --   383.81644 593.99675 607.67335
           X            0.99977   0.00000  -0.02137
           Y           -0.00000   1.00000  -0.00002
           Z            0.02137   0.00002   0.99977
 This molecule is an asymmetric top.
 Rotational symmetry number  1.
 Rotational temperatures (Kelvin)      0.22566     0.14582     0.14253
 Rotational constants (GHZ):           4.70209     3.03830     2.96992
 Zero-point vibrational energy     272625.0 (Joules/Mol)
                                   65.15893 (Kcal/Mol)
 Warning -- explicit consideration of  10 degrees of freedom as
           vibrations may cause significant error
 Vibrational temperatures:     73.32   280.06   316.19   370.70   404.22
          (Kelvin)            455.11   518.47   629.04   657.67   847.31
                             1080.77  1204.94  1345.23  1433.35  1436.00
                             1613.14  1708.09  1817.06  1911.01  2009.75
                             2034.09  2146.38  2153.95  2172.25  2187.22
                             2425.99  4388.11  4393.10  4495.72  4500.19
                             4528.67  4533.09  5508.20

 Zero-point correction=                           0.103837 (Hartree/Particle)
 Thermal correction to Energy=                    0.111355
 Thermal correction to Enthalpy=                  0.112299
 Thermal correction to Gibbs Free Energy=         0.072652
 Sum of electronic and zero-point Energies=           -323.547689
 Sum of electronic and thermal Energies=              -323.540171
 Sum of electronic and thermal Enthalpies=            -323.539227
 Sum of electronic and thermal Free Energies=         -323.578874

                     E (Thermal)             CV                S
                      KCal/Mol        Cal/Mol-Kelvin    Cal/Mol-Kelvin
 Total                   69.876             25.902             83.444
 Electronic               0.000              0.000              0.000
 Translational            0.889              2.981             39.372
 Rotational               0.889              2.981             26.430
 Vibrational             68.099             19.940             17.642
 Vibration     1          0.595              1.977              4.780
 Vibration     2          0.635              1.847              2.183
 Vibration     3          0.647              1.811              1.961
 Vibration     4          0.667              1.750              1.678
 Vibration     5          0.681              1.709              1.528
 Vibration     6          0.703              1.642              1.329
 Vibration     7          0.735              1.554              1.121
 Vibration     8          0.798              1.389              0.835
 Vibration     9          0.815              1.345              0.775
 Vibration    10          0.946              1.055              0.469

 Optimization completed.
    -- Stationary point found.
 Normal termination of Gaussian 09 at Thu Sep  8 14:49:42 2022.
