 Gaussian 09, Revision E.01,
 Gaussian 09:  ES64L-G09RevE.01 30-Nov-2015

 --------------------------------
 #P OPT=calcfc Freq B3LYP/6-31G**
 --------------------------------

 --------
 Frag_289
 --------
 Symbolic Z-matrix:
 Charge =  0 Multiplicity = 1

 SCF Done:  E(RB3LYP) =  -266.738810283     A.U. after   14 cycles
 SCF Done:  E(RB3LYP) =  -266.741909370     A.U. after   12 cycles
 SCF Done:  E(RB3LYP) =  -266.741924757     A.U. after    9 cycles
 Optimization completed.
    -- Stationary point found.
 Normal termination of Gaussian 09 at Fri Sep 10 20:36:24 2021.

 ----------------------------------------------------------------------
 #P Geom=AllCheck Guess=TCheck SCRF=Check GenChk RB3LYP/6-31G(d,p) Freq
 ----------------------------------------------------------------------

 Structure from the checkpoint file:  "/public/home/users/caep010/.cache/gau_scr/Gau-126779.chk"
 --------
 Frag_289
 --------
 Charge =  0 Multiplicity = 1

                         Standard orientation:
 ---------------------------------------------------------------------
 Center     Atomic      Atomic             Coordinates (Angstroms)
 Number     Number       Type             X           Y           Z
 ---------------------------------------------------------------------
      1          6           0       -0.838860    1.268131   -0.658352
      2          6           0       -0.296197   -0.000035    0.024617
      3          6           0       -0.840315   -1.267143   -0.659094
      4          7           0       -0.739650   -0.000189    1.425338
      5          6           0        1.192775   -0.000589   -0.073756
      6          7           0        2.354656   -0.000504   -0.094619
      7          1           0       -1.928695    1.271067   -0.578077
      8          1           0       -0.450514    2.169446   -0.174581
      9          1           0       -0.552764    1.297665   -1.712669
     10          1           0       -1.930182   -1.268641   -0.579221
     11          1           0       -0.553879   -1.296636   -1.713321
     12          1           0       -0.453434   -2.169198   -0.175540
     13          1           0       -0.369562    0.815710    1.909167
     14          1           0       -0.370431   -0.816747    1.908721
 ---------------------------------------------------------------------

 SCF Done:  E(RB3LYP) =  -266.741924757     A.U. after    1 cycles

 The electronic state is 1-A.
 Alpha  occ. eigenvalues --  -14.33929 -14.33009 -10.27254 -10.21924 -10.19782
 Alpha  occ. eigenvalues --  -10.19781  -0.92703  -0.88899  -0.78217  -0.71150
 Alpha  occ. eigenvalues --   -0.63441  -0.53146  -0.50648  -0.46799  -0.42056
 Alpha  occ. eigenvalues --   -0.40371  -0.40029  -0.38918  -0.37133  -0.35725
 Alpha  occ. eigenvalues --   -0.32899  -0.32000  -0.26599
 Alpha virt. eigenvalues --    0.03316   0.03907   0.05838   0.12407   0.12562
 Alpha virt. eigenvalues --    0.13186   0.14382   0.15491   0.17339   0.19333
 Alpha virt. eigenvalues --    0.20042   0.21687   0.24031   0.26565   0.37511

 Mulliken charges:
               1
     1  C   -0.292160
     2  C    0.063975
     3  C   -0.292160
     4  N   -0.564144
     5  C    0.329175
     6  N   -0.476824
     7  H    0.128666
     8  H    0.115649
     9  H    0.121774
    10  H    0.128669
    11  H    0.121769
    12  H    0.115631
    13  H    0.249991
    14  H    0.249987
 Sum of Mulliken charges =   0.00000

 Dipole moment (field-independent basis, Debye):
    X=             -2.7390    Y=              0.0001    Z=              0.2989  Tot=              2.7553
 Quadrupole moment (field-independent basis, Debye-Ang):
   XX=            -48.7492   YY=            -34.0656   ZZ=            -33.7907
   XY=              0.0038   XZ=              2.7435   YZ=             -0.0015

  Exact polarizability:  59.994   0.002  47.935  -0.613  -0.001  47.901
 Approx polarizability:  95.075   0.003  63.492  -3.463  -0.000  65.963

                      1                      2                      3
                      A                      A                      A
 Frequencies --    179.9753               187.1310               222.8822
 Red. masses --      3.7575                 3.6588                 1.0324
 Frc consts  --      0.0717                 0.0755                 0.0302
 IR Inten    --      7.1761                 7.3355                 3.0448

                      4                      5                      6
                      A                      A                      A
 Frequencies --    270.3362               332.2639               356.7036
 Red. masses --      1.1009                 1.0948                 2.3693
 Frc consts  --      0.0474                 0.0712                 0.1776
 IR Inten    --      0.7876                31.2924                 0.0528

                      7                      8                      9
                      A                      A                      A
 Frequencies --    398.2417               402.4314               585.8660
 Red. masses --      2.5802                 3.0622                 5.0625
 Frc consts  --      0.2411                 0.2922                 1.0238
 IR Inten    --     13.6573                 7.2334                 4.4790

                     10                     11                     12
                      A                      A                      A
 Frequencies --    586.9507               697.2841               873.9925
 Red. masses --      4.9508                 4.2442                 2.2974
 Frc consts  --      1.0049                 1.2158                 1.0340
 IR Inten    --      2.1922                 2.1646                83.6099

                     13                     14                     15
                      A                      A                      A
 Frequencies --    892.3588               952.3079              1020.4254
 Red. masses --      1.7092                 1.5796                 1.2600
 Frc consts  --      0.8019                 0.8440                 0.7730
 IR Inten    --     65.4708                 0.2511                 0.4869

                     16                     17                     18
                      A                      A                      A
 Frequencies --   1026.2971              1084.2886              1223.1134
 Red. masses --      1.5395                 1.6138                 2.4431
 Frc consts  --      0.9554                 1.1179                 2.1534
 IR Inten    --     22.1958                 3.0166                41.1590

                     19                     20                     21
                      A                      A                      A
 Frequencies --   1251.0056              1343.0639              1410.9107
 Red. masses --      2.7674                 1.7743                 1.2573
 Frc consts  --      2.5518                 1.8857                 1.4747
 IR Inten    --     26.7862                 2.9990                 6.3239

                     22                     23                     24
                      A                      A                      A
 Frequencies --   1430.4486              1494.8904              1497.7725
 Red. masses --      1.2217                 1.0523                 1.0455
 Frc consts  --      1.4728                 1.3855                 1.3818
 IR Inten    --      6.2638                 2.4779                 0.0946

                     25                     26                     27
                      A                      A                      A
 Frequencies --   1508.5257              1518.6960              1673.1709
 Red. masses --      1.0545                 1.0493                 1.0956
 Frc consts  --      1.4139                 1.4259                 1.8071
 IR Inten    --      2.2774                 7.7484                30.1447

                     28                     29                     30
                      A                      A                      A
 Frequencies --   2341.4452              3055.8459              3059.5734
 Red. masses --     12.7159                 1.0341                 1.0354
 Frc consts  --     41.0737                 5.6897                 5.7105
 IR Inten    --      4.8456                19.5193                 3.6420

                     31                     32                     33
                      A                      A                      A
 Frequencies --   3132.5037              3134.6686              3146.4970
 Red. masses --      1.1032                 1.1022                 1.1047
 Frc consts  --      6.3779                 6.3813                 6.4441
 IR Inten    --     12.6327                24.0960                 0.4002

                     34                     35                     36
                      A                      A                      A
 Frequencies --   3151.4073              3486.3563              3572.7823
 Red. masses --      1.1040                 1.0496                 1.0932
 Frc consts  --      6.4598                 7.5162                 8.2220
 IR Inten    --     23.4474                 0.1433                 0.5842

 - Thermochemistry -
 -------------------
 Temperature   298.150 Kelvin.  Pressure   1.00000 Atm.
 Atom     1 has atomic number  6 and mass  12.00000

 Molecular mass:    84.06875 amu.
 Principal axes and moments of inertia in atomic units:
                           1         2         3
     Eigenvalues --   389.11680 648.79481 659.89424
           X            0.99925   0.00007   0.03883
           Y           -0.00007   1.00000  -0.00009
           Z           -0.03883   0.00009   0.99925
 This molecule is an asymmetric top.
 Rotational symmetry number  1.
 Rotational temperatures (Kelvin)      0.22259     0.13350     0.13125
 Rotational constants (GHZ):           4.63804     2.78168     2.73489
 Zero-point vibrational energy     314034.2 (Joules/Mol)
                                   75.05597 (Kcal/Mol)
 Warning -- explicit consideration of  10 degrees of freedom as
           vibrations may cause significant error
 Vibrational temperatures:    258.94   269.24   320.68   388.95   478.05
          (Kelvin)            513.22   572.98   579.01   842.93   844.49
                             1003.24  1257.48  1283.90  1370.16  1468.16
                             1476.61  1560.05  1759.79  1799.92  1932.37
                             2029.98  2058.09  2150.81  2154.96  2170.43
                             2185.06  2407.32  3368.81  4396.68  4402.04
                             4506.97  4510.08  4527.10  4534.17  5016.08
                             5140.43

 Zero-point correction=                           0.119609 (Hartree/Particle)
 Thermal correction to Energy=                    0.126729
 Thermal correction to Enthalpy=                  0.127674
 Thermal correction to Gibbs Free Energy=         0.089511
 Sum of electronic and zero-point Energies=           -266.622315
 Sum of electronic and thermal Energies=              -266.615195
 Sum of electronic and thermal Enthalpies=            -266.614251
 Sum of electronic and thermal Free Energies=         -266.652414

                     E (Thermal)             CV                S
                      KCal/Mol        Cal/Mol-Kelvin    Cal/Mol-Kelvin
 Total                   79.524             25.794             80.321
 Electronic               0.000              0.000              0.000
 Translational            0.889              2.981             39.201
 Rotational               0.889              2.981             26.613
 Vibrational             77.746             19.832             14.507
 Vibration     1          0.629              1.867              2.329
 Vibration     2          0.632              1.857              2.256
 Vibration     3          0.649              1.806              1.936
 Vibration     4          0.674              1.728              1.594
 Vibration     5          0.714              1.611              1.249
 Vibration     6          0.732              1.561              1.136
 Vibration     7          0.765              1.474              0.969
 Vibration     8          0.768              1.465              0.954
 Vibration     9          0.943              1.062              0.475
 Vibration    10          0.944              1.060              0.473

 Optimization completed.
    -- Stationary point found.
 Normal termination of Gaussian 09 at Fri Sep 10 20:36:36 2021.
