 Gaussian 09, Revision E.01,
 Gaussian 09:  ES64L-G09RevE.01 30-Nov-2015

 ----------------------------
 #P OPT Freq B3LYP/6-31G(d,p)
 ----------------------------

 --------
 Frag_536
 --------
 Symbolic Z-matrix:
 Charge =  0 Multiplicity = 1

 SCF Done:  E(RB3LYP) =  -286.608160049     A.U. after   15 cycles
 SCF Done:  E(RB3LYP) =  -286.608259473     A.U. after   11 cycles
 SCF Done:  E(RB3LYP) =  -286.608172801     A.U. after   12 cycles
 SCF Done:  E(RB3LYP) =  -286.608272631     A.U. after   11 cycles
 SCF Done:  E(RB3LYP) =  -286.608273370     A.U. after    9 cycles
 SCF Done:  E(RB3LYP) =  -286.608273564     A.U. after    8 cycles
 Optimization completed.
    -- Stationary point found.
 Normal termination of Gaussian 09 at Thu Sep  8 15:17:51 2022.

 ----------------------------------------------------------------------
 #P Geom=AllCheck Guess=TCheck SCRF=Check GenChk RB3LYP/6-31G(d,p) Freq
 ----------------------------------------------------------------------

 Structure from the checkpoint file:  "B3LYP6-31Gdp.Frag_536.chk"
 --------
 Frag_536
 --------
 Charge =  0 Multiplicity = 1

                         Standard orientation:
 ---------------------------------------------------------------------
 Center     Atomic      Atomic             Coordinates (Angstroms)
 Number     Number       Type             X           Y           Z
 ---------------------------------------------------------------------
      1          6           0        1.054697    1.514821   -0.058125
      2          6           0        0.744422    0.203992    0.014565
      3          7           0        1.650289   -0.834853    0.130190
      4          6           0       -0.682789   -0.274992   -0.006119
      5          6           0       -1.819580    0.725302    0.051781
      6          8           0       -0.903819   -1.476335   -0.077597
      7          1           0        2.084975    1.856141   -0.065253
      8          1           0        0.286513    2.273507   -0.106055
      9          1           0        1.252564   -1.735790   -0.103778
     10          1           0        2.581857   -0.671583   -0.220449
     11          1           0       -1.798398    1.392178   -0.815982
     12          1           0       -2.761454    0.176445    0.060432
     13          1           0       -1.748031    1.349014    0.947924
 ---------------------------------------------------------------------

 SCF Done:  E(RB3LYP) =  -286.608273564     A.U. after    1 cycles

 The electronic state is 1-A.
 Alpha  occ. eigenvalues --  -19.14418 -14.33430 -10.28083 -10.22976 -10.19224
 Alpha  occ. eigenvalues --  -10.17839  -1.04400  -0.90835  -0.77036  -0.72033
 Alpha  occ. eigenvalues --   -0.62505  -0.53272  -0.51661  -0.47440  -0.44568
 Alpha  occ. eigenvalues --   -0.43803  -0.41592  -0.39986  -0.38449  -0.37322
 Alpha  occ. eigenvalues --   -0.32731  -0.25717  -0.21315
 Alpha virt. eigenvalues --   -0.04648   0.08021   0.09339   0.11314   0.13605
 Alpha virt. eigenvalues --    0.15274   0.17013   0.17648   0.18570   0.22829
 Alpha virt. eigenvalues --    0.29837   0.31819   0.35459   0.37113   0.50342

 Mulliken charges:
               1
     1  C   -0.320420
     2  C    0.282934
     3  N   -0.644859
     4  C    0.409642
     5  C   -0.397287
     6  O   -0.465868
     7  H    0.092232
     8  H    0.097600
     9  H    0.277315
    10  H    0.256372
    11  H    0.135964
    12  H    0.138354
    13  H    0.138019
 Sum of Mulliken charges =  -0.00000

 Dipole moment (field-independent basis, Debye):
    X=              0.8307    Y=              1.6787    Z=             -0.7635  Tot=              2.0227
 Quadrupole moment (field-independent basis, Debye-Ang):
   XX=            -31.1598   YY=            -37.0701   ZZ=            -37.4458
   XY=             -4.1875   XZ=             -2.1989   YZ=              0.7319

  Exact polarizability:  57.764   3.773  69.017  -0.565  -0.845  27.493
 Approx polarizability:  73.240  13.339 126.801  -0.281  -2.859  40.046

                      1                      2                      3
                      A                      A                      A
 Frequencies --     96.3078               138.1969               297.6029
 Red. masses --      3.8534                 1.0648                 3.0885
 Frc consts  --      0.0211                 0.0120                 0.1612
 IR Inten    --      3.6727                 0.2081                10.1985

                      4                      5                      6
                      A                      A                      A
 Frequencies --    358.1010               386.5394               405.4304
 Red. masses --      2.2585                 1.1336                 3.0681
 Frc consts  --      0.1706                 0.0998                 0.2971
 IR Inten    --     18.6568                32.6266                 7.8255

                      7                      8                      9
                      A                      A                      A
 Frequencies --    460.7985               559.9262               605.8815
 Red. masses --      2.5107                 2.2176                 1.7962
 Frc consts  --      0.3141                 0.4096                 0.3885
 IR Inten    --      7.8707               138.7588               121.7693

                     10                     11                     12
                      A                      A                      A
 Frequencies --    664.6756               702.5853               732.6702
 Red. masses --      2.6550                 1.1801                 2.9803
 Frc consts  --      0.6911                 0.3432                 0.9426
 IR Inten    --      1.4663                 4.0725                 5.4306

                     13                     14                     15
                      A                      A                      A
 Frequencies --    829.5775               979.2372              1003.5183
 Red. masses --      1.4244                 1.6930                 1.6682
 Frc consts  --      0.5775                 0.9565                 0.9898
 IR Inten    --     60.1662                13.1686                 5.7180

                     16                     17                     18
                      A                      A                      A
 Frequencies --   1044.5806              1116.7229              1213.0505
 Red. masses --      1.8181                 1.6620                 2.2831
 Frc consts  --      1.1688                 1.2212                 1.9794
 IR Inten    --      4.1014                 3.8680                91.4699

                     19                     20                     21
                      A                      A                      A
 Frequencies --   1384.8196              1416.7000              1457.9623
 Red. masses --      1.4833                 2.5818                 1.1797
 Frc consts  --      1.6759                 3.0530                 1.4775
 IR Inten    --     43.9250                53.8963                 5.6921

                     22                     23                     24
                      A                      A                      A
 Frequencies --   1488.0062              1490.5103              1622.9937
 Red. masses --      1.0621                 1.0545                 1.2119
 Frc consts  --      1.3855                 1.3803                 1.8808
 IR Inten    --      5.2029                 7.2156                99.4957

                     25                     26                     27
                      A                      A                      A
 Frequencies --   1704.4873              1771.2914              3059.3646
 Red. masses --      5.2896                 8.6386                 1.0368
 Frc consts  --      9.0544                15.9688                 5.7173
 IR Inten    --    108.3861               150.5575                 1.8365

                     28                     29                     30
                      A                      A                      A
 Frequencies --   3125.5564              3170.3795              3179.1040
 Red. masses --      1.1001                 1.1032                 1.0632
 Frc consts  --      6.3320                 6.5330                 6.3308
 IR Inten    --      6.5594                 7.5027                 6.9184

                     31                     32                     33
                      A                      A                      A
 Frequencies --   3278.5923              3566.3245              3694.2284
 Red. masses --      1.1124                 1.0473                 1.0990
 Frc consts  --      7.0450                 7.8482                 8.8367
 IR Inten    --      6.3630                32.0887                31.0728

 - Thermochemistry -
 -------------------
 Temperature   298.150 Kelvin.  Pressure   1.00000 Atm.
 Atom     1 has atomic number  6 and mass  12.00000

 Molecular mass:    85.05276 amu.
 Principal axes and moments of inertia in atomic units:
                           1         2         3
     Eigenvalues --   347.16726 520.78551 853.28682
           X            0.99525  -0.09696  -0.00863
           Y            0.09698   0.99529   0.00153
           Z            0.00844  -0.00236   0.99996
 This molecule is an asymmetric top.
 Rotational symmetry number  1.
 Rotational temperatures (Kelvin)      0.24949     0.16631     0.10151
 Rotational constants (GHZ):           5.19848     3.46542     2.11505
 Zero-point vibrational energy     281156.7 (Joules/Mol)
                                   67.19805 (Kcal/Mol)
 Warning -- explicit consideration of   9 degrees of freedom as
           vibrations may cause significant error
 Vibrational temperatures:    138.57   198.83   428.18   515.23   556.14
          (Kelvin)            583.32   662.99   805.61   871.73   956.32
                             1010.86  1054.15  1193.58  1408.90  1443.84
                             1502.92  1606.71  1745.31  1992.44  2038.31
                             2097.68  2140.91  2144.51  2335.12  2452.37
                             2548.49  4401.74  4496.97  4561.46  4574.02
                             4717.16  5131.14  5315.16

 Zero-point correction=                           0.107087 (Hartree/Particle)
 Thermal correction to Energy=                    0.113916
 Thermal correction to Enthalpy=                  0.114861
 Thermal correction to Gibbs Free Energy=         0.076878
 Sum of electronic and zero-point Energies=           -286.501187
 Sum of electronic and thermal Energies=              -286.494357
 Sum of electronic and thermal Enthalpies=            -286.493413
 Sum of electronic and thermal Free Energies=         -286.531395

                     E (Thermal)             CV                S
                      KCal/Mol        Cal/Mol-Kelvin    Cal/Mol-Kelvin
 Total                   71.484             24.725             79.941
 Electronic               0.000              0.000              0.000
 Translational            0.889              2.981             39.235
 Rotational               0.889              2.981             26.537
 Vibrational             69.706             18.763             14.169
 Vibration     1          0.603              1.952              3.528
 Vibration     2          0.614              1.915              2.829
 Vibration     3          0.691              1.678              1.430
 Vibration     4          0.733              1.559              1.130
 Vibration     5          0.755              1.499              1.013
 Vibration     6          0.770              1.458              0.943
 Vibration     7          0.819              1.337              0.764
 Vibration     8          0.916              1.118              0.524
 Vibration     9          0.965              1.019              0.440

 Normal termination of Gaussian 09 at Thu Sep  8 15:18:01 2022.
