 Gaussian 09, Revision E.01,
 Gaussian 09:  ES64L-G09RevE.01 30-Nov-2015

 ----------------------------
 #P OPT Freq B3LYP/6-31G(d,p)
 ----------------------------

 --------
 Frag_928
 --------
 Symbolic Z-matrix:
 Charge =  0 Multiplicity = 1

 SCF Done:  E(RB3LYP) =  -303.841951187     A.U. after   14 cycles
 SCF Done:  E(RB3LYP) =  -303.842011782     A.U. after   10 cycles
 SCF Done:  E(RB3LYP) =  -303.842020068     A.U. after   10 cycles
 SCF Done:  E(RB3LYP) =  -303.842036365     A.U. after   10 cycles
 SCF Done:  E(RB3LYP) =  -303.842038452     A.U. after    8 cycles
 SCF Done:  E(RB3LYP) =  -303.842040495     A.U. after    8 cycles
 SCF Done:  E(RB3LYP) =  -303.842041212     A.U. after    8 cycles
 SCF Done:  E(RB3LYP) =  -303.842041495     A.U. after    7 cycles
 Optimization completed.
    -- Stationary point found.
 Normal termination of Gaussian 09 at Thu Sep  8 14:56:52 2022.

 ----------------------------------------------------------------------
 #P Geom=AllCheck Guess=TCheck SCRF=Check GenChk RB3LYP/6-31G(d,p) Freq
 ----------------------------------------------------------------------

 Structure from the checkpoint file:  "B3LYP6-31Gdp.Frag_928.chk"
 --------
 Frag_928
 --------
 Charge =  0 Multiplicity = 1

                         Standard orientation:
 ---------------------------------------------------------------------
 Center     Atomic      Atomic             Coordinates (Angstroms)
 Number     Number       Type             X           Y           Z
 ---------------------------------------------------------------------
      1          6           0       -1.505017    1.172661   -0.238076
      2          6           0       -0.816406    0.067064    0.055151
      3          8           0       -1.425264   -1.145822    0.179627
      4          6           0        0.678461   -0.015353    0.349988
      5          7           0        1.185534   -1.207208   -0.338820
      6          7           0        1.397328    1.195158   -0.037111
      7          1           0       -1.021668    2.134980   -0.333927
      8          1           0       -2.574569    1.121698   -0.403429
      9          1           0       -0.704814   -1.797054    0.061284
     10          1           0        0.765206   -0.249315    1.426974
     11          1           0        2.085909   -1.491264    0.036687
     12          1           0        1.322049   -0.976416   -1.322175
     13          1           0        2.344220    1.152829    0.334028
     14          1           0        0.963516    2.009236    0.392675
 ---------------------------------------------------------------------

 SCF Done:  E(RB3LYP) =  -303.842041495     A.U. after    1 cycles

 The electronic state is 1-A.
 Alpha  occ. eigenvalues --  -19.14911 -14.33753 -14.32493 -10.25419 -10.23131
 Alpha  occ. eigenvalues --  -10.15462  -1.03670  -0.92842  -0.85246  -0.74101
 Alpha  occ. eigenvalues --   -0.65722  -0.55185  -0.53409  -0.50452  -0.47939
 Alpha  occ. eigenvalues --   -0.44930  -0.43019  -0.40735  -0.39000  -0.35616
 Alpha  occ. eigenvalues --   -0.32194  -0.27639  -0.25274  -0.21327
 Alpha virt. eigenvalues --    0.03359   0.07515   0.09974   0.12263   0.13711
 Alpha virt. eigenvalues --    0.15822   0.16367   0.17793   0.20348   0.23357
 Alpha virt. eigenvalues --    0.25356   0.27307   0.33349   0.36463   0.54215

 Mulliken charges:
               1
     1  C   -0.324835
     2  C    0.401803
     3  O   -0.552247
     4  C    0.083903
     5  N   -0.615808
     6  N   -0.593646
     7  H    0.084137
     8  H    0.099270
     9  H    0.327802
    10  H    0.104718
    11  H    0.247925
    12  H    0.260615
    13  H    0.232478
    14  H    0.243885
 Sum of Mulliken charges =   0.00000

 Dipole moment (field-independent basis, Debye):
    X=              3.4534    Y=              0.2162    Z=              0.9581  Tot=              3.5904
 Quadrupole moment (field-independent basis, Debye-Ang):
   XX=            -34.6028   YY=            -34.9289   ZZ=            -37.1146
   XY=             -2.6385   XZ=              2.4003   YZ=              2.3433

  Exact polarizability:  56.599  -7.121  58.504   3.023  -2.563  33.295
 Approx polarizability:  73.191 -11.716  89.249   4.297  -6.571  48.116

                      1                      2                      3
                      A                      A                      A
 Frequencies --     67.1628               254.3819               301.5746
 Red. masses --      3.5273                 1.3986                 2.2699
 Frc consts  --      0.0094                 0.0533                 0.1216
 IR Inten    --      1.7157                27.6793                15.8085

                      4                      5                      6
                      A                      A                      A
 Frequencies --    322.5378               394.8281               420.5545
 Red. masses --      1.9425                 1.4054                 2.7215
 Frc consts  --      0.1191                 0.1291                 0.2836
 IR Inten    --      6.8784                19.4812                11.6995

                      7                      8                      9
                      A                      A                      A
 Frequencies --    471.3833               532.5145               656.0725
 Red. masses --      2.2957                 3.7935                 2.4836
 Frc consts  --      0.3005                 0.6338                 0.6298
 IR Inten    --     14.1667                24.2829                15.0519

                     10                     11                     12
                      A                      A                      A
 Frequencies --    680.3053               736.1764               806.1336
 Red. masses --      1.3316                 1.0518                 2.0649
 Frc consts  --      0.3631                 0.3358                 0.7906
 IR Inten    --     53.3076                48.6518                12.1072

                     13                     14                     15
                      A                      A                      A
 Frequencies --    827.6726               888.8790               903.2282
 Red. masses --      1.4616                 1.8542                 1.4004
 Frc consts  --      0.5899                 0.8631                 0.6731
 IR Inten    --     55.2372               127.1767               122.1536

                     16                     17                     18
                      A                      A                      A
 Frequencies --    985.1840              1031.5535              1122.9161
 Red. masses --      1.9196                 1.7435                 3.1393
 Frc consts  --      1.0977                 1.0931                 2.3323
 IR Inten    --     32.7106                34.5681                62.6080

                     19                     20                     21
                      A                      A                      A
 Frequencies --   1191.0132              1249.2750              1266.8522
 Red. masses --      1.2750                 1.6503                 1.7094
 Frc consts  --      1.0656                 1.5175                 1.6164
 IR Inten    --      7.1035                 7.4079                11.3308

                     22                     23                     24
                      A                      A                      A
 Frequencies --   1369.6727              1406.5033              1441.9000
 Red. masses --      1.3433                 1.5738                 1.4035
 Frc consts  --      1.4848                 1.8343                 1.7192
 IR Inten    --    243.5897                29.4447                25.8162

                     25                     26                     27
                      A                      A                      A
 Frequencies --   1458.0974              1660.9796              1666.8809
 Red. masses --      1.2740                 1.0956                 1.1002
 Frc consts  --      1.5959                 1.7808                 1.8011
 IR Inten    --     34.2285                40.8921                29.1038

                     28                     29                     30
                      A                      A                      A
 Frequencies --   1763.3292              2944.9545              3193.5665
 Red. masses --      5.2655                 1.0818                 1.0607
 Frc consts  --      9.6461                 5.5278                 6.3738
 IR Inten    --     77.7638                69.0750                 0.3236

                     31                     32                     33
                      A                      A                      A
 Frequencies --   3284.3931              3487.4256              3490.5783
 Red. masses --      1.1162                 1.0502                 1.0499
 Frc consts  --      7.0943                 7.5251                 7.5367
 IR Inten    --      7.5180                 0.8321                 2.1431

                     34                     35                     36
                      A                      A                      A
 Frequencies --   3571.4013              3584.7604              3607.2127
 Red. masses --      1.0917                 1.0928                 1.0644
 Frc consts  --      8.2039                 8.2738                 8.1599
 IR Inten    --      0.3540                 2.3449               187.1795

 - Thermochemistry -
 -------------------
 Temperature   298.150 Kelvin.  Pressure   1.00000 Atm.
 Atom     1 has atomic number  6 and mass  12.00000

 Molecular mass:    88.06366 amu.
 Principal axes and moments of inertia in atomic units:
                           1         2         3
     Eigenvalues --   371.71548 537.53789 847.40967
           X            0.99676  -0.07924   0.01415
           Y            0.07913   0.99683   0.00831
           Z           -0.01476  -0.00716   0.99987
 This molecule is an asymmetric top.
 Rotational symmetry number  1.
 Rotational temperatures (Kelvin)      0.23301     0.16113     0.10221
 Rotational constants (GHZ):           4.85517     3.35742     2.12972
 Zero-point vibrational energy     317260.7 (Joules/Mol)
                                   75.82714 (Kcal/Mol)
 Warning -- explicit consideration of   8 degrees of freedom as
           vibrations may cause significant error
 Vibrational temperatures:     96.63   366.00   433.90   464.06   568.07
          (Kelvin)            605.08   678.21   766.17   943.94   978.81
                             1059.19  1159.84  1190.83  1278.90  1299.54
                             1417.46  1484.17  1615.62  1713.60  1797.43
                             1822.72  1970.65  2023.64  2074.57  2097.87
                             2389.78  2398.27  2537.03  4237.13  4594.82
                             4725.50  5017.62  5022.16  5138.44  5157.66
                             5189.97

 Zero-point correction=                           0.120838 (Hartree/Particle)
 Thermal correction to Energy=                    0.127594
 Thermal correction to Enthalpy=                  0.128538
 Thermal correction to Gibbs Free Energy=         0.090596
 Sum of electronic and zero-point Energies=           -303.721203
 Sum of electronic and thermal Energies=              -303.714447
 Sum of electronic and thermal Enthalpies=            -303.713503
 Sum of electronic and thermal Free Energies=         -303.751445

                     E (Thermal)             CV                S
                      KCal/Mol        Cal/Mol-Kelvin    Cal/Mol-Kelvin
 Total                   80.067             25.250             79.856
 Electronic               0.000              0.000              0.000
 Translational            0.889              2.981             39.339
 Rotational               0.889              2.981             26.629
 Vibrational             78.289             19.289             13.887
 Vibration     1          0.598              1.970              4.235
 Vibration     2          0.665              1.755              1.700
 Vibration     3          0.694              1.671              1.408
 Vibration     4          0.708              1.630              1.297
 Vibration     5          0.762              1.481              0.982
 Vibration     6          0.783              1.426              0.890
 Vibration     7          0.828              1.314              0.734
 Vibration     8          0.887              1.178              0.582

 Normal termination of Gaussian 09 at Thu Sep  8 14:57:03 2022.
