 Gaussian 09, Revision E.01,
 Gaussian 09:  ES64L-G09RevE.01 30-Nov-2015

 ----------------------------
 #P OPT Freq B3LYP/6-31G(d,p)
 ----------------------------

 --------
 Frag_702
 --------
 Symbolic Z-matrix:
 Charge =  0 Multiplicity = 1

 SCF Done:  E(RB3LYP) =  -300.035010098     A.U. after   13 cycles
 SCF Done:  E(RB3LYP) =  -300.035062041     A.U. after   10 cycles
 SCF Done:  E(RB3LYP) =  -300.035067215     A.U. after   10 cycles
 SCF Done:  E(RB3LYP) =  -300.035072725     A.U. after    8 cycles
 SCF Done:  E(RB3LYP) =  -300.035073187     A.U. after    8 cycles
 SCF Done:  E(RB3LYP) =  -300.035074052     A.U. after    8 cycles
 Optimization completed.
    -- Stationary point found.
 Normal termination of Gaussian 09 at Thu Sep  8 15:07:14 2022.

 ----------------------------------------------------------------------
 #P Geom=AllCheck Guess=TCheck SCRF=Check GenChk RB3LYP/6-31G(d,p) Freq
 ----------------------------------------------------------------------

 Structure from the checkpoint file:  "B3LYP6-31Gdp.Frag_702.chk"
 --------
 Frag_702
 --------
 Charge =  0 Multiplicity = 1

                         Standard orientation:
 ---------------------------------------------------------------------
 Center     Atomic      Atomic             Coordinates (Angstroms)
 Number     Number       Type             X           Y           Z
 ---------------------------------------------------------------------
      1          7           0       -1.069489    1.277459    0.632691
      2          6           0       -0.778927    0.214108   -0.013977
      3          7           0       -1.763701   -0.708899   -0.340591
      4          6           0        0.643008   -0.262683   -0.365973
      5          7           0        1.540155    0.880274   -0.378079
      6          7           0        1.184670   -1.216358    0.605808
      7          1           0       -0.195859    1.766681    0.847433
      8          1           0       -1.649108   -1.198223   -1.218087
      9          1           0       -2.702035   -0.361003   -0.188097
     10          1           0        0.593667   -0.802970   -1.330653
     11          1           0        2.490681    0.547157   -0.511676
     12          1           0        1.310450    1.516077   -1.136579
     13          1           0        0.572538   -2.027899    0.653893
     14          1           0        1.153730   -0.775709    1.524663
 ---------------------------------------------------------------------

 SCF Done:  E(RB3LYP) =  -300.035074052     A.U. after    1 cycles

 The electronic state is 1-A.
 Alpha  occ. eigenvalues --  -14.34085 -14.32380 -14.32048 -14.28322 -10.25053
 Alpha  occ. eigenvalues --  -10.24341  -0.94957  -0.90809  -0.84703  -0.83336
 Alpha  occ. eigenvalues --   -0.66343  -0.56865  -0.53414  -0.51093  -0.49534
 Alpha  occ. eigenvalues --   -0.44018  -0.42555  -0.41237  -0.40562  -0.34915
 Alpha  occ. eigenvalues --   -0.27647  -0.25305  -0.23585  -0.22873
 Alpha virt. eigenvalues --    0.03296   0.06952   0.09552   0.11032   0.13748
 Alpha virt. eigenvalues --    0.14739   0.15866   0.17673   0.19577   0.22488
 Alpha virt. eigenvalues --    0.26706   0.27370   0.35321   0.41616   0.55319

 Mulliken charges:
               1
     1  N   -0.579233
     2  C    0.418279
     3  N   -0.612392
     4  C    0.127408
     5  N   -0.601421
     6  N   -0.575628
     7  H    0.237238
     8  H    0.252714
     9  H    0.269311
    10  H    0.068273
    11  H    0.254746
    12  H    0.246703
    13  H    0.245996
    14  H    0.248007
 Sum of Mulliken charges =  -0.00000

 Dipole moment (field-independent basis, Debye):
    X=              0.3163    Y=             -1.4756    Z=             -2.4985  Tot=              2.9189
 Quadrupole moment (field-independent basis, Debye-Ang):
   XX=            -36.5841   YY=            -38.2064   ZZ=            -33.3985
   XY=              6.0384   XZ=              1.8709   YZ=             -1.6135

  Exact polarizability:  52.034   2.369  53.397   0.783   5.932  40.283
 Approx polarizability:  67.380   1.900  83.981   1.136  14.473  59.143

                      1                      2                      3
                      A                      A                      A
 Frequencies --     95.5281               233.6886               281.2402
 Red. masses --      3.9974                 2.7494                 1.3746
 Frc consts  --      0.0215                 0.0885                 0.0641
 IR Inten    --      1.0785                 3.2182                29.6714

                      4                      5                      6
                      A                      A                      A
 Frequencies --    322.1577               326.3034               394.0255
 Red. masses --      1.8165                 1.3634                 1.5014
 Frc consts  --      0.1111                 0.0855                 0.1373
 IR Inten    --     36.3190                27.1952                35.4943

                      7                      8                      9
                      A                      A                      A
 Frequencies --    441.3876               519.4426               586.3898
 Red. masses --      1.6490                 2.7153                 2.0020
 Frc consts  --      0.1893                 0.4317                 0.4056
 IR Inten    --     33.8479                 7.4963                86.1037

                     10                     11                     12
                      A                      A                      A
 Frequencies --    639.2879               736.7725               799.8318
 Red. masses --      1.8968                 4.1550                 2.1480
 Frc consts  --      0.4567                 1.3289                 0.8096
 IR Inten    --    142.4833                59.7366                22.8806

                     13                     14                     15
                      A                      A                      A
 Frequencies --    887.2909               933.6396               944.7115
 Red. masses --      1.3701                 1.2342                 1.6954
 Frc consts  --      0.6355                 0.6339                 0.8915
 IR Inten    --    120.8907                72.3564               156.5020

                     16                     17                     18
                      A                      A                      A
 Frequencies --    996.0365              1114.4940              1134.4406
 Red. masses --      2.1803                 1.8076                 1.5988
 Frc consts  --      1.2745                 1.3229                 1.2123
 IR Inten    --     10.0323                25.4643                23.7328

                     19                     20                     21
                      A                      A                      A
 Frequencies --   1174.5524              1198.4758              1307.3369
 Red. masses --      1.5077                 1.3602                 1.4186
 Frc consts  --      1.2255                 1.1511                 1.4285
 IR Inten    --     67.6414                45.5870                10.3774

                     22                     23                     24
                      A                      A                      A
 Frequencies --   1366.2139              1419.7874              1457.4081
 Red. masses --      1.4781                 1.3423                 2.2137
 Frc consts  --      1.6255                 1.5943                 2.7704
 IR Inten    --     70.4858                11.6698                18.7916

                     25                     26                     27
                      A                      A                      A
 Frequencies --   1630.8427              1640.9035              1659.8240
 Red. masses --      1.2314                 1.1136                 1.1006
 Frc consts  --      1.9296                 1.7666                 1.7865
 IR Inten    --     58.9050                59.2359                30.4232

                     28                     29                     30
                      A                      A                      A
 Frequencies --   1741.4748              2922.5857              3457.3094
 Red. masses --      5.9496                 1.0823                 1.0727
 Frc consts  --     10.6310                 5.4467                 7.5545
 IR Inten    --    150.9103                99.0741                 7.5562

                     31                     32                     33
                      A                      A                      A
 Frequencies --   3481.1803              3510.4699              3557.8028
 Red. masses --      1.0505                 1.0491                 1.0465
 Frc consts  --      7.5006                 7.6171                 7.8047
 IR Inten    --      0.1479                 1.0498                11.6172

                     34                     35                     36
                      A                      A                      A
 Frequencies --   3573.7178              3606.1006              3674.4580
 Red. masses --      1.0911                 1.0942                 1.0994
 Frc consts  --      8.2105                 8.3836                 8.7453
 IR Inten    --      1.1139                 2.9864                15.8972

 - Thermochemistry -
 -------------------
 Temperature   298.150 Kelvin.  Pressure   1.00000 Atm.
 Atom     1 has atomic number  7 and mass  14.00307

 Molecular mass:    88.07490 amu.
 Principal axes and moments of inertia in atomic units:
                           1         2         3
     Eigenvalues --   356.12747 604.60243 786.97008
           X            0.99879   0.04862   0.00726
           Y           -0.04857   0.99879  -0.00723
           Z           -0.00760   0.00687   0.99995
 This molecule is an asymmetric top.
 Rotational symmetry number  1.
 Rotational temperatures (Kelvin)      0.24321     0.14326     0.11006
 Rotational constants (GHZ):           5.06768     2.98500     2.29328
 Zero-point vibrational energy     321598.7 (Joules/Mol)
                                   76.86395 (Kcal/Mol)
 Warning -- explicit consideration of   9 degrees of freedom as
           vibrations may cause significant error
 Vibrational temperatures:    137.44   336.23   404.64   463.51   469.48
          (Kelvin)            566.91   635.06   747.36   843.68   919.79
                             1060.05  1150.78  1276.61  1343.30  1359.23
                             1433.07  1603.51  1632.20  1689.92  1724.34
                             1880.96  1965.67  2042.75  2096.88  2346.42
                             2360.89  2388.11  2505.59  4204.94  4974.29
                             5008.64  5050.78  5118.88  5141.78  5188.37
                             5286.72

 Zero-point correction=                           0.122490 (Hartree/Particle)
 Thermal correction to Energy=                    0.129392
 Thermal correction to Enthalpy=                  0.130337
 Thermal correction to Gibbs Free Energy=         0.092326
 Sum of electronic and zero-point Energies=           -299.912584
 Sum of electronic and thermal Energies=              -299.905682
 Sum of electronic and thermal Enthalpies=            -299.904737
 Sum of electronic and thermal Free Energies=         -299.942748

                     E (Thermal)             CV                S
                      KCal/Mol        Cal/Mol-Kelvin    Cal/Mol-Kelvin
 Total                   81.195             25.517             80.001
 Electronic               0.000              0.000              0.000
 Translational            0.889              2.981             39.340
 Rotational               0.889              2.981             26.630
 Vibrational             79.418             19.556             14.032
 Vibration     1          0.603              1.952              3.544
 Vibration     2          0.654              1.789              1.850
 Vibration     3          0.681              1.708              1.526
 Vibration     4          0.707              1.631              1.299
 Vibration     5          0.710              1.623              1.278
 Vibration     6          0.761              1.483              0.985
 Vibration     7          0.801              1.380              0.822
 Vibration     8          0.874              1.207              0.611
 Vibration     9          0.943              1.061              0.474

 Optimization completed.
    -- Stationary point found.
 Normal termination of Gaussian 09 at Thu Sep  8 15:07:26 2022.
