 Gaussian 09, Revision E.01,
 Gaussian 09:  ES64L-G09RevE.01 30-Nov-2015

 -------------------------
 #P OPT Freq B3LYP/6-31G**
 -------------------------

 --------
 Frag_216
 --------
 Symbolic Z-matrix:
 Charge =  0 Multiplicity = 1

 SCF Done:  E(RB3LYP) =  -267.942050693     A.U. after   12 cycles
 SCF Done:  E(RB3LYP) =  -267.948353153     A.U. after   11 cycles
 SCF Done:  E(RB3LYP) =  -267.948721442     A.U. after   10 cycles
 SCF Done:  E(RB3LYP) =  -267.948769943     A.U. after   10 cycles
 SCF Done:  E(RB3LYP) =  -267.948772355     A.U. after    7 cycles
 Optimization completed.
    -- Stationary point found.
 Normal termination of Gaussian 09 at Sat Aug 21 01:34:01 2021.

 ----------------------------------------------------------------------
 #P Geom=AllCheck Guess=TCheck SCRF=Check GenChk RB3LYP/6-31G(d,p) Freq
 ----------------------------------------------------------------------

 Structure from the checkpoint file:  "/public/home/users/caep010/.cache/gau_scr/Gau-106402.chk"
 --------
 Frag_216
 --------
 Charge =  0 Multiplicity = 1

                         Standard orientation:
 ---------------------------------------------------------------------
 Center     Atomic      Atomic             Coordinates (Angstroms)
 Number     Number       Type             X           Y           Z
 ---------------------------------------------------------------------
      1          6           0       -1.435229   -0.000010   -0.230257
      2          6           0       -0.670323    1.259238    0.216638
      3          7           0        0.745903    1.250510   -0.175219
      4          6           0        1.398125    0.000010    0.221776
      5          7           0        0.745921   -1.250499   -0.175218
      6          6           0       -0.670305   -1.259248    0.216638
      7          1           0       -2.454194   -0.000018    0.178512
      8          1           0       -1.530048   -0.000011   -1.325892
      9          1           0       -0.706522    1.333143    1.312896
     10          1           0       -1.139428    2.168279   -0.175008
     11          1           0        0.809981    1.350422   -1.187733
     12          1           0        2.421002    0.000017   -0.166856
     13          1           0        1.458737    0.000011    1.318216
     14          1           0        0.810001   -1.350412   -1.187732
     15          1           0       -1.139397   -2.168294   -0.175009
     16          1           0       -0.706503   -1.333154    1.312896
 ---------------------------------------------------------------------

 SCF Done:  E(RB3LYP) =  -267.948772355     A.U. after    1 cycles

 The electronic state is 1-A.
 Alpha  occ. eigenvalues --  -14.31238 -14.31237 -10.22395 -10.20452 -10.20452
 Alpha  occ. eigenvalues --  -10.17885  -0.93010  -0.85458  -0.76402  -0.64515
 Alpha  occ. eigenvalues --   -0.64051  -0.58310  -0.49488  -0.47732  -0.45131
 Alpha  occ. eigenvalues --   -0.42184  -0.42000  -0.37844  -0.37544  -0.34860
 Alpha  occ. eigenvalues --   -0.34659  -0.33261  -0.24526  -0.20332
 Alpha virt. eigenvalues --    0.07465   0.11100   0.12295   0.13268   0.15614
 Alpha virt. eigenvalues --    0.15734   0.16718   0.17280   0.17436   0.18699
 Alpha virt. eigenvalues --    0.22151   0.23065   0.25231   0.27648   0.28346

 Mulliken charges:
               1
     1  C   -0.185776
     2  C   -0.062087
     3  N   -0.472834
     4  C    0.034537
     5  N   -0.472834
     6  C   -0.062087
     7  H    0.088325
     8  H    0.081177
     9  H    0.101772
    10  H    0.096283
    11  H    0.221304
    12  H    0.101281
    13  H    0.111581
    14  H    0.221304
    15  H    0.096283
    16  H    0.101772
 Sum of Mulliken charges =   0.00000

 Dipole moment (field-independent basis, Debye):
    X=             -1.0683    Y=             -0.0000    Z=             -1.2398  Tot=              1.6366
 Quadrupole moment (field-independent basis, Debye-Ang):
   XX=            -38.3316   YY=            -42.7503   ZZ=            -35.0216
   XY=              0.0000   XZ=             -1.7059   YZ=             -0.0000

  Exact polarizability:  58.284   0.000  53.416  -1.336  -0.000  51.484
 Approx polarizability:  76.859   0.000  71.785  -2.673  -0.000  77.341

                      1                      2                      3
                      A                      A                      A
 Frequencies --    250.5066               260.1049               419.3140
 Red. masses --      1.9939                 1.7460                 1.5812
 Frc consts  --      0.0737                 0.0696                 0.1638
 IR Inten    --      4.6313                 0.9776                10.1807

                      4                      5                      6
                      A                      A                      A
 Frequencies --    459.8335               479.7557               608.1216
 Red. masses --      4.3056                 2.6089                 1.4556
 Frc consts  --      0.5364                 0.3538                 0.3172
 IR Inten    --      3.1911                 2.6294                 9.7457

                      7                      8                      9
                      A                      A                      A
 Frequencies --    757.9687               791.5070               835.4239
 Red. masses --      1.4397                 2.2676                 2.0810
 Frc consts  --      0.4873                 0.8370                 0.8557
 IR Inten    --    183.0367                52.5497                 1.2996

                     10                     11                     12
                      A                      A                      A
 Frequencies --    879.5956               885.8541               932.5157
 Red. masses --      1.6360                 2.3754                 1.7235
 Frc consts  --      0.7458                 1.0983                 0.8830
 IR Inten    --     37.8233                 9.8580                19.7977

                     13                     14                     15
                      A                      A                      A
 Frequencies --    999.0952              1030.4893              1036.3455
 Red. masses --      1.5752                 1.8443                 2.4790
 Frc consts  --      0.9264                 1.1539                 1.5687
 IR Inten    --     30.7877                13.3090                 9.5796

                     16                     17                     18
                      A                      A                      A
 Frequencies --   1097.8323              1145.1878              1163.9156
 Red. masses --      5.1056                 4.2163                 1.0527
 Frc consts  --      3.6255                 3.2579                 0.8403
 IR Inten    --     16.9779                67.0379                 4.1339

                     19                     20                     21
                      A                      A                      A
 Frequencies --   1218.4628              1247.0978              1339.6374
 Red. masses --      2.0890                 1.3176                 1.2353
 Frc consts  --      1.8273                 1.2073                 1.3062
 IR Inten    --      1.2077                21.6484                 1.1505

                     22                     23                     24
                      A                      A                      A
 Frequencies --   1353.7766              1364.2474              1385.1118
 Red. masses --      1.2967                 1.2687                 1.2375
 Frc consts  --      1.4002                 1.3912                 1.3988
 IR Inten    --      0.3245                 0.1659                 0.0600

                     25                     26                     27
                      A                      A                      A
 Frequencies --   1396.1002              1407.4216              1479.6298
 Red. masses --      1.3717                 1.2665                 1.1222
 Frc consts  --      1.5753                 1.4781                 1.4475
 IR Inten    --     10.5168                 8.9485                 4.0262

                     28                     29                     30
                      A                      A                      A
 Frequencies --   1479.9693              1491.3267              1497.3200
 Red. masses --      1.0966                 1.1064                 1.1159
 Frc consts  --      1.4151                 1.4498                 1.4741
 IR Inten    --      1.6892                 7.0482                 5.6280

                     31                     32                     33
                      A                      A                      A
 Frequencies --   1503.5094              1510.7156              3014.6222
 Red. masses --      1.1788                 1.1108                 1.0650
 Frc consts  --      1.5700                 1.4936                 5.7027
 IR Inten    --     11.8456                 1.9147                27.3694

                     34                     35                     36
                      A                      A                      A
 Frequencies --   3021.3044              3024.1016              3039.0531
 Red. masses --      1.0656                 1.0645                 1.0652
 Frc consts  --      5.7310                 5.7355                 5.7964
 IR Inten    --     29.0615                30.1198                56.0503

                     37                     38                     39
                      A                      A                      A
 Frequencies --   3065.1849              3081.6237              3084.5390
 Red. masses --      1.0970                 1.0997                 1.1023
 Frc consts  --      6.0728                 6.1527                 6.1791
 IR Inten    --     65.5014                46.1920                44.9436

                     40                     41                     42
                      A                      A                      A
 Frequencies --   3102.2941              3483.6005              3484.1623
 Red. masses --      1.1025                 1.0743                 1.0732
 Frc consts  --      6.2515                 7.6810                 7.6755
 IR Inten    --     35.2708                 0.2562                 4.6461

 - Thermochemistry -
 -------------------
 Temperature   298.150 Kelvin.  Pressure   1.00000 Atm.
 Atom     1 has atomic number  6 and mass  12.00000

 Molecular mass:    86.08440 amu.
 Principal axes and moments of inertia in atomic units:
                           1         2         3
     Eigenvalues --   389.56419 399.10486 694.57515
           X           -0.00001   0.99999  -0.00321
           Y            1.00000   0.00001  -0.00000
           Z           -0.00000   0.00321   0.99999
 This molecule is an asymmetric top.
 Rotational symmetry number  1.
 Rotational temperatures (Kelvin)      0.22234     0.21702     0.12470
 Rotational constants (GHZ):           4.63272     4.52197     2.59834
 Zero-point vibrational energy     389433.4 (Joules/Mol)
                                   93.07681 (Kcal/Mol)
 Warning -- explicit consideration of   6 degrees of freedom as
           vibrations may cause significant error
 Vibrational temperatures:    360.42   374.23   603.30   661.60   690.26
          (Kelvin)            874.95  1090.55  1138.80  1201.99  1265.54
                             1274.54  1341.68  1437.47  1482.64  1491.07
                             1579.53  1647.67  1674.61  1753.09  1794.29
                             1927.44  1947.78  1962.85  1992.86  2008.67
                             2024.96  2128.85  2129.34  2145.68  2154.31
                             2163.21  2173.58  4337.36  4346.98  4351.00
                             4372.51  4410.11  4433.76  4437.96  4463.50
                             5012.12  5012.93

 Zero-point correction=                           0.148327 (Hartree/Particle)
 Thermal correction to Energy=                    0.153740
 Thermal correction to Enthalpy=                  0.154685
 Thermal correction to Gibbs Free Energy=         0.119812
 Sum of electronic and zero-point Energies=           -267.800445
 Sum of electronic and thermal Energies=              -267.795032
 Sum of electronic and thermal Enthalpies=            -267.794088
 Sum of electronic and thermal Free Energies=         -267.828960

                     E (Thermal)             CV                S
                      KCal/Mol        Cal/Mol-Kelvin    Cal/Mol-Kelvin
 Total                   96.474             21.375             73.396
 Electronic               0.000              0.000              0.000
 Translational            0.889              2.981             39.271
 Rotational               0.889              2.981             26.182
 Vibrational             94.696             15.414              7.942
 Vibration     1          0.663              1.762              1.727
 Vibration     2          0.668              1.746              1.661
 Vibration     3          0.782              1.428              0.894
 Vibration     4          0.818              1.339              0.767
 Vibration     5          0.836              1.295              0.711
 Vibration     6          0.967              1.015              0.436

 Optimization completed.
    -- Stationary point found.
 Normal termination of Gaussian 09 at Sat Aug 21 01:34:17 2021.
