 Gaussian 09, Revision E.01,
 Gaussian 09:  ES64L-G09RevE.01 30-Nov-2015

 ----------------------------
 #P OPT Freq B3LYP/6-31G(d,p)
 ----------------------------

 ---------
 Frag_1097
 ---------
 Symbolic Z-matrix:
 Charge =  0 Multiplicity = 1

 SCF Done:  E(RB3LYP) =  -320.266445198     A.U. after   14 cycles
 SCF Done:  E(RB3LYP) =  -320.266570032     A.U. after   11 cycles
 SCF Done:  E(RB3LYP) =  -320.266591659     A.U. after   11 cycles
 SCF Done:  E(RB3LYP) =  -320.266594580     A.U. after   11 cycles
 SCF Done:  E(RB3LYP) =  -320.266599822     A.U. after    9 cycles
 SCF Done:  E(RB3LYP) =  -320.266600929     A.U. after    8 cycles
 SCF Done:  E(RB3LYP) =  -320.266602084     A.U. after    8 cycles
 SCF Done:  E(RB3LYP) =  -320.266603257     A.U. after    9 cycles
 SCF Done:  E(RB3LYP) =  -320.266603583     A.U. after    8 cycles
 Optimization completed.
    -- Stationary point found.
 Normal termination of Gaussian 09 at Thu Sep  8 14:53:19 2022.

 ----------------------------------------------------------------------
 #P Geom=AllCheck Guess=TCheck SCRF=Check GenChk RB3LYP/6-31G(d,p) Freq
 ----------------------------------------------------------------------

 Structure from the checkpoint file:  "B3LYP6-31Gdp.Frag_1097.chk"
 ---------
 Frag_1097
 ---------
 Charge =  0 Multiplicity = 1

                         Standard orientation:
 ---------------------------------------------------------------------
 Center     Atomic      Atomic             Coordinates (Angstroms)
 Number     Number       Type             X           Y           Z
 ---------------------------------------------------------------------
      1          7           0        1.675409   -0.444795   -0.039481
      2          6           0        0.452680    0.137706   -0.001467
      3          8           0        0.210529    1.333751    0.003875
      4          8           0       -0.529845   -0.811939    0.002610
      5          8           0       -1.823825   -0.172186    0.000722
      6          1           0        2.471827    0.151519    0.114218
      7          1           0        1.767715   -1.436590    0.113142
      8          1           0       -1.538351    0.775401    0.000157
 ---------------------------------------------------------------------

 SCF Done:  E(RB3LYP) =  -320.266603583     A.U. after    1 cycles

 The electronic state is 1-A.
 Alpha  occ. eigenvalues --  -19.24503 -19.21116 -19.14953 -14.38574 -10.35836
 Alpha  occ. eigenvalues --   -1.16786  -1.05421  -0.96267  -0.90236  -0.64022
 Alpha  occ. eigenvalues --   -0.59139  -0.54401  -0.48515  -0.48202  -0.43323
 Alpha  occ. eigenvalues --   -0.39341  -0.38208  -0.31091  -0.30220  -0.26953
 Alpha virt. eigenvalues --    0.00383   0.03290   0.06958   0.11501   0.14334
 Alpha virt. eigenvalues --    0.21850   0.31416   0.36468   0.52628   0.53238
 Alpha virt. eigenvalues --    0.58805   0.64097   0.64928   0.70050   0.72155

 Mulliken charges:
               1
     1  N   -0.624000
     2  C    0.795445
     3  O   -0.522769
     4  O   -0.285771
     5  O   -0.305073
     6  H    0.298166
     7  H    0.295625
     8  H    0.348376
 Sum of Mulliken charges =   0.00000

 Dipole moment (field-independent basis, Debye):
    X=              3.2025    Y=             -0.9993    Z=              0.4970  Tot=              3.3914
 Quadrupole moment (field-independent basis, Debye-Ang):
   XX=            -22.6062   YY=            -28.9827   ZZ=            -28.6829
   XY=             -4.6875   XZ=              1.1817   YZ=             -0.3738

  Exact polarizability:  39.478  -3.409  29.720   0.097   0.002  13.318
 Approx polarizability:  54.123  -6.149  50.848  -0.255   0.246  18.248

                      1                      2                      3
                      A                      A                      A
 Frequencies --    152.9335               249.9182               338.9493
 Red. masses --     10.6863                 1.2111                 4.6273
 Frc consts  --      0.1473                 0.0446                 0.3132
 IR Inten    --      0.1382               276.4121                25.3147

                      4                      5                      6
                      A                      A                      A
 Frequencies --    448.2168               472.0041               497.6032
 Red. masses --      1.1631                 1.7166                 1.5003
 Frc consts  --      0.1377                 0.2253                 0.2189
 IR Inten    --     64.4051                34.1326                18.2727

                      7                      8                      9
                      A                      A                      A
 Frequencies --    695.8114               749.8959               888.6565
 Red. masses --      5.9880                 7.2443                 4.5881
 Frc consts  --      1.7081                 2.4002                 2.1348
 IR Inten    --      3.1585                48.6324                51.1419

                     10                     11                     12
                      A                      A                      A
 Frequencies --   1040.6384              1112.9993              1399.3899
 Red. masses --      8.6930                 2.0753                 3.8729
 Frc consts  --      5.5465                 1.5147                 4.4686
 IR Inten    --     16.3214                 0.1513               271.4765

                     13                     14                     15
                      A                      A                      A
 Frequencies --   1509.8411              1620.6565              1839.0784
 Red. masses --      1.1728                 1.2416                 8.0359
 Frc consts  --      1.5753                 1.9213                16.0134
 IR Inten    --    139.0839               155.6598               304.8228

                     16                     17                     18
                      A                      A                      A
 Frequencies --   3453.0140              3621.7971              3757.5778
 Red. masses --      1.0663                 1.0454                 1.1055
 Frc consts  --      7.4906                 8.0793                 9.1965
 IR Inten    --     96.6535                70.7941                73.8761

 - Thermochemistry -
 -------------------
 Temperature   298.150 Kelvin.  Pressure   1.00000 Atm.
 Atom     1 has atomic number  7 and mass  14.00307

 Molecular mass:    77.01129 amu.
 Principal axes and moments of inertia in atomic units:
                           1         2         3
     Eigenvalues --   160.89084 399.90016 560.47024
           X            0.99874  -0.04996   0.00446
           Y            0.04998   0.99874  -0.00355
           Z           -0.00428   0.00377   0.99998
 This molecule is an asymmetric top.
 Rotational symmetry number  1.
 Rotational temperatures (Kelvin)      0.53834     0.21659     0.15454
 Rotational constants (GHZ):          11.21718     4.51298     3.22005
 Zero-point vibrational energy     142648.6 (Joules/Mol)
                                   34.09383 (Kcal/Mol)
 Warning -- explicit consideration of   6 degrees of freedom as
           vibrations may cause significant error
 Vibrational temperatures:    220.04   359.58   487.67   644.88   679.11
          (Kelvin)            715.94  1001.12  1078.93  1278.58  1497.24
                             1601.36  2013.41  2172.32  2331.76  2646.02
                             4968.11  5210.95  5406.31

 Zero-point correction=                           0.054332 (Hartree/Particle)
 Thermal correction to Energy=                    0.059736
 Thermal correction to Enthalpy=                  0.060680
 Thermal correction to Gibbs Free Energy=         0.026139
 Sum of electronic and zero-point Energies=           -320.212272
 Sum of electronic and thermal Energies=              -320.206867
 Sum of electronic and thermal Enthalpies=            -320.205923
 Sum of electronic and thermal Free Energies=         -320.240465

                     E (Thermal)             CV                S
                      KCal/Mol        Cal/Mol-Kelvin    Cal/Mol-Kelvin
 Total                   37.485             18.097             72.700
 Electronic               0.000              0.000              0.000
 Translational            0.889              2.981             38.939
 Rotational               0.889              2.981             25.092
 Vibrational             35.708             12.135              8.668
 Vibration     1          0.619              1.899              2.635
 Vibration     2          0.663              1.763              1.731
 Vibration     3          0.719              1.598              1.217
 Vibration     4          0.807              1.365              0.801
 Vibration     5          0.829              1.312              0.732
 Vibration     6          0.853              1.255              0.664

 Optimization completed.
    -- Stationary point found.
 Normal termination of Gaussian 09 at Thu Sep  8 14:53:25 2022.
