 Gaussian 09, Revision E.01,
 Gaussian 09:  ES64L-G09RevE.01 30-Nov-2015

 ----------------------------
 #P OPT Freq B3LYP/6-31G(d,p)
 ----------------------------

 --------
 Frag_737
 --------
 Symbolic Z-matrix:
 Charge =  0 Multiplicity = 1

 SCF Done:  E(RB3LYP) =  -225.181244801     A.U. after   14 cycles
 SCF Done:  E(RB3LYP) =  -225.181308681     A.U. after   10 cycles
 SCF Done:  E(RB3LYP) =  -225.181315496     A.U. after    9 cycles
 SCF Done:  E(RB3LYP) =  -225.181317363     A.U. after    8 cycles
 Optimization completed.
    -- Stationary point found.
 Normal termination of Gaussian 09 at Thu Sep  8 14:57:37 2022.

 ----------------------------------------------------------------------
 #P Geom=AllCheck Guess=TCheck SCRF=Check GenChk RB3LYP/6-31G(d,p) Freq
 ----------------------------------------------------------------------

 Structure from the checkpoint file:  "B3LYP6-31Gdp.Frag_737.chk"
 --------
 Frag_737
 --------
 Charge =  0 Multiplicity = 1

                         Standard orientation:
 ---------------------------------------------------------------------
 Center     Atomic      Atomic             Coordinates (Angstroms)
 Number     Number       Type             X           Y           Z
 ---------------------------------------------------------------------
      1          7           0        1.778908   -0.070183   -0.091994
      2          6           0        0.461354    0.347214    0.000033
      3          7           0       -0.501795   -0.495743    0.030114
      4          8           0       -1.745362    0.194299   -0.011957
      5          1           0        1.898961   -1.061526    0.080505
      6          1           0        2.438922    0.496457    0.424348
      7          1           0        0.292024    1.425018   -0.017668
      8          1           0       -2.374922   -0.536146    0.041429
 ---------------------------------------------------------------------

 SCF Done:  E(RB3LYP) =  -225.181317363     A.U. after    1 cycles

 The electronic state is 1-A.
 Alpha  occ. eigenvalues --  -19.16720 -14.35597 -14.35092 -10.24474  -1.05347
 Alpha  occ. eigenvalues --   -0.92890  -0.81338  -0.59681  -0.54716  -0.47666
 Alpha  occ. eigenvalues --   -0.46154  -0.41560  -0.39394  -0.32012  -0.26883
 Alpha  occ. eigenvalues --   -0.20994
 Alpha virt. eigenvalues --    0.03322   0.06629   0.10185   0.11865   0.15544
 Alpha virt. eigenvalues --    0.19264   0.30357   0.34854   0.55897   0.58165
 Alpha virt. eigenvalues --    0.63130   0.65715   0.69304   0.72811   0.76174

 Mulliken charges:
               1
     1  N   -0.595158
     2  C    0.302373
     3  N   -0.241114
     4  O   -0.437979
     5  H    0.269119
     6  H    0.264986
     7  H    0.110437
     8  H    0.327337
 Sum of Mulliken charges =  -0.00000

 Dipole moment (field-independent basis, Debye):
    X=              1.4678    Y=             -0.0353    Z=              1.1327  Tot=              1.8544
 Quadrupole moment (field-independent basis, Debye-Ang):
   XX=            -16.5316   YY=            -21.9666   ZZ=            -25.0811
   XY=              2.3700   XZ=              2.5536   YZ=              0.2368

  Exact polarizability:  48.260   3.599  27.003   0.407   0.156  13.762
 Approx polarizability:  71.443   9.001  40.204  -0.767  -0.016  19.051

                      1                      2                      3
                      A                      A                      A
 Frequencies --    255.0870               311.2792               347.6948
 Red. masses --      1.9864                 1.6724                 1.9618
 Frc consts  --      0.0762                 0.0955                 0.1397
 IR Inten    --     39.9421                63.3696                79.1171

                      4                      5                      6
                      A                      A                      A
 Frequencies --    423.3103               591.3027               687.6983
 Red. masses --      1.4790                 4.5821                 1.4149
 Frc consts  --      0.1561                 0.9439                 0.3943
 IR Inten    --     52.6628                10.6999               302.0235

                      7                      8                      9
                      A                      A                      A
 Frequencies --    952.6927               972.1731              1123.1728
 Red. masses --      2.6649                 1.7328                 1.8132
 Frc consts  --      1.4251                 0.9649                 1.3477
 IR Inten    --     39.1603                47.7454                74.2373

                     10                     11                     12
                      A                      A                      A
 Frequencies --   1280.5916              1300.4184              1447.1588
 Red. masses --      1.7336                 1.2569                 1.4704
 Frc consts  --      1.6750                 1.2524                 1.8144
 IR Inten    --     78.3956                 4.9725                10.6667

                     13                     14                     15
                      A                      A                      A
 Frequencies --   1641.8684              1747.6801              3142.7023
 Red. masses --      1.1813                 5.5700                 1.0911
 Frc consts  --      1.8762                10.0238                 6.3492
 IR Inten    --     35.4758               111.1838                14.7914

                     16                     17                     18
                      A                      A                      A
 Frequencies --   3550.1895              3664.0125              3828.5507
 Red. masses --      1.0471                 1.0985                 1.0679
 Frc consts  --      7.7759                 8.6889                 9.2222
 IR Inten    --     12.5548                16.1055                57.9531

 - Thermochemistry -
 -------------------
 Temperature   298.150 Kelvin.  Pressure   1.00000 Atm.
 Atom     1 has atomic number  7 and mass  14.00307

 Molecular mass:    60.03236 amu.
 Principal axes and moments of inertia in atomic units:
                           1         2         3
     Eigenvalues --    34.21242 409.81829 441.83404
           X            0.99992   0.00833   0.00968
           Y           -0.00843   0.99992   0.00988
           Z           -0.00960  -0.00996   0.99990
 This molecule is an asymmetric top.
 Rotational symmetry number  1.
 Rotational temperatures (Kelvin)      2.53165     0.21135     0.19603
 Rotational constants (GHZ):          52.75105     4.40376     4.08466
 Zero-point vibrational energy     163096.4 (Joules/Mol)
                                   38.98097 (Kcal/Mol)
 Warning -- explicit consideration of   5 degrees of freedom as
           vibrations may cause significant error
 Vibrational temperatures:    367.01   447.86   500.25   609.05   850.75
          (Kelvin)            989.44  1370.71  1398.74  1615.99  1842.48
                             1871.01  2082.14  2362.28  2514.52  4521.64
                             5107.92  5271.69  5508.42

 Zero-point correction=                           0.062120 (Hartree/Particle)
 Thermal correction to Energy=                    0.066914
 Thermal correction to Enthalpy=                  0.067858
 Thermal correction to Gibbs Free Energy=         0.035649
 Sum of electronic and zero-point Energies=           -225.119197
 Sum of electronic and thermal Energies=              -225.114404
 Sum of electronic and thermal Enthalpies=            -225.113459
 Sum of electronic and thermal Free Energies=         -225.145668

                     E (Thermal)             CV                S
                      KCal/Mol        Cal/Mol-Kelvin    Cal/Mol-Kelvin
 Total                   41.989             15.844             67.790
 Electronic               0.000              0.000              0.000
 Translational            0.889              2.981             38.197
 Rotational               0.889              2.981             23.342
 Vibrational             40.212              9.882              6.251
 Vibration     1          0.665              1.754              1.695
 Vibration     2          0.700              1.652              1.356
 Vibration     3          0.725              1.580              1.177
 Vibration     4          0.785              1.420              0.881
 Vibration     5          0.949              1.050              0.465

 Optimization completed.
    -- Stationary point found.
 Normal termination of Gaussian 09 at Thu Sep  8 14:57:43 2022.
