 Gaussian 09, Revision E.01,
 Gaussian 09:  ES64L-G09RevE.01 30-Nov-2015

 ----------------------------
 #P OPT Freq B3LYP/6-31G(d,p)
 ----------------------------

 --------
 Frag_660
 --------
 Symbolic Z-matrix:
 Charge =  0 Multiplicity = 1

 SCF Done:  E(RB3LYP) =  -364.252748288     A.U. after   12 cycles
 SCF Done:  E(RB3LYP) =  -364.252802231     A.U. after    9 cycles
 SCF Done:  E(RB3LYP) =  -364.252810116     A.U. after    8 cycles
 SCF Done:  E(RB3LYP) =  -364.252813832     A.U. after    8 cycles
 SCF Done:  E(RB3LYP) =  -364.252816494     A.U. after    8 cycles
 SCF Done:  E(RB3LYP) =  -364.252817845     A.U. after    8 cycles
 SCF Done:  E(RB3LYP) =  -364.252818282     A.U. after    7 cycles
 SCF Done:  E(RB3LYP) =  -364.252818332     A.U. after    6 cycles
 Optimization completed.
    -- Stationary point found.
 Normal termination of Gaussian 09 at Thu Sep  8 15:05:08 2022.

 ----------------------------------------------------------------------
 #P Geom=AllCheck Guess=TCheck SCRF=Check GenChk RB3LYP/6-31G(d,p) Freq
 ----------------------------------------------------------------------

 Structure from the checkpoint file:  "B3LYP6-31Gdp.Frag_660.chk"
 --------
 Frag_660
 --------
 Charge =  0 Multiplicity = 1

                         Standard orientation:
 ---------------------------------------------------------------------
 Center     Atomic      Atomic             Coordinates (Angstroms)
 Number     Number       Type             X           Y           Z
 ---------------------------------------------------------------------
      1          6           0        1.543901    1.207016    0.053853
      2          7           0        0.811093    0.016746   -0.368712
      3          6           0        1.513272   -1.207256    0.004578
      4          6           0       -0.614087    0.003677   -0.048674
      5          6           0       -0.975506   -0.207428    1.426970
      6          8           0       -1.228025   -1.049090   -0.758031
      7          8           0       -1.102925    1.251866   -0.506457
      8          1           0        1.020558    2.102985   -0.275418
      9          1           0        1.694110    1.264258    1.147557
     10          1           0        2.534248    1.189684   -0.412795
     11          1           0        1.735799   -1.277247    1.084537
     12          1           0        0.919416   -2.075685   -0.283581
     13          1           0        2.467282   -1.246459   -0.531345
     14          1           0       -2.062880   -0.201753    1.550311
     15          1           0       -0.606554   -1.168818    1.790915
     16          1           0       -0.550406    0.594131    2.035482
     17          1           0       -0.930029   -0.933508   -1.674304
     18          1           0       -2.057078    1.236934   -0.354826
 ---------------------------------------------------------------------

 SCF Done:  E(RB3LYP) =  -364.252818332     A.U. after    1 cycles

 The electronic state is 1-A.
 Alpha  occ. eigenvalues --  -19.14713 -19.14588 -14.32454 -10.30962 -10.19869
 Alpha  occ. eigenvalues --  -10.19508 -10.17644  -1.06816  -0.99100  -0.90389
 Alpha  occ. eigenvalues --   -0.73578  -0.69902  -0.66040  -0.57109  -0.54374
 Alpha  occ. eigenvalues --   -0.49210  -0.46227  -0.43684  -0.42750  -0.40931
 Alpha  occ. eigenvalues --   -0.39889  -0.39187  -0.37624  -0.37043  -0.35952
 Alpha  occ. eigenvalues --   -0.33238  -0.30359  -0.27384  -0.21498
 Alpha virt. eigenvalues --    0.07332   0.10339   0.11123   0.13947   0.14822
 Alpha virt. eigenvalues --    0.15401   0.16285   0.17622   0.18585   0.19046
 Alpha virt. eigenvalues --    0.20260   0.20580   0.23786   0.25592   0.26453

 Mulliken charges:
               1
     1  C   -0.162722
     2  N   -0.437705
     3  C   -0.167768
     4  C    0.600949
     5  C   -0.321375
     6  O   -0.540225
     7  O   -0.547987
     8  H    0.139582
     9  H    0.077684
    10  H    0.102079
    11  H    0.083216
    12  H    0.122175
    13  H    0.106575
    14  H    0.103669
    15  H    0.116905
    16  H    0.114805
    17  H    0.303331
    18  H    0.306812
 Sum of Mulliken charges =  -0.00000

 Dipole moment (field-independent basis, Debye):
    X=             -0.0211    Y=              0.0217    Z=              0.5718  Tot=              0.5726
 Quadrupole moment (field-independent basis, Debye-Ang):
   XX=            -40.2541   YY=            -45.4968   ZZ=            -42.5052
   XY=             -2.6076   XZ=             -0.0273   YZ=              1.4004

  Exact polarizability:  63.581  -0.508  56.848  -0.549   0.665  53.256
 Approx polarizability:  82.501   0.324  78.678   0.554   0.567  74.196

                      1                      2                      3
                      A                      A                      A
 Frequencies --     94.2621               210.5100               231.0678
 Red. masses --      2.9636                 1.2536                 1.0215
 Frc consts  --      0.0155                 0.0327                 0.0321
 IR Inten    --      1.9876                 0.2751                 0.4905

                      4                      5                      6
                      A                      A                      A
 Frequencies --    263.8843               265.5386               285.6888
 Red. masses --      1.7665                 1.0699                 1.1569
 Frc consts  --      0.0725                 0.0444                 0.0556
 IR Inten    --      6.7066                 1.0316                86.4561

                      7                      8                      9
                      A                      A                      A
 Frequencies --    309.4446               377.3840               389.4810
 Red. masses --      3.4371                 2.5064                 2.5692
 Frc consts  --      0.1939                 0.2103                 0.2296
 IR Inten    --      1.7284                 9.9070                 6.4279

                     10                     11                     12
                      A                      A                      A
 Frequencies --    409.8739               471.7254               535.8856
 Red. masses --      2.4521                 1.5579                 3.2947
 Frc consts  --      0.2427                 0.2043                 0.5575
 IR Inten    --      5.8251                41.0473                34.3762

                     13                     14                     15
                      A                      A                      A
 Frequencies --    545.9075               585.5389               735.0452
 Red. masses --      3.3319                 2.9307                 4.0015
 Frc consts  --      0.5850                 0.5920                 1.2738
 IR Inten    --     13.2984                81.1874                 6.9472

                     16                     17                     18
                      A                      A                      A
 Frequencies --    903.5691               957.4421               994.8433
 Red. masses --      2.8519                 1.9562                 1.9227
 Frc consts  --      1.3719                 1.0566                 1.1212
 IR Inten    --     23.4832                52.4574                69.8697

                     19                     20                     21
                      A                      A                      A
 Frequencies --   1045.2384              1074.9871              1128.3160
 Red. masses --      1.8603                 1.4586                 1.3194
 Frc consts  --      1.1975                 0.9931                 0.9897
 IR Inten    --     58.9048                 8.4962                49.0347

                     22                     23                     24
                      A                      A                      A
 Frequencies --   1134.6595              1182.8578              1197.4883
 Red. masses --      1.8510                 2.7266                 1.6031
 Frc consts  --      1.4041                 2.2477                 1.3544
 IR Inten    --    162.4515                48.9086                42.5023

                     25                     26                     27
                      A                      A                      A
 Frequencies --   1274.0432              1304.1821              1344.8358
 Red. masses --      3.6733                 2.0123                 1.6703
 Frc consts  --      3.5130                 2.0166                 1.7799
 IR Inten    --     77.2148                49.2273                 3.4340

                     28                     29                     30
                      A                      A                      A
 Frequencies --   1395.2001              1437.0740              1447.7030
 Red. masses --      1.4493                 1.5873                 1.1481
 Frc consts  --      1.6622                 1.9314                 1.4178
 IR Inten    --     76.7999                84.6048                 0.9623

                     31                     32                     33
                      A                      A                      A
 Frequencies --   1478.7324              1498.8087              1502.1357
 Red. masses --      1.1731                 1.0575                 1.0505
 Frc consts  --      1.5114                 1.3996                 1.3966
 IR Inten    --     11.3804                 5.6478                 7.3857

                     34                     35                     36
                      A                      A                      A
 Frequencies --   1507.5252              1519.8613              1524.5675
 Red. masses --      1.0541                 1.0535                 1.0619
 Frc consts  --      1.4114                 1.4338                 1.4542
 IR Inten    --      3.4652                 2.2235                12.9185

                     37                     38                     39
                      A                      A                      A
 Frequencies --   1538.1241              2948.1378              2959.0873
 Red. masses --      1.0756                 1.0604                 1.0604
 Frc consts  --      1.4993                 5.4301                 5.4708
 IR Inten    --     11.0824                47.6397               105.7247

                     40                     41                     42
                      A                      A                      A
 Frequencies --   3060.8827              3076.9984              3080.5212
 Red. masses --      1.0368                 1.0791                 1.0781
 Frc consts  --      5.7230                 6.0198                 6.0279
 IR Inten    --     11.4264                19.3770                64.0994

                     43                     44                     45
                      A                      A                      A
 Frequencies --   3132.1496              3150.1943              3152.1594
 Red. masses --      1.1008                 1.0994                 1.1024
 Frc consts  --      6.3625                 6.4281                 6.4539
 IR Inten    --     21.8475                 3.7168                24.5096

                     46                     47                     48
                      A                      A                      A
 Frequencies --   3175.1237              3765.7811              3828.0365
 Red. masses --      1.0959                 1.0644                 1.0657
 Frc consts  --      6.5094                 8.8937                 9.2012
 IR Inten    --      8.8316                18.9140                25.0189

 - Thermochemistry -
 -------------------
 Temperature   298.150 Kelvin.  Pressure   1.00000 Atm.
 Atom     1 has atomic number  6 and mass  12.00000

 Molecular mass:   105.07898 amu.
 Principal axes and moments of inertia in atomic units:
                           1         2         3
     Eigenvalues --   545.65617 752.26564 902.18939
           X            0.99971  -0.01352  -0.02013
           Y            0.01361   0.99990   0.00403
           Z            0.02007  -0.00431   0.99979
 This molecule is an asymmetric top.
 Rotational symmetry number  1.
 Warning -- assumption of classical behavior for rotation
           may cause significant error
 Rotational temperatures (Kelvin)      0.15873     0.11514     0.09600
 Rotational constants (GHZ):           3.30747     2.39907     2.00040
 Zero-point vibrational energy     415298.6 (Joules/Mol)
                                   99.25875 (Kcal/Mol)
 Warning -- explicit consideration of  14 degrees of freedom as
           vibrations may cause significant error
 Vibrational temperatures:    135.62   302.88   332.45   379.67   382.05
          (Kelvin)            411.04   445.22   542.97   560.38   589.72
                              678.71   771.02   785.44   842.46  1057.56
                             1300.03  1377.54  1431.36  1503.86  1546.66
                             1623.39  1632.52  1701.87  1722.92  1833.06
                             1876.42  1934.92  2007.38  2067.63  2082.92
                             2127.56  2156.45  2161.24  2168.99  2186.74
                             2193.51  2213.01  4241.71  4257.46  4403.92
                             4427.11  4432.18  4506.46  4532.42  4535.25
                             4568.29  5418.11  5507.68

 Zero-point correction=                           0.158179 (Hartree/Particle)
 Thermal correction to Energy=                    0.166808
 Thermal correction to Enthalpy=                  0.167752
 Thermal correction to Gibbs Free Energy=         0.126248
 Sum of electronic and zero-point Energies=           -364.094639
 Sum of electronic and thermal Energies=              -364.086010
 Sum of electronic and thermal Enthalpies=            -364.085066
 Sum of electronic and thermal Free Energies=         -364.126570

                     E (Thermal)             CV                S
                      KCal/Mol        Cal/Mol-Kelvin    Cal/Mol-Kelvin
 Total                  104.674             32.385             87.353
 Electronic               0.000              0.000              0.000
 Translational            0.889              2.981             39.866
 Rotational               0.889              2.981             27.407
 Vibrational            102.896             26.423             20.081
 Vibration     1          0.603              1.953              3.570
 Vibration     2          0.643              1.825              2.039
 Vibration     3          0.653              1.794              1.871
 Vibration     4          0.670              1.739              1.636
 Vibration     5          0.671              1.736              1.625
 Vibration     6          0.683              1.700              1.499
 Vibration     7          0.699              1.656              1.365
 Vibration     8          0.748              1.518              1.050
 Vibration     9          0.757              1.493              1.002
 Vibration    10          0.774              1.449              0.927
 Vibration    11          0.829              1.313              0.733
 Vibration    12          0.891              1.171              0.574
 Vibration    13          0.901              1.149              0.553
 Vibration    14          0.943              1.063              0.475

 Optimization completed.
    -- Stationary point found.
 Normal termination of Gaussian 09 at Thu Sep  8 15:05:25 2022.
