 Gaussian 09, Revision E.01,
 Gaussian 09:  ES64L-G09RevE.01 30-Nov-2015

 ----------------------------
 #P OPT Freq B3LYP/6-31G(d,p)
 ----------------------------

 --------
 Frag_549
 --------
 Symbolic Z-matrix:
 Charge =  0 Multiplicity = 1

 SCF Done:  E(RB3LYP) =  -269.153146105     A.U. after   13 cycles
 SCF Done:  E(RB3LYP) =  -269.153177427     A.U. after    9 cycles
 SCF Done:  E(RB3LYP) =  -269.153183445     A.U. after    7 cycles
 SCF Done:  E(RB3LYP) =  -269.153184485     A.U. after    7 cycles
 SCF Done:  E(RB3LYP) =  -269.153184826     A.U. after    7 cycles
 SCF Done:  E(RB3LYP) =  -269.153185091     A.U. after    7 cycles
 SCF Done:  E(RB3LYP) =  -269.153185179     A.U. after    7 cycles
 Optimization completed.
    -- Stationary point found.
 Normal termination of Gaussian 09 at Thu Sep  8 14:58:35 2022.

 ----------------------------------------------------------------------
 #P Geom=AllCheck Guess=TCheck SCRF=Check GenChk RB3LYP/6-31G(d,p) Freq
 ----------------------------------------------------------------------

 Structure from the checkpoint file:  "B3LYP6-31Gdp.Frag_549.chk"
 --------
 Frag_549
 --------
 Charge =  0 Multiplicity = 1

                         Standard orientation:
 ---------------------------------------------------------------------
 Center     Atomic      Atomic             Coordinates (Angstroms)
 Number     Number       Type             X           Y           Z
 ---------------------------------------------------------------------
      1          6           0       -1.772344    0.692438   -0.531800
      2          6           0       -0.654914   -0.335815   -0.345233
      3          7           0       -0.901056   -1.083274    0.903818
      4          7           0        0.668111    0.289119   -0.370357
      5          6           0        1.747581   -0.679095   -0.507302
      6          6           0        0.932530    1.220153    0.724106
      7          1           0       -1.546311    1.340321   -1.381803
      8          1           0       -2.724264    0.186418   -0.725794
      9          1           0       -1.900130    1.307347    0.363296
     10          1           0       -0.665005   -0.995599   -1.230068
     11          1           0       -0.350788   -1.938670    0.917651
     12          1           0       -1.875419   -1.371668    0.950048
     13          1           0        2.685365   -0.154053   -0.718920
     14          1           0        1.918491   -1.300002    0.392897
     15          1           0        1.542125   -1.347759   -1.350300
     16          1           0        0.956175    0.738105    1.713930
     17          1           0        1.899696    1.702873    0.548140
     18          1           0        0.173568    2.005692    0.748058
 ---------------------------------------------------------------------

 SCF Done:  E(RB3LYP) =  -269.153185179     A.U. after    1 cycles

 The electronic state is 1-A.
 Alpha  occ. eigenvalues --  -14.31308 -14.30611 -10.23182 -10.19648 -10.18657
 Alpha  occ. eigenvalues --  -10.17001  -0.92338  -0.84971  -0.72782  -0.69251
 Alpha  occ. eigenvalues --   -0.64184  -0.55343  -0.48504  -0.47971  -0.45884
 Alpha  occ. eigenvalues --   -0.43104  -0.41648  -0.38997  -0.37619  -0.36561
 Alpha  occ. eigenvalues --   -0.35801  -0.34674  -0.33645  -0.23485  -0.20420
 Alpha virt. eigenvalues --    0.07306   0.11790   0.12547   0.13317   0.14939
 Alpha virt. eigenvalues --    0.15854   0.17504   0.17569   0.18468   0.19458
 Alpha virt. eigenvalues --    0.19923   0.21301   0.22809   0.25393   0.27626

 Mulliken charges:
               1
     1  C   -0.326016
     2  C    0.184375
     3  N   -0.594946
     4  N   -0.395738
     5  C   -0.160658
     6  C   -0.152253
     7  H    0.118027
     8  H    0.093835
     9  H    0.116746
    10  H    0.071100
    11  H    0.234293
    12  H    0.232141
    13  H    0.106024
    14  H    0.077826
    15  H    0.098304
    16  H    0.101090
    17  H    0.094760
    18  H    0.101090
 Sum of Mulliken charges =  -0.00000

 Dipole moment (field-independent basis, Debye):
    X=             -0.4640    Y=             -1.2006    Z=             -0.3103  Tot=              1.3241
 Quadrupole moment (field-independent basis, Debye-Ang):
   XX=            -36.6781   YY=            -36.5485   ZZ=            -42.6623
   XY=              0.8672   XZ=              0.5631   YZ=              0.7307

  Exact polarizability:  65.329  -0.177  57.664   0.084   0.376  52.634
 Approx polarizability:  82.131   0.274  77.545  -0.709  -0.296  74.931

                      1                      2                      3
                      A                      A                      A
 Frequencies --     80.4680               200.1043               209.3772
 Red. masses --      2.3019                 1.1441                 1.0770
 Frc consts  --      0.0088                 0.0270                 0.0278
 IR Inten    --      2.7030                 1.9244                33.9968

                      4                      5                      6
                      A                      A                      A
 Frequencies --    233.7218               251.9638               266.7067
 Red. masses --      1.5179                 1.0766                 1.4949
 Frc consts  --      0.0489                 0.0403                 0.0627
 IR Inten    --      2.6280                13.0009                 5.2737

                      7                      8                      9
                      A                      A                      A
 Frequencies --    313.6214               369.7864               433.5108
 Red. masses --      2.3336                 2.4963                 2.1114
 Frc consts  --      0.1352                 0.2011                 0.2338
 IR Inten    --      1.3566                 2.3518                 1.0035

                     10                     11                     12
                      A                      A                      A
 Frequencies --    500.9766               594.8112               765.4125
 Red. masses --      2.8501                 2.8425                 2.4557
 Frc consts  --      0.4214                 0.5925                 0.8477
 IR Inten    --      8.6903                 8.3394                35.8208

                     13                     14                     15
                      A                      A                      A
 Frequencies --    847.2287               911.7843               983.0451
 Red. masses --      1.6565                 1.9062                 1.7021
 Frc consts  --      0.7005                 0.9337                 0.9691
 IR Inten    --     91.6105                 7.0427                10.0017

                     16                     17                     18
                      A                      A                      A
 Frequencies --   1027.2717              1069.8677              1088.5596
 Red. masses --      1.7864                 1.6609                 1.7150
 Frc consts  --      1.1107                 1.1201                 1.1974
 IR Inten    --     25.6717                12.5627                28.3330

                     19                     20                     21
                      A                      A                      A
 Frequencies --   1119.1834              1121.4728              1186.0918
 Red. masses --      1.5629                 1.5364                 1.4750
 Frc consts  --      1.1534                 1.1385                 1.2226
 IR Inten    --     18.2452                15.3179                 8.7106

                     22                     23                     24
                      A                      A                      A
 Frequencies --   1252.4486              1258.5591              1315.9268
 Red. masses --      2.5361                 1.4861                 2.3840
 Frc consts  --      2.3439                 1.3869                 2.4323
 IR Inten    --     23.4706                 8.1308                34.0864

                     25                     26                     27
                      A                      A                      A
 Frequencies --   1381.9937              1409.5797              1438.0611
 Red. masses --      1.2764                 1.2482                 1.4726
 Frc consts  --      1.4364                 1.4612                 1.7943
 IR Inten    --     17.4173                 7.7821                33.4568

                     28                     29                     30
                      A                      A                      A
 Frequencies --   1447.8213              1480.4763              1490.3968
 Red. masses --      1.1537                 1.1783                 1.0499
 Frc consts  --      1.4249                 1.5217                 1.3740
 IR Inten    --      0.5212                 7.6998                 6.6385

                     31                     32                     33
                      A                      A                      A
 Frequencies --   1502.6585              1506.6213              1520.3288
 Red. masses --      1.0528                 1.0708                 1.0528
 Frc consts  --      1.4006                 1.4320                 1.4338
 IR Inten    --      5.8294                 4.2658                 3.5227

                     34                     35                     36
                      A                      A                      A
 Frequencies --   1522.6696              1533.6286              1663.0248
 Red. masses --      1.0575                 1.0521                 1.0950
 Frc consts  --      1.4446                 1.4579                 1.7842
 IR Inten    --      3.1246                 8.1295                35.4716

                     37                     38                     39
                      A                      A                      A
 Frequencies --   2932.1864              2956.2068              2996.1874
 Red. masses --      1.0605                 1.0835                 1.0504
 Frc consts  --      5.3720                 5.5787                 5.5560
 IR Inten    --     87.1504                72.5107                59.7164

                     40                     41                     42
                      A                      A                      A
 Frequencies --   3052.3518              3060.0279              3079.3639
 Red. masses --      1.0377                 1.0711                 1.0866
 Frc consts  --      5.6965                 5.9091                 6.0709
 IR Inten    --     18.4222                40.8018                38.3901

                     43                     44                     45
                      A                      A                      A
 Frequencies --   3104.6724              3118.4390              3127.6308
 Red. masses --      1.1032                 1.1005                 1.0987
 Frc consts  --      6.2653                 6.3054                 6.3321
 IR Inten    --     31.3975                40.8379                26.8345

                     46                     47                     48
                      A                      A                      A
 Frequencies --   3147.8212              3492.9259              3576.8137
 Red. masses --      1.1031                 1.0495                 1.0926
 Frc consts  --      6.4402                 7.5443                 8.2356
 IR Inten    --     20.0862                 1.2070                 0.5549

 - Thermochemistry -
 -------------------
 Temperature   298.150 Kelvin.  Pressure   1.00000 Atm.
 Atom     1 has atomic number  6 and mass  12.00000

 Molecular mass:    88.10005 amu.
 Principal axes and moments of inertia in atomic units:
                           1         2         3
     Eigenvalues --   389.76450 653.05894 759.63298
           X            0.99954  -0.02618   0.01518
           Y            0.02527   0.99804   0.05733
           Z           -0.01665  -0.05692   0.99824
 This molecule is an asymmetric top.
 Rotational symmetry number  1.
 Rotational temperatures (Kelvin)      0.22222     0.13263     0.11402
 Rotational constants (GHZ):           4.63034     2.76352     2.37581
 Zero-point vibrational energy     436300.7 (Joules/Mol)
                                  104.27838 (Kcal/Mol)
 Warning -- explicit consideration of  11 degrees of freedom as
           vibrations may cause significant error
 Vibrational temperatures:    115.78   287.91   301.25   336.27   362.52
          (Kelvin)            383.73   451.23   532.04   623.72   720.79
                              855.80  1101.26  1218.97  1311.85  1414.38
                             1478.01  1539.30  1566.19  1610.25  1613.55
                             1706.52  1801.99  1810.78  1893.32  1988.38
                             2028.07  2069.05  2083.09  2130.07  2144.35
                             2161.99  2167.69  2187.41  2190.78  2206.55
                             2392.72  4218.76  4253.32  4310.84  4391.65
                             4402.69  4430.51  4466.93  4486.73  4499.96
                             4529.01  5025.53  5146.23

 Zero-point correction=                           0.166178 (Hartree/Particle)
 Thermal correction to Energy=                    0.174252
 Thermal correction to Enthalpy=                  0.175197
 Thermal correction to Gibbs Free Energy=         0.134812
 Sum of electronic and zero-point Energies=           -268.987007
 Sum of electronic and thermal Energies=              -268.978933
 Sum of electronic and thermal Enthalpies=            -268.977989
 Sum of electronic and thermal Free Energies=         -269.018373

                     E (Thermal)             CV                S
                      KCal/Mol        Cal/Mol-Kelvin    Cal/Mol-Kelvin
 Total                  109.345             29.029             84.997
 Electronic               0.000              0.000              0.000
 Translational            0.889              2.981             39.340
 Rotational               0.889              2.981             26.761
 Vibrational            107.568             23.067             18.895
 Vibration     1          0.600              1.962              3.879
 Vibration     2          0.638              1.840              2.132
 Vibration     3          0.642              1.826              2.049
 Vibration     4          0.654              1.789              1.850
 Vibration     5          0.664              1.759              1.717
 Vibration     6          0.672              1.734              1.617
 Vibration     7          0.701              1.648              1.343
 Vibration     8          0.742              1.534              1.081
 Vibration     9          0.794              1.397              0.847
 Vibration    10          0.856              1.248              0.656
 Vibration    11          0.953              1.043              0.459

 Optimization completed.
    -- Stationary point found.
 Normal termination of Gaussian 09 at Thu Sep  8 14:58:51 2022.
