 Gaussian 09, Revision D.01,
 Gaussian 09:  ES64L-G09RevD.01 24-Apr-2013

 -------------------------
 #P OPT Freq B3LYP/6-31G**
 -------------------------

 -------
 Frag_38
 -------
 Symbolic Z-matrix:
 Charge =  0 Multiplicity = 1

 SCF Done:  E(RB3LYP) =  -249.668124545     A.U. after   12 cycles
 Optimization completed.
    -- Stationary point found.
 Normal termination of Gaussian 09 at Thu Jul 22 21:55:40 2021.

 ----------------------------------------------------------------------
 #P Geom=AllCheck Guess=TCheck SCRF=Check GenChk RB3LYP/6-31G(d,p) Freq
 ----------------------------------------------------------------------

 Structure from the checkpoint file:  "/vol2/users/liuj201281/HOFBenchmark/IsodesmicSplit/Sample60/Ring26/Running/Gau-362586.chk"
 -------
 Frag_38
 -------
 Charge =  0 Multiplicity = 1

                         Standard orientation:
 ---------------------------------------------------------------------
 Center     Atomic      Atomic             Coordinates (Angstroms)
 Number     Number       Type             X           Y           Z
 ---------------------------------------------------------------------
      1          6           0        0.584001    1.462381    0.081710
      2          6           0        0.426179    0.001284   -0.332890
      3          6           0        1.631565   -0.856935    0.034910
      4          8           0       -0.687731   -0.615399    0.334610
      5          7           0       -1.919222   -0.048180   -0.160090
      6          1           0       -0.325290    2.021396   -0.153190
      7          1           0        0.775202    1.536478    1.158010
      8          1           0        1.419909    1.929568   -0.449890
      9          1           0        0.249578   -0.049313   -1.417190
     10          1           0        2.533371   -0.478749   -0.455890
     11          1           0        1.796766   -0.840737    1.117210
     12          1           0        1.475949   -1.894832   -0.272490
     13          1           0       -2.396417    0.264328    0.687510
     14          1           0       -2.443135   -0.868072   -0.472690
 ---------------------------------------------------------------------

 SCF Done:  E(RB3LYP) =  -249.668124545     A.U. after    1 cycles

 The electronic state is 1-A.
 Alpha  occ. eigenvalues --  -19.15975 -14.36379 -10.22541 -10.17038 -10.16489
 Alpha  occ. eigenvalues --   -1.04516  -0.82521  -0.73775  -0.68108  -0.56657
 Alpha  occ. eigenvalues --   -0.50071  -0.48629  -0.44058  -0.43135  -0.38288
 Alpha  occ. eigenvalues --   -0.37708  -0.37031  -0.34572  -0.32831  -0.25379
 Alpha  occ. eigenvalues --   -0.24895
 Alpha virt. eigenvalues --    0.08201   0.09432   0.12627   0.15134   0.15374
 Alpha virt. eigenvalues --    0.16058   0.16857   0.18289   0.19874   0.20019
 Alpha virt. eigenvalues --    0.22286   0.24852   0.27339   0.50378   0.52761

 Mulliken charges:
               1
     1  C   -0.324078
     2  C    0.218221
     3  C   -0.323188
     4  O   -0.445165
     5  N   -0.361861
     6  H    0.119777
     7  H    0.100550
     8  H    0.095517
     9  H    0.080339
    10  H    0.102317
    11  H    0.111079
    12  H    0.110882
    13  H    0.257938
    14  H    0.257671
 Sum of Mulliken charges =   0.00000

 Dipole moment (field-independent basis, Debye):
    X=             -0.5661    Y=             -0.0810    Z=              0.0639  Tot=              0.5755
 Quadrupole moment (field-independent basis, Debye-Ang):
   XX=            -26.6579   YY=            -32.6667   ZZ=            -32.3214
   XY=              1.4621   XZ=             -1.6217   YZ=              1.5967

  Exact polarizability:  54.142  -0.010  43.272  -0.283   1.395  39.380
 Approx polarizability:  66.818  -0.071  55.850  -0.011   0.644  56.248

                      1                      2                      3
                      A                      A                      A
 Frequencies --    132.3897               194.0035               219.4359
 Red. masses --      3.7381                 1.0544                 1.0317
 Frc consts  --      0.0386                 0.0234                 0.0293
 IR Inten    --      0.3697                43.7338                 1.9609

                      4                      5                      6
                      A                      A                      A
 Frequencies --    254.6097               297.7707               348.9309
 Red. masses --      1.1361                 2.6116                 2.2442
 Frc consts  --      0.0434                 0.1364                 0.1610
 IR Inten    --      2.0314                 6.3254                 0.4933

                      7                      8                      9
                      A                      A                      A
 Frequencies --    464.3692               512.2731               817.1530
 Red. masses --      2.5165                 3.4147                 2.5007
 Frc consts  --      0.3197                 0.5280                 0.9838
 IR Inten    --      6.2854                 6.9306                 8.1329

                     10                     11                     12
                      A                      A                      A
 Frequencies --    906.2203               930.5742               950.2257
 Red. masses --      2.8529                 1.3308                 1.9454
 Frc consts  --      1.3804                 0.6790                 1.0350
 IR Inten    --      1.5656                 3.8575                27.1896

                     13                     14                     15
                      A                      A                      A
 Frequencies --    955.1941              1145.0916              1157.7219
 Red. masses --      1.8948                 1.7076                 1.8694
 Frc consts  --      1.0186                 1.3192                 1.4763
 IR Inten    --      7.0453                24.5539                35.0681

                     16                     17                     18
                      A                      A                      A
 Frequencies --   1201.4765              1245.6923              1312.5727
 Red. masses --      1.9113                 1.6917                 1.1131
 Frc consts  --      1.6256                 1.5467                 1.1299
 IR Inten    --     14.4709                55.7411                 1.3069

                     19                     20                     21
                      A                      A                      A
 Frequencies --   1362.6046              1386.5230              1413.1238
 Red. masses --      1.3693                 1.2071                 1.4018
 Frc consts  --      1.4980                 1.3673                 1.6493
 IR Inten    --     10.1038                11.0119                22.8601

                     22                     23                     24
                      A                      A                      A
 Frequencies --   1425.0333              1494.6687              1501.8248
 Red. masses --      1.2772                 1.0562                 1.0469
 Frc consts  --      1.5281                 1.3903                 1.3913
 IR Inten    --     10.8439                 0.7270                 1.8364

                     25                     26                     27
                      A                      A                      A
 Frequencies --   1508.7279              1527.3863              1660.6129
 Red. masses --      1.0478                 1.0520                 1.0672
 Frc consts  --      1.4053                 1.4460                 1.7340
 IR Inten    --      1.7988                 5.6136                12.8778

                     28                     29                     30
                      A                      A                      A
 Frequencies --   3015.1549              3043.2648              3051.4696
 Red. masses --      1.0848                 1.0360                 1.0354
 Frc consts  --      5.8106                 5.6533                 5.6802
 IR Inten    --     36.0305                18.4098                17.7556

                     31                     32                     33
                      A                      A                      A
 Frequencies --   3112.6389              3125.7208              3131.9752
 Red. masses --      1.1025                 1.1021                 1.1030
 Frc consts  --      6.2936                 6.3439                 6.3748
 IR Inten    --     16.9654                45.2448                25.7236

                     34                     35                     36
                      A                      A                      A
 Frequencies --   3135.8713              3423.6344              3511.2541
 Red. masses --      1.1013                 1.0477                 1.0957
 Frc consts  --      6.3806                 7.2356                 7.9591
 IR Inten    --     20.5019                 3.7146                 0.4299

 - Thermochemistry -
 -------------------
 Temperature   298.150 Kelvin.  Pressure   1.00000 Atm.
 Atom     1 has atomic number  6 and mass  12.00000

 Molecular mass:    75.06841 amu.
 Principal axes and moments of inertia in atomic units:
                           1         2         3
     Eigenvalues --   234.21707 475.54968 642.65180
           X            0.99995  -0.01030  -0.00099
           Y            0.01032   0.99970   0.02231
           Z            0.00076  -0.02232   0.99975
 This molecule is an asymmetric top.
 Rotational symmetry number  1.
 Rotational temperatures (Kelvin)      0.36980     0.18213     0.13478
 Rotational constants (GHZ):           7.70542     3.79506     2.80827
 Zero-point vibrational energy     328238.5 (Joules/Mol)
                                   78.45089 (Kcal/Mol)
 Warning -- explicit consideration of   8 degrees of freedom as
           vibrations may cause significant error
 Vibrational temperatures:    190.48   279.13   315.72   366.33   428.43
          (Kelvin)            502.03   668.12   737.05  1175.70  1303.85
                             1338.89  1367.16  1374.31  1647.53  1665.70
                             1728.65  1792.27  1888.50  1960.48  1994.89
                             2033.17  2050.30  2150.49  2160.79  2170.72
                             2197.57  2389.25  4338.13  4378.57  4390.38
                             4478.39  4497.21  4506.21  4511.81  4925.84
                             5051.91

 Zero-point correction=                           0.125019 (Hartree/Particle)
 Thermal correction to Energy=                    0.131757
 Thermal correction to Enthalpy=                  0.132701
 Thermal correction to Gibbs Free Energy=         0.095456
 Sum of electronic and zero-point Energies=           -249.543105
 Sum of electronic and thermal Energies=              -249.536368
 Sum of electronic and thermal Enthalpies=            -249.535424
 Sum of electronic and thermal Free Energies=         -249.572669

                     E (Thermal)             CV                S
                      KCal/Mol        Cal/Mol-Kelvin    Cal/Mol-Kelvin
 Total                   82.679             23.307             78.388
 Electronic               0.000              0.000              0.000
 Translational            0.889              2.981             38.863
 Rotational               0.889              2.981             25.774
 Vibrational             80.901             17.345             13.751
 Vibration     1          0.613              1.921              2.911
 Vibration     2          0.635              1.848              2.189
 Vibration     3          0.647              1.811              1.964
 Vibration     4          0.665              1.755              1.698
 Vibration     5          0.691              1.678              1.429
 Vibration     6          0.726              1.577              1.171
 Vibration     7          0.822              1.329              0.753
 Vibration     8          0.867              1.223              0.628

 Optimization completed.
    -- Stationary point found.
 Normal termination of Gaussian 09 at Thu Jul 22 21:56:36 2021.
