 Gaussian 09, Revision E.01,
 Gaussian 09:  ES64L-G09RevE.01 30-Nov-2015

 --------------------------------
 #P OPT=calcfc Freq B3LYP/6-31G**
 --------------------------------

 --------
 Frag_146
 --------
 Symbolic Z-matrix:
 Charge =  0 Multiplicity = 1

 SCF Done:  E(RB3LYP) =  -250.679755210     A.U. after   13 cycles
 SCF Done:  E(RB3LYP) =  -250.689974553     A.U. after   12 cycles
 SCF Done:  E(RB3LYP) =  -250.692283141     A.U. after   12 cycles
 SCF Done:  E(RB3LYP) =  -250.692240933     A.U. after   11 cycles
 SCF Done:  E(RB3LYP) =  -250.692397960     A.U. after    9 cycles
 SCF Done:  E(RB3LYP) =  -250.692644226     A.U. after   12 cycles
 SCF Done:  E(RB3LYP) =  -250.692095500     A.U. after   12 cycles
 SCF Done:  E(RB3LYP) =  -250.693044100     A.U. after    9 cycles
 SCF Done:  E(RB3LYP) =  -250.693138634     A.U. after   11 cycles
 SCF Done:  E(RB3LYP) =  -250.693168273     A.U. after   10 cycles
 SCF Done:  E(RB3LYP) =  -250.693173974     A.U. after    9 cycles
 SCF Done:  E(RB3LYP) =  -250.693174159     A.U. after    7 cycles
 Optimization completed.
    -- Stationary point found.
 Normal termination of Gaussian 09 at Sat Aug 21 02:19:15 2021.

 ----------------------------------------------------------------------
 #P Geom=AllCheck Guess=TCheck SCRF=Check GenChk RB3LYP/6-31G(d,p) Freq
 ----------------------------------------------------------------------

 Structure from the checkpoint file:  "/public/home/users/caep010/.cache/gau_scr/Gau-77027.chk"
 --------
 Frag_146
 --------
 Charge =  0 Multiplicity = 1

                         Standard orientation:
 ---------------------------------------------------------------------
 Center     Atomic      Atomic             Coordinates (Angstroms)
 Number     Number       Type             X           Y           Z
 ---------------------------------------------------------------------
      1          6           0        2.199205   -0.011891    0.010577
      2          6           0        0.858105   -0.003110    0.018189
      3          6           0       -0.042412    1.215571   -0.131885
      4          6           0       -1.450463    0.687985    0.209840
      5          6           0       -1.362608   -0.794720   -0.186899
      6          7           0        0.018428   -1.110732    0.162168
      7          1           0        2.768948   -0.932175    0.091124
      8          1           0        2.755178    0.914392   -0.066524
      9          1           0       -0.005552    1.564616   -1.171524
     10          1           0        0.275650    2.048213    0.500819
     11          1           0       -1.633274    0.766776    1.286223
     12          1           0       -2.251194    1.217662   -0.312289
     13          1           0       -1.571915   -0.921555   -1.263086
     14          1           0       -2.064301   -1.427385    0.367028
     15          1           0        0.386503   -2.018431   -0.085883
 ---------------------------------------------------------------------

 SCF Done:  E(RB3LYP) =  -250.693174159     A.U. after    1 cycles

 The electronic state is 1-A.
 Alpha  occ. eigenvalues --  -14.33221 -10.21559 -10.20837 -10.18721 -10.18532
 Alpha  occ. eigenvalues --  -10.14056  -0.93100  -0.76695  -0.74695  -0.65089
 Alpha  occ. eigenvalues --   -0.59168  -0.55993  -0.48953  -0.47510  -0.42609
 Alpha  occ. eigenvalues --   -0.40759  -0.38643  -0.38220  -0.36053  -0.34736
 Alpha  occ. eigenvalues --   -0.33180  -0.28837  -0.18299
 Alpha virt. eigenvalues --    0.05245   0.08857   0.11705   0.12787   0.14206
 Alpha virt. eigenvalues --    0.15554   0.16416   0.17601   0.19148   0.20664
 Alpha virt. eigenvalues --    0.21833   0.22943   0.25543   0.28552   0.35852

 Mulliken charges:
               1
     1  C   -0.353779
     2  C    0.359948
     3  C   -0.249849
     4  C   -0.206051
     5  C   -0.031432
     6  N   -0.550575
     7  H    0.068317
     8  H    0.077921
     9  H    0.118160
    10  H    0.115923
    11  H    0.116857
    12  H    0.098018
    13  H    0.090991
    14  H    0.100988
    15  H    0.244561
 Sum of Mulliken charges =  -0.00000

 Dipole moment (field-independent basis, Debye):
    X=             -1.5150    Y=             -0.3562    Z=             -0.6547  Tot=              1.6884
 Quadrupole moment (field-independent basis, Debye-Ang):
   XX=            -38.3958   YY=            -33.4288   ZZ=            -39.1888
   XY=             -0.2929   XZ=             -0.0908   YZ=              0.7927

  Exact polarizability:  77.981   2.479  56.314   0.732  -0.465  39.690
 Approx polarizability: 107.501   5.974  76.923   0.353  -1.876  57.987

                      1                      2                      3
                      A                      A                      A
 Frequencies --    114.2525               239.6444               372.8124
 Red. masses --      2.5404                 1.8066                 2.2718
 Frc consts  --      0.0195                 0.0611                 0.1860
 IR Inten    --      0.6629                 5.0584                 1.5780

                      4                      5                      6
                      A                      A                      A
 Frequencies --    463.3804               502.7889               602.9421
 Red. masses --      1.2889                 1.9981                 2.4848
 Frc consts  --      0.1631                 0.2976                 0.5322
 IR Inten    --    108.6173                15.7649                 2.3563

                      7                      8                      9
                      A                      A                      A
 Frequencies --    685.0013               716.0276               767.4530
 Red. masses --      1.7121                 1.4730                 1.3725
 Frc consts  --      0.4733                 0.4450                 0.4763
 IR Inten    --      7.7213                 9.8912                59.4261

                     10                     11                     12
                      A                      A                      A
 Frequencies --    830.7273               894.8768               911.1909
 Red. masses --      2.1851                 2.5179                 1.6473
 Frc consts  --      0.8885                 1.1880                 0.8058
 IR Inten    --      8.9746                 3.8520                 1.3417

                     13                     14                     15
                      A                      A                      A
 Frequencies --    930.4657               942.1382              1019.2013
 Red. masses --      2.1901                 1.7210                 1.6538
 Frc consts  --      1.1171                 0.9000                 1.0121
 IR Inten    --      2.3326                 5.8648                 1.0414

                     16                     17                     18
                      A                      A                      A
 Frequencies --   1094.0746              1101.7319              1185.2679
 Red. masses --      1.6668                 2.0296                 1.2539
 Frc consts  --      1.1755                 1.4515                 1.0378
 IR Inten    --      5.6236                21.4119                 7.4418

                     19                     20                     21
                      A                      A                      A
 Frequencies --   1205.1829              1252.5005              1295.2145
 Red. masses --      1.3508                 1.2662                 1.9773
 Frc consts  --      1.1560                 1.1703                 1.9543
 IR Inten    --      0.3158                 1.4991                61.0940

                     22                     23                     24
                      A                      A                      A
 Frequencies --   1314.5755              1346.6808              1376.0749
 Red. masses --      1.5447                 1.2832                 1.6811
 Frc consts  --      1.5728                 1.3711                 1.8755
 IR Inten    --     30.8456                17.6022                 1.5792

                     25                     26                     27
                      A                      A                      A
 Frequencies --   1412.5107              1485.1133              1493.6494
 Red. masses --      1.4418                 1.2789                 1.1241
 Frc consts  --      1.6948                 1.6619                 1.4776
 IR Inten    --      3.5428                13.6271                 2.9488

                     28                     29                     30
                      A                      A                      A
 Frequencies --   1510.7225              1543.6851              1733.3593
 Red. masses --      1.1090                 1.0982                 6.0643
 Frc consts  --      1.4913                 1.5419                10.7351
 IR Inten    --      3.0998                 5.3031               169.4786

                     31                     32                     33
                      A                      A                      A
 Frequencies --   2964.4027              3045.8613              3067.2955
 Red. masses --      1.0734                 1.0693                 1.0706
 Frc consts  --      5.5578                 5.8447                 5.9346
 IR Inten    --     99.5426                19.7351                12.5566

                     34                     35                     36
                      A                      A                      A
 Frequencies --   3079.5499              3110.8573              3125.9051
 Red. masses --      1.0822                 1.0952                 1.1058
 Frc consts  --      6.0467                 6.2445                 6.3664
 IR Inten    --     63.2857                16.8986                36.2419

                     37                     38                     39
                      A                      A                      A
 Frequencies --   3167.4188              3255.4404              3621.0438
 Red. masses --      1.0605                 1.1153                 1.0766
 Frc consts  --      6.2687                 6.9641                 8.3174
 IR Inten    --      5.0004                13.8676                 8.0689

 - Thermochemistry -
 -------------------
 Temperature   298.150 Kelvin.  Pressure   1.00000 Atm.
 Atom     1 has atomic number  6 and mass  12.00000

 Molecular mass:    83.07350 amu.
 Principal axes and moments of inertia in atomic units:
                           1         2         3
     Eigenvalues --   258.74600 540.22441 751.21254
           X            1.00000   0.00121   0.00016
           Y           -0.00121   0.99997   0.00768
           Z           -0.00015  -0.00768   0.99997
 This molecule is an asymmetric top.
 Rotational symmetry number  1.
 Rotational temperatures (Kelvin)      0.33474     0.16033     0.11530
 Rotational constants (GHZ):           6.97495     3.34073     2.40244
 Zero-point vibrational energy     351588.6 (Joules/Mol)
                                   84.03169 (Kcal/Mol)
 Warning -- explicit consideration of   6 degrees of freedom as
           vibrations may cause significant error
 Vibrational temperatures:    164.38   344.79   536.39   666.70   723.40
          (Kelvin)            867.50   985.56  1030.20  1104.19  1195.23
                             1287.53  1311.00  1338.73  1355.53  1466.40
                             1574.13  1585.14  1705.33  1733.99  1802.07
                             1863.52  1891.38  1937.57  1979.86  2032.29
                             2136.74  2149.03  2173.59  2221.02  2493.91
                             4265.11  4382.31  4413.15  4430.78  4475.82
                             4497.47  4557.20  4683.85  5209.87

 Zero-point correction=                           0.133913 (Hartree/Particle)
 Thermal correction to Energy=                    0.139708
 Thermal correction to Enthalpy=                  0.140653
 Thermal correction to Gibbs Free Energy=         0.104883
 Sum of electronic and zero-point Energies=           -250.559261
 Sum of electronic and thermal Energies=              -250.553466
 Sum of electronic and thermal Enthalpies=            -250.552522
 Sum of electronic and thermal Free Energies=         -250.588291

                     E (Thermal)             CV                S
                      KCal/Mol        Cal/Mol-Kelvin    Cal/Mol-Kelvin
 Total                   87.668             22.138             75.283
 Electronic               0.000              0.000              0.000
 Translational            0.889              2.981             39.165
 Rotational               0.889              2.981             26.154
 Vibrational             85.891             16.176              9.963
 Vibration     1          0.607              1.938              3.195
 Vibration     2          0.657              1.780              1.806
 Vibration     3          0.744              1.528              1.068
 Vibration     4          0.821              1.331              0.756
 Vibration     5          0.858              1.244              0.651
 Vibration     6          0.961              1.026              0.445

 Optimization completed.
    -- Stationary point found.
 Normal termination of Gaussian 09 at Sat Aug 21 02:19:28 2021.
