 Gaussian 09, Revision E.01,
 Gaussian 09:  ES64L-G09RevE.01 30-Nov-2015

 ----------------------------
 #P OPT Freq B3LYP/6-31G(d,p)
 ----------------------------

 ---------
 Frag_1126
 ---------
 Symbolic Z-matrix:
 Charge =  0 Multiplicity = 1

 SCF Done:  E(RB3LYP) =  -265.704534611     A.U. after   13 cycles
 SCF Done:  E(RB3LYP) =  -265.704578269     A.U. after    9 cycles
 SCF Done:  E(RB3LYP) =  -265.704584813     A.U. after    8 cycles
 SCF Done:  E(RB3LYP) =  -265.704586120     A.U. after    8 cycles
 Optimization completed.
    -- Stationary point found.
 Normal termination of Gaussian 09 at Thu Sep  8 14:46:37 2022.

 ----------------------------------------------------------------------
 #P Geom=AllCheck Guess=TCheck SCRF=Check GenChk RB3LYP/6-31G(d,p) Freq
 ----------------------------------------------------------------------

 Structure from the checkpoint file:  "B3LYP6-31Gdp.Frag_1126.chk"
 ---------
 Frag_1126
 ---------
 Charge =  0 Multiplicity = 1

                         Standard orientation:
 ---------------------------------------------------------------------
 Center     Atomic      Atomic             Coordinates (Angstroms)
 Number     Number       Type             X           Y           Z
 ---------------------------------------------------------------------
      1          6           0        0.616392    1.424007    0.090911
      2          6           0        0.444687   -0.028691   -0.347150
      3          7           0        1.648378   -0.788535   -0.066396
      4          7           0       -0.726770   -0.707175    0.264226
      5          8           0       -1.917368    0.058276   -0.055304
      6          1           0       -0.303383    1.982670   -0.093194
      7          1           0        0.840296    1.476469    1.165037
      8          1           0        1.440799    1.894852   -0.451215
      9          1           0        0.259521   -0.061263   -1.427663
     10          1           0        1.897412   -0.707544    0.917774
     11          1           0        1.480069   -1.774631   -0.253307
     12          1           0       -0.645908   -0.590730    1.278993
     13          1           0       -2.447591   -0.587955   -0.541369
 ---------------------------------------------------------------------

 SCF Done:  E(RB3LYP) =  -265.704586120     A.U. after    1 cycles

 The electronic state is 1-A.
 Alpha  occ. eigenvalues --  -19.16491 -14.36401 -14.31706 -10.23510 -10.17090
 Alpha  occ. eigenvalues --   -1.04477  -0.90194  -0.79596  -0.71427  -0.60186
 Alpha  occ. eigenvalues --   -0.50624  -0.48706  -0.46993  -0.44066  -0.41944
 Alpha  occ. eigenvalues --   -0.38097  -0.36654  -0.34989  -0.29104  -0.24468
 Alpha  occ. eigenvalues --   -0.23877
 Alpha virt. eigenvalues --    0.07307   0.08149   0.11866   0.13255   0.14592
 Alpha virt. eigenvalues --    0.16128   0.17465   0.18618   0.19173   0.23888
 Alpha virt. eigenvalues --    0.25310   0.29334   0.53706   0.54216   0.55366

 Mulliken charges:
               1
     1  C   -0.315684
     2  C    0.175473
     3  N   -0.584011
     4  N   -0.301058
     5  O   -0.457702
     6  H    0.132657
     7  H    0.084336
     8  H    0.118240
     9  H    0.105000
    10  H    0.231204
    11  H    0.244489
    12  H    0.239667
    13  H    0.327389
 Sum of Mulliken charges =  -0.00000

 Dipole moment (field-independent basis, Debye):
    X=             -0.3196    Y=             -0.8457    Z=              0.7040  Tot=              1.1458
 Quadrupole moment (field-independent basis, Debye-Ang):
   XX=            -32.9417   YY=            -30.6998   ZZ=            -28.6437
   XY=              1.3409   XZ=              3.8767   YZ=             -0.2056

  Exact polarizability:  47.325  -0.852  39.751   2.926   0.180  37.717
 Approx polarizability:  62.814  -2.840  51.739   4.513   0.254  54.082

                      1                      2                      3
                      A                      A                      A
 Frequencies --    142.3579               249.5681               269.6617
 Red. masses --      3.3912                 1.1761                 2.8033
 Frc consts  --      0.0405                 0.0432                 0.1201
 IR Inten    --      1.8266                 1.5225                 8.2675

                      4                      5                      6
                      A                      A                      A
 Frequencies --    328.4311               339.8571               390.6118
 Red. masses --      1.0489                 1.1108                 2.6086
 Frc consts  --      0.0667                 0.0756                 0.2345
 IR Inten    --     42.5226                81.3807                10.2254

                      7                      8                      9
                      A                      A                      A
 Frequencies --    472.7377               520.6589               821.8223
 Red. masses --      2.6506                 2.7128                 2.3883
 Frc consts  --      0.3490                 0.4333                 0.9504
 IR Inten    --     16.1639                12.0506                59.5750

                     10                     11                     12
                      A                      A                      A
 Frequencies --    869.4152               918.0958               955.4678
 Red. masses --      1.6769                 3.3161                 1.9950
 Frc consts  --      0.7468                 1.6468                 1.0731
 IR Inten    --    162.1446                64.3439                10.6492

                     13                     14                     15
                      A                      A                      A
 Frequencies --   1003.0235              1030.9789              1175.5261
 Red. masses --      1.3691                 1.5579                 2.1192
 Frc consts  --      0.8115                 0.9756                 1.7254
 IR Inten    --     24.2677                47.3766                11.8443

                     16                     17                     18
                      A                      A                      A
 Frequencies --   1184.1803              1273.1720              1327.9260
 Red. masses --      1.9187                 1.6042                 1.2216
 Frc consts  --      1.5852                 1.5321                 1.2692
 IR Inten    --     61.4389                 1.1368                17.5639

                     19                     20                     21
                      A                      A                      A
 Frequencies --   1384.5973              1403.1574              1427.9559
 Red. masses --      1.1740                 1.2420                 1.4618
 Frc consts  --      1.3261                 1.4408                 1.7562
 IR Inten    --     31.5099                 4.7428                24.2391

                     22                     23                     24
                      A                      A                      A
 Frequencies --   1479.5124              1503.1325              1513.7645
 Red. masses --      1.1091                 1.0536                 1.0525
 Frc consts  --      1.4304                 1.4026                 1.4210
 IR Inten    --      6.6972                 2.4956                 8.6587

                     25                     26                     27
                      A                      A                      A
 Frequencies --   1670.4445              3031.2399              3056.7755
 Red. masses --      1.0976                 1.0482                 1.0828
 Frc consts  --      1.8045                 5.6748                 5.9612
 IR Inten    --     28.9272                14.5546                34.0837

                     28                     29                     30
                      A                      A                      A
 Frequencies --   3114.9533              3154.4138              3414.3824
 Red. masses --      1.0913                 1.1026                 1.0753
 Frc consts  --      6.2389                 6.4639                 7.3857
 IR Inten    --     31.1351                11.2271                 4.8701

                     31                     32                     33
                      A                      A                      A
 Frequencies --   3482.9551              3573.0402              3801.7151
 Red. masses --      1.0487                 1.0927                 1.0684
 Frc consts  --      7.4957                 8.2191                 9.0976
 IR Inten    --      0.5979                 0.3953                29.8847

 - Thermochemistry -
 -------------------
 Temperature   298.150 Kelvin.  Pressure   1.00000 Atm.
 Atom     1 has atomic number  6 and mass  12.00000

 Molecular mass:    76.06366 amu.
 Principal axes and moments of inertia in atomic units:
                           1         2         3
     Eigenvalues --   226.06342 483.87883 645.00156
           X            0.99973   0.01723   0.01588
           Y           -0.01729   0.99984   0.00360
           Z           -0.01582  -0.00388   0.99987
 This molecule is an asymmetric top.
 Rotational symmetry number  1.
 Rotational temperatures (Kelvin)      0.38314     0.17900     0.13428
 Rotational constants (GHZ):           7.98334     3.72974     2.79804
 Zero-point vibrational energy     300774.3 (Joules/Mol)
                                   71.88678 (Kcal/Mol)
 Warning -- explicit consideration of   8 degrees of freedom as
           vibrations may cause significant error
 Vibrational temperatures:    204.82   359.07   387.98   472.54   488.98
          (Kelvin)            562.00   680.16   749.11  1182.42  1250.89
                             1320.93  1374.70  1443.13  1483.35  1691.32
                             1703.77  1831.81  1910.59  1992.12  2018.83
                             2054.51  2128.69  2162.67  2177.97  2403.39
                             4361.27  4398.01  4481.72  4538.49  4912.53
                             5011.19  5140.80  5469.81

 Zero-point correction=                           0.114559 (Hartree/Particle)
 Thermal correction to Energy=                    0.120920
 Thermal correction to Enthalpy=                  0.121864
 Thermal correction to Gibbs Free Energy=         0.085476
 Sum of electronic and zero-point Energies=           -265.590027
 Sum of electronic and thermal Energies=              -265.583666
 Sum of electronic and thermal Enthalpies=            -265.582722
 Sum of electronic and thermal Free Energies=         -265.619110

                     E (Thermal)             CV                S
                      KCal/Mol        Cal/Mol-Kelvin    Cal/Mol-Kelvin
 Total                   75.879             22.679             76.586
 Electronic               0.000              0.000              0.000
 Translational            0.889              2.981             38.903
 Rotational               0.889              2.981             25.759
 Vibrational             74.101             16.718             11.924
 Vibration     1          0.616              1.911              2.772
 Vibration     2          0.662              1.763              1.734
 Vibration     3          0.674              1.729              1.598
 Vibration     4          0.712              1.619              1.268
 Vibration     5          0.720              1.596              1.213
 Vibration     6          0.758              1.490              0.998
 Vibration     7          0.830              1.311              0.730
 Vibration     8          0.876              1.204              0.608

 Normal termination of Gaussian 09 at Thu Sep  8 14:46:46 2022.
