 Gaussian 09, Revision E.01,
 Gaussian 09:  ES64L-G09RevE.01 30-Nov-2015

 ----------------------------
 #P OPT Freq B3LYP/6-31G(d,p)
 ----------------------------

 --------
 Frag_557
 --------
 Symbolic Z-matrix:
 Charge =  0 Multiplicity = 1

 SCF Done:  E(RB3LYP) =  -248.492229142     A.U. after   13 cycles
 SCF Done:  E(RB3LYP) =  -248.492299952     A.U. after   10 cycles
 SCF Done:  E(RB3LYP) =  -248.492314817     A.U. after    9 cycles
 SCF Done:  E(RB3LYP) =  -248.492331437     A.U. after   10 cycles
 SCF Done:  E(RB3LYP) =  -248.492337305     A.U. after    9 cycles
 SCF Done:  E(RB3LYP) =  -248.492339201     A.U. after    8 cycles
 SCF Done:  E(RB3LYP) =  -248.492339410     A.U. after    7 cycles
 Optimization completed.
    -- Stationary point found.
 Normal termination of Gaussian 09 at Thu Sep  8 15:04:20 2022.

 ----------------------------------------------------------------------
 #P Geom=AllCheck Guess=TCheck SCRF=Check GenChk RB3LYP/6-31G(d,p) Freq
 ----------------------------------------------------------------------

 Structure from the checkpoint file:  "B3LYP6-31Gdp.Frag_557.chk"
 --------
 Frag_557
 --------
 Charge =  0 Multiplicity = 1

                         Standard orientation:
 ---------------------------------------------------------------------
 Center     Atomic      Atomic             Coordinates (Angstroms)
 Number     Number       Type             X           Y           Z
 ---------------------------------------------------------------------
      1          6           0       -1.789755   -0.633589   -0.007039
      2          6           0       -0.424541   -0.022016    0.016142
      3          8           0       -0.360371    1.368511   -0.054275
      4          6           0        0.731946   -0.700453    0.011764
      5          7           0        2.000299   -0.105649   -0.094807
      6          1           0       -1.732389   -1.722996    0.059078
      7          1           0       -2.334473   -0.374982   -0.924931
      8          1           0       -2.402789   -0.284925    0.838495
      9          1           0       -1.116490    1.734684    0.423020
     10          1           0        0.716335   -1.785253   -0.008351
     11          1           0        1.952575    0.893653    0.074110
     12          1           0        2.692208   -0.532380    0.511220
 ---------------------------------------------------------------------

 SCF Done:  E(RB3LYP) =  -248.492339410     A.U. after    1 cycles

 The electronic state is 1-A.
 Alpha  occ. eigenvalues --  -19.15654 -14.31882 -10.21470 -10.19181 -10.18463
 Alpha  occ. eigenvalues --   -1.03043  -0.88339  -0.75420  -0.67023  -0.56913
 Alpha  occ. eigenvalues --   -0.49431  -0.48701  -0.44590  -0.42317  -0.39066
 Alpha  occ. eigenvalues --   -0.38698  -0.35830  -0.32111  -0.29568  -0.17457
 Alpha virt. eigenvalues --    0.06365   0.06912   0.10590   0.13216   0.14172
 Alpha virt. eigenvalues --    0.17129   0.18319   0.20125   0.23315   0.25715
 Alpha virt. eigenvalues --    0.37344   0.42622   0.53484   0.53568   0.57087

 Mulliken charges:
               1
     1  C   -0.376370
     2  C    0.305108
     3  O   -0.566050
     4  C    0.008695
     5  N   -0.608626
     6  H    0.116063
     7  H    0.120932
     8  H    0.096012
     9  H    0.308307
    10  H    0.086374
    11  H    0.262834
    12  H    0.246721
 Sum of Mulliken charges =  -0.00000

 Dipole moment (field-independent basis, Debye):
    X=             -0.9393    Y=             -0.1303    Z=              1.9176  Tot=              2.1393
 Quadrupole moment (field-independent basis, Debye-Ang):
   XX=            -26.2803   YY=            -28.1178   ZZ=            -32.4167
   XY=             -1.7099   XZ=              2.4492   YZ=              1.2388

  Exact polarizability:  63.976  -5.092  43.400   0.090   0.348  26.183
 Approx polarizability:  89.666 -13.303  62.879  -1.484  -0.022  36.749

                      1                      2                      3
                      A                      A                      A
 Frequencies --    205.6034               239.2737               252.8342
 Red. masses --      1.4293                 1.4640                 1.6979
 Frc consts  --      0.0356                 0.0494                 0.0639
 IR Inten    --      9.6389                63.2506                83.6130

                      4                      5                      6
                      A                      A                      A
 Frequencies --    268.4581               338.7733               386.4548
 Red. masses --      1.6332                 1.1986                 2.6783
 Frc consts  --      0.0693                 0.0810                 0.2357
 IR Inten    --     14.7942                57.7612                 4.0459

                      7                      8                      9
                      A                      A                      A
 Frequencies --    524.7947               599.9823               765.7771
 Red. masses --      3.3872                 3.6208                 1.3432
 Frc consts  --      0.5496                 0.7679                 0.4641
 IR Inten    --     18.1276                 3.9345               312.8785

                     10                     11                     12
                      A                      A                      A
 Frequencies --    835.1589               857.1230              1006.5809
 Red. masses --      1.2950                 3.8346                 1.4750
 Frc consts  --      0.5322                 1.6598                 0.8805
 IR Inten    --     36.6752                24.8587                 1.3539

                     13                     14                     15
                      A                      A                      A
 Frequencies --   1068.6785              1127.0564              1188.6284
 Red. masses --      1.3979                 1.3824                 1.9526
 Frc consts  --      0.9406                 1.0346                 1.6254
 IR Inten    --      5.4800                70.7424                 3.8468

                     16                     17                     18
                      A                      A                      A
 Frequencies --   1255.3103              1311.7894              1391.1525
 Red. masses --      1.8867                 2.2769                 1.4035
 Frc consts  --      1.7517                 2.3084                 1.6003
 IR Inten    --     62.8731               115.7439                14.4943

                     19                     20                     21
                      A                      A                      A
 Frequencies --   1432.9605              1484.9454              1511.1134
 Red. masses --      1.3317                 1.0446                 1.0595
 Frc consts  --      1.6111                 1.3572                 1.4255
 IR Inten    --      7.2873                 7.0660                 6.0230

                     22                     23                     24
                      A                      A                      A
 Frequencies --   1648.8177              1800.0298              2998.6349
 Red. masses --      1.1253                 5.8815                 1.0470
 Frc consts  --      1.8024                11.2278                 5.5468
 IR Inten    --     37.9745                22.3398                67.6296

                     25                     26                     27
                      A                      A                      A
 Frequencies --   3048.7789              3127.9805              3206.4804
 Red. masses --      1.0933                 1.0962                 1.0914
 Frc consts  --      5.9875                 6.3194                 6.6116
 IR Inten    --     36.7547                17.1266                13.2158

                     28                     29                     30
                      A                      A                      A
 Frequencies --   3521.1282              3626.7340              3804.9582
 Red. masses --      1.0475                 1.0963                 1.0663
 Frc consts  --      7.6515                 8.4963                 9.0959
 IR Inten    --      3.1010                 6.3573                20.3734

 - Thermochemistry -
 -------------------
 Temperature   298.150 Kelvin.  Pressure   1.00000 Atm.
 Atom     1 has atomic number  6 and mass  12.00000

 Molecular mass:    73.05276 amu.
 Principal axes and moments of inertia in atomic units:
                           1         2         3
     Eigenvalues --   190.91515 480.46613 655.84662
           X            0.99975   0.02069   0.00819
           Y           -0.02077   0.99973   0.01080
           Z           -0.00796  -0.01097   0.99991
 This molecule is an asymmetric top.
 Rotational symmetry number  1.
 Rotational temperatures (Kelvin)      0.45368     0.18027     0.13206
 Rotational constants (GHZ):           9.45311     3.75623     2.75177
 Zero-point vibrational energy     268178.8 (Joules/Mol)
                                   64.09627 (Kcal/Mol)
 Warning -- explicit consideration of   8 degrees of freedom as
           vibrations may cause significant error
 Vibrational temperatures:    295.82   344.26   363.77   386.25   487.42
          (Kelvin)            556.02   755.06   863.24  1101.78  1201.61
                             1233.21  1448.24  1537.59  1621.58  1710.17
                             1806.11  1887.37  2001.56  2061.71  2136.50
                             2174.15  2372.28  2589.84  4314.36  4386.51
                             4500.46  4613.40  5066.11  5218.05  5474.48

 Zero-point correction=                           0.102144 (Hartree/Particle)
 Thermal correction to Energy=                    0.108414
 Thermal correction to Enthalpy=                  0.109358
 Thermal correction to Gibbs Free Energy=         0.073324
 Sum of electronic and zero-point Energies=           -248.390196
 Sum of electronic and thermal Energies=              -248.383925
 Sum of electronic and thermal Enthalpies=            -248.382981
 Sum of electronic and thermal Free Energies=         -248.419016

                     E (Thermal)             CV                S
                      KCal/Mol        Cal/Mol-Kelvin    Cal/Mol-Kelvin
 Total                   68.031             22.138             75.841
 Electronic               0.000              0.000              0.000
 Translational            0.889              2.981             38.782
 Rotational               0.889              2.981             25.601
 Vibrational             66.254             16.176             11.458
 Vibration     1          0.640              1.832              2.082
 Vibration     2          0.657              1.780              1.808
 Vibration     3          0.664              1.758              1.711
 Vibration     4          0.673              1.731              1.606
 Vibration     5          0.719              1.598              1.218
 Vibration     6          0.755              1.499              1.014
 Vibration     7          0.880              1.195              0.599
 Vibration     8          0.958              1.032              0.450

 Normal termination of Gaussian 09 at Thu Sep  8 15:04:28 2022.
