 Gaussian 09, Revision E.01,
 Gaussian 09:  ES64L-G09RevE.01 30-Nov-2015

 ----------------------------
 #P OPT Freq B3LYP/6-31G(d,p)
 ----------------------------

 --------
 Frag_625
 --------
 Symbolic Z-matrix:
 Charge =  0 Multiplicity = 1

 SCF Done:  E(RB3LYP) =  -311.085348479     A.U. after   14 cycles
 SCF Done:  E(RB3LYP) =  -311.085400299     A.U. after    8 cycles
 SCF Done:  E(RB3LYP) =  -311.085403658     A.U. after    8 cycles
 Optimization completed.
    -- Stationary point found.
 Normal termination of Gaussian 09 at Thu Sep  8 14:55:32 2022.

 ----------------------------------------------------------------------
 #P Geom=AllCheck Guess=TCheck SCRF=Check GenChk RB3LYP/6-31G(d,p) Freq
 ----------------------------------------------------------------------

 Structure from the checkpoint file:  "B3LYP6-31Gdp.Frag_625.chk"
 --------
 Frag_625
 --------
 Charge =  0 Multiplicity = 1

                         Standard orientation:
 ---------------------------------------------------------------------
 Center     Atomic      Atomic             Coordinates (Angstroms)
 Number     Number       Type             X           Y           Z
 ---------------------------------------------------------------------
      1          6           0       -1.736364    1.163959   -0.000000
      2          6           0       -0.967996    0.070111    0.000008
      3          8           0       -1.595190   -1.155800    0.000009
      4          6           0        0.560511    0.035017    0.000001
      5          6           0        1.055302   -0.708020   -1.265579
      6          6           0        1.158105    1.451795   -0.000057
      7          6           0        1.055322   -0.707925    1.265628
      8          1           0       -1.313974    2.157823   -0.000003
      9          1           0       -2.816065    1.067788   -0.000004
     10          1           0       -0.934782   -1.858360   -0.000036
     11          1           0        0.686651   -1.738649   -1.321974
     12          1           0        2.149055   -0.756593   -1.274418
     13          1           0        0.725971   -0.191280   -2.171967
     14          1           0        0.851216    2.014623    0.886347
     15          1           0        0.851219    2.014550   -0.886509
     16          1           0        2.251203    1.393043   -0.000053
     17          1           0        0.725988   -0.191127    2.171983
     18          1           0        0.686686   -1.738555    1.322097
     19          1           0        2.149075   -0.756479    1.274464
 ---------------------------------------------------------------------

 SCF Done:  E(RB3LYP) =  -311.085403658     A.U. after    1 cycles

 The electronic state is 1-A.
 Alpha  occ. eigenvalues --  -19.16447 -10.23386 -10.21190 -10.18529 -10.18528
 Alpha  occ. eigenvalues --  -10.17834 -10.15255  -1.04407  -0.82409  -0.73398
 Alpha  occ. eigenvalues --   -0.69440  -0.68799  -0.59911  -0.55954  -0.49363
 Alpha  occ. eigenvalues --   -0.45300  -0.44628  -0.42857  -0.40756  -0.40258
 Alpha  occ. eigenvalues --   -0.39763  -0.37322  -0.36906  -0.36200  -0.33517
 Alpha  occ. eigenvalues --   -0.33159  -0.31878  -0.21396
 Alpha virt. eigenvalues --    0.04612   0.05390   0.10562   0.12706   0.14159
 Alpha virt. eigenvalues --    0.14307   0.15462   0.15523   0.17470   0.19408
 Alpha virt. eigenvalues --    0.19484   0.20027   0.21559   0.23276   0.24635

 Mulliken charges:
               1
     1  C   -0.328773
     2  C    0.412835
     3  O   -0.549227
     4  C   -0.054437
     5  C   -0.298702
     6  C   -0.309979
     7  C   -0.298698
     8  H    0.090056
     9  H    0.094384
    10  H    0.312648
    11  H    0.082875
    12  H    0.105008
    13  H    0.118351
    14  H    0.110429
    15  H    0.110429
    16  H    0.096566
    17  H    0.118350
    18  H    0.082879
    19  H    0.105006
 Sum of Mulliken charges =  -0.00000

 Dipole moment (field-independent basis, Debye):
    X=              2.1786    Y=             -0.5851    Z=             -0.0001  Tot=              2.2558
 Quadrupole moment (field-independent basis, Debye-Ang):
   XX=            -48.2320   YY=            -41.8791   ZZ=            -45.8028
   XY=             -1.0553   XZ=              0.0001   YZ=              0.0001

  Exact polarizability:  72.836  -7.423  73.549  -0.000  -0.000  54.072
 Approx polarizability:  98.625 -12.364 111.017  -0.000  -0.000  73.941

                      1                      2                      3
                      A                      A                      A
 Frequencies --     81.9003               151.2838               201.9594
 Red. masses --      3.3844                 1.3159                 1.1978
 Frc consts  --      0.0134                 0.0177                 0.0288
 IR Inten    --      0.0655                79.7002                 0.0618

                      4                      5                      6
                      A                      A                      A
 Frequencies --    258.0195               282.9690               285.5391
 Red. masses --      1.0596                 2.6298                 1.3937
 Frc consts  --      0.0416                 0.1241                 0.0670
 IR Inten    --      0.1411                 1.2509                 9.0267

                      7                      8                      9
                      A                      A                      A
 Frequencies --    323.2784               352.2987               379.0983
 Red. masses --      1.1472                 2.4710                 2.1894
 Frc consts  --      0.0706                 0.1807                 0.1854
 IR Inten    --      7.5494                 1.0296                 0.7132

                     10                     11                     12
                      A                      A                      A
 Frequencies --    379.4889               483.0626               510.7219
 Red. masses --      2.7582                 2.4424                 2.8011
 Frc consts  --      0.2340                 0.3358                 0.4305
 IR Inten    --      0.0809                 1.3176                 0.9871

                     13                     14                     15
                      A                      A                      A
 Frequencies --    662.0952               690.2293               741.2732
 Red. masses --      3.1518                 3.2726                 1.1119
 Frc consts  --      0.8141                 0.9186                 0.3600
 IR Inten    --      2.2499                 4.3812                10.3955

                     16                     17                     18
                      A                      A                      A
 Frequencies --    843.2591               862.9699               929.2533
 Red. masses --      1.4232                 2.2659                 1.7863
 Frc consts  --      0.5963                 0.9942                 0.9088
 IR Inten    --     47.6157                 4.7178                 0.2550

                     19                     20                     21
                      A                      A                      A
 Frequencies --    946.1570               965.6697               981.8039
 Red. masses --      1.6517                 1.1995                 1.9316
 Frc consts  --      0.8712                 0.6590                 1.0970
 IR Inten    --      3.1085                 0.2819                37.9064

                     22                     23                     24
                      A                      A                      A
 Frequencies --   1048.7290              1049.4147              1195.1273
 Red. masses --      1.3906                 1.3907                 1.8325
 Frc consts  --      0.9011                 0.9024                 1.5421
 IR Inten    --      0.2087                 0.7908                 0.0642

                     25                     26                     27
                      A                      A                      A
 Frequencies --   1232.4148              1244.1712              1264.6468
 Red. masses --      2.6678                 2.8225                 1.5911
 Frc consts  --      2.3874                 2.5742                 1.4993
 IR Inten    --      6.6206                13.7645               123.5899

                     28                     29                     30
                      A                      A                      A
 Frequencies --   1345.6825              1408.9703              1414.7534
 Red. masses --      3.0497                 1.2551                 1.2069
 Frc consts  --      3.2538                 1.4680                 1.4233
 IR Inten    --    116.9639                 2.7024                 3.7683

                     31                     32                     33
                      A                      A                      A
 Frequencies --   1439.5911              1450.7224              1493.7842
 Red. masses --      1.1921                 1.1954                 1.0467
 Frc consts  --      1.4556                 1.4823                 1.3761
 IR Inten    --      3.5556                 7.5157                 0.0477

                     34                     35                     36
                      A                      A                      A
 Frequencies --   1498.5750              1503.7473              1518.0290
 Red. masses --      1.0485                 1.0471                 1.0522
 Frc consts  --      1.3873                 1.3950                 1.4286
 IR Inten    --      0.3278                 0.3807                 5.0606

                     37                     38                     39
                      A                      A                      A
 Frequencies --   1519.8232              1536.4183              1742.4230
 Red. masses --      1.0532                 1.0690                 5.2780
 Frc consts  --      1.4334                 1.4868                 9.4412
 IR Inten    --      9.6253                16.2199                75.4032

                     40                     41                     42
                      A                      A                      A
 Frequencies --   3037.8607              3041.6450              3049.9320
 Red. masses --      1.0358                 1.0354                 1.0360
 Frc consts  --      5.6322                 5.6436                 5.6778
 IR Inten    --     18.8642                38.7857                 8.0098

                     43                     44                     45
                      A                      A                      A
 Frequencies --   3101.4985              3106.6436              3117.7198
 Red. masses --      1.1007                 1.1002                 1.1025
 Frc consts  --      6.2380                 6.2563                 6.3139
 IR Inten    --      1.3793                63.1912                12.4438

                     46                     47                     48
                      A                      A                      A
 Frequencies --   3122.9651              3126.9820              3128.3812
 Red. masses --      1.1036                 1.1027                 1.1026
 Frc consts  --      6.3416                 6.3524                 6.3580
 IR Inten    --      2.3793                46.7391                37.4887

                     49                     50                     51
                      A                      A                      A
 Frequencies --   3193.4984              3292.5998              3848.2070
 Red. masses --      1.0625                 1.1144                 1.0658
 Frc consts  --      6.3843                 7.1184                 9.2994
 IR Inten    --      1.6664                 5.5596                34.2589

 - Thermochemistry -
 -------------------
 Temperature   298.150 Kelvin.  Pressure   1.00000 Atm.
 Atom     1 has atomic number  6 and mass  12.00000

 Molecular mass:   100.08882 amu.
 Principal axes and moments of inertia in atomic units:
                           1         2         3
     Eigenvalues --   563.97558 783.41796 945.06756
           X            0.99852  -0.05438   0.00000
           Y            0.05438   0.99852   0.00000
           Z           -0.00000  -0.00000   1.00000
 This molecule is an asymmetric top.
 Rotational symmetry number  1.
 Warning -- assumption of classical behavior for rotation
           may cause significant error
 Rotational temperatures (Kelvin)      0.15358     0.11056     0.09165
 Rotational constants (GHZ):           3.20003     2.30368     1.90964
 Zero-point vibrational energy     444934.8 (Joules/Mol)
                                  106.34196 (Kcal/Mol)
 Warning -- explicit consideration of  12 degrees of freedom as
           vibrations may cause significant error
 Vibrational temperatures:    117.84   217.66   290.57   371.23   407.13
          (Kelvin)            410.83   465.12   506.88   545.44   546.00
                              695.02   734.81   952.61   993.08  1066.53
                             1213.26  1241.62  1336.99  1361.31  1389.38
                             1412.60  1508.89  1509.87  1719.52  1773.17
                             1790.08  1819.54  1936.13  2027.19  2035.51
                             2071.25  2087.26  2149.22  2156.11  2163.55
                             2184.10  2186.68  2210.56  2506.95  4370.80
                             4376.24  4388.17  4462.36  4469.76  4485.70
                             4493.24  4499.02  4501.04  4594.73  4737.31
                             5536.70

 Zero-point correction=                           0.169467 (Hartree/Particle)
 Thermal correction to Energy=                    0.178320
 Thermal correction to Enthalpy=                  0.179264
 Thermal correction to Gibbs Free Energy=         0.137170
 Sum of electronic and zero-point Energies=           -310.915937
 Sum of electronic and thermal Energies=              -310.907084
 Sum of electronic and thermal Enthalpies=            -310.906140
 Sum of electronic and thermal Free Energies=         -310.948234

                     E (Thermal)             CV                S
                      KCal/Mol        Cal/Mol-Kelvin    Cal/Mol-Kelvin
 Total                  111.897             33.278             88.595
 Electronic               0.000              0.000              0.000
 Translational            0.889              2.981             39.721
 Rotational               0.889              2.981             27.526
 Vibrational            110.120             27.317             21.348
 Vibration     1          0.600              1.962              3.845
 Vibration     2          0.619              1.901              2.656
 Vibration     3          0.639              1.837              2.115
 Vibration     4          0.667              1.749              1.675
 Vibration     5          0.682              1.705              1.516
 Vibration     6          0.683              1.701              1.500
 Vibration     7          0.708              1.629              1.293
 Vibration     8          0.729              1.571              1.156
 Vibration     9          0.749              1.515              1.043
 Vibration    10          0.749              1.514              1.041
 Vibration    11          0.839              1.288              0.702
 Vibration    12          0.866              1.226              0.632

 Optimization completed.
    -- Stationary point found.
 Normal termination of Gaussian 09 at Thu Sep  8 14:55:52 2022.
