 Gaussian 09, Revision E.01,
 Gaussian 09:  ES64L-G09RevE.01 30-Nov-2015

 ----------------------------
 #P OPT Freq B3LYP/6-31G(d,p)
 ----------------------------

 --------
 Frag_481
 --------
 Symbolic Z-matrix:
 Charge =  0 Multiplicity = 1

 SCF Done:  E(RB3LYP) =  -248.507957024     A.U. after   13 cycles
 SCF Done:  E(RB3LYP) =  -248.508010647     A.U. after    9 cycles
 SCF Done:  E(RB3LYP) =  -248.508015703     A.U. after    8 cycles
 SCF Done:  E(RB3LYP) =  -248.508016008     A.U. after    7 cycles
 Optimization completed.
    -- Stationary point found.
 Normal termination of Gaussian 09 at Thu Sep  8 15:18:46 2022.

 ----------------------------------------------------------------------
 #P Geom=AllCheck Guess=TCheck SCRF=Check GenChk RB3LYP/6-31G(d,p) Freq
 ----------------------------------------------------------------------

 Structure from the checkpoint file:  "B3LYP6-31Gdp.Frag_481.chk"
 --------
 Frag_481
 --------
 Charge =  0 Multiplicity = 1

                         Standard orientation:
 ---------------------------------------------------------------------
 Center     Atomic      Atomic             Coordinates (Angstroms)
 Number     Number       Type             X           Y           Z
 ---------------------------------------------------------------------
      1          6           0       -1.886635   -0.145445    0.000003
      2          8           0       -0.575456   -0.720556   -0.000012
      3          6           0        0.459782    0.152242    0.000003
      4          6           0        1.767345   -0.601090   -0.000001
      5          7           0        0.256850    1.409458    0.000004
      6          1           0       -2.577596   -0.989517   -0.000138
      7          1           0       -2.038359    0.476873   -0.886169
      8          1           0       -2.038440    0.476632    0.886333
      9          1           0        1.828222   -1.246843    0.881367
     10          1           0        2.615974    0.085147   -0.000502
     11          1           0        1.827787   -1.247628   -0.880818
     12          1           0        1.145164    1.909333   -0.000042
 ---------------------------------------------------------------------

 SCF Done:  E(RB3LYP) =  -248.508016008     A.U. after    1 cycles

 The electronic state is 1-A.
 Alpha  occ. eigenvalues --  -19.17508 -14.29897 -10.27591 -10.22664 -10.19434
 Alpha  occ. eigenvalues --   -1.06711  -0.88028  -0.74950  -0.68988  -0.56373
 Alpha  occ. eigenvalues --   -0.49770  -0.46684  -0.46627  -0.42206  -0.42019
 Alpha  occ. eigenvalues --   -0.39359  -0.33946  -0.33649  -0.26469  -0.25875
 Alpha virt. eigenvalues --    0.03392   0.09012   0.12964   0.13411   0.14831
 Alpha virt. eigenvalues --    0.16851   0.16888   0.18367   0.19249   0.24147
 Alpha virt. eigenvalues --    0.30578   0.41423   0.51136   0.52959   0.55707

 Mulliken charges:
               1
     1  C   -0.065120
     2  O   -0.465234
     3  C    0.494198
     4  C   -0.365829
     5  N   -0.572788
     6  H    0.109847
     7  H    0.125025
     8  H    0.125015
     9  H    0.139115
    10  H    0.112634
    11  H    0.139110
    12  H    0.224027
 Sum of Mulliken charges =  -0.00000

 Dipole moment (field-independent basis, Debye):
    X=              0.9518    Y=             -0.7170    Z=              0.0000  Tot=              1.1916
 Quadrupole moment (field-independent basis, Debye-Ang):
   XX=            -24.5236   YY=            -33.1680   ZZ=            -30.7521
   XY=              1.5308   XZ=              0.0001   YZ=             -0.0002

  Exact polarizability:  49.474   1.932  46.593  -0.000  -0.000  29.746
 Approx polarizability:  58.183   2.722  74.678   0.000  -0.001  40.921

                      1                      2                      3
                      A                      A                      A
 Frequencies --    106.1388               165.4001               187.7288
 Red. masses --      1.1011                 1.8698                 1.3033
 Frc consts  --      0.0073                 0.0301                 0.0271
 IR Inten    --      1.3115                 6.9986                 5.0040

                      4                      5                      6
                      A                      A                      A
 Frequencies --    301.1760               428.1946               570.5619
 Red. masses --      2.9253                 2.7913                 2.9120
 Frc consts  --      0.1563                 0.3015                 0.5585
 IR Inten    --     11.4211                 4.6483                10.1201

                      7                      8                      9
                      A                      A                      A
 Frequencies --    616.7626               852.3269               872.5568
 Red. masses --      3.4481                 1.1487                 3.8791
 Frc consts  --      0.7728                 0.4917                 1.7401
 IR Inten    --      4.5158                38.4920                11.5325

                     10                     11                     12
                      A                      A                      A
 Frequencies --    984.5734              1071.8538              1076.3835
 Red. masses --      2.3083                 1.6193                 1.6685
 Frc consts  --      1.3184                 1.0961                 1.1390
 IR Inten    --     13.4232                 9.9035                50.5897

                     13                     14                     15
                      A                      A                      A
 Frequencies --   1126.5025              1180.7001              1221.1992
 Red. masses --      2.3342                 1.2794                 1.5282
 Frc consts  --      1.7452                 1.0508                 1.3428
 IR Inten    --    168.0051                 0.6389                25.9245

                     16                     17                     18
                      A                      A                      A
 Frequencies --   1377.3166              1424.0740              1485.8414
 Red. masses --      1.7779                 1.4256                 1.0454
 Frc consts  --      1.9871                 1.7034                 1.3599
 IR Inten    --    108.4104                66.4421                 5.1357

                     19                     20                     21
                      A                      A                      A
 Frequencies --   1488.5438              1491.1260              1498.7342
 Red. masses --      1.2313                 1.0466                 1.1553
 Frc consts  --      1.6075                 1.3711                 1.5290
 IR Inten    --     20.5563                 6.3185                31.3438

                     22                     23                     24
                      A                      A                      A
 Frequencies --   1512.4613              1738.8868              3056.4884
 Red. masses --      1.0521                 7.7682                 1.0295
 Frc consts  --      1.4179                13.8393                 5.6666
 IR Inten    --      9.0760               170.9881                31.4705

                     25                     26                     27
                      A                      A                      A
 Frequencies --   3058.7512              3125.1787              3130.5643
 Red. masses --      1.0358                 1.1010                 1.1062
 Frc consts  --      5.7099                 6.3354                 6.3876
 IR Inten    --     10.4378                 8.6386                25.7898

                     28                     29                     30
                      A                      A                      A
 Frequencies --   3154.2527              3160.8791              3516.5874
 Red. masses --      1.1041                 1.1071                 1.0756
 Frc consts  --      6.4721                 6.5173                 7.8367
 IR Inten    --     12.8809                24.8411                 0.8304

 - Thermochemistry -
 -------------------
 Temperature   298.150 Kelvin.  Pressure   1.00000 Atm.
 Atom     1 has atomic number  6 and mass  12.00000

 Molecular mass:    73.05276 amu.
 Principal axes and moments of inertia in atomic units:
                           1         2         3
     Eigenvalues --   186.98956 436.21039 600.71673
           X            0.99976  -0.02202  -0.00000
           Y            0.02202   0.99976  -0.00000
           Z            0.00000   0.00000   1.00000
 This molecule is an asymmetric top.
 Rotational symmetry number  1.
 Rotational temperatures (Kelvin)      0.46320     0.19856     0.14418
 Rotational constants (GHZ):           9.65156     4.13732     3.00431
 Zero-point vibrational energy     269050.6 (Joules/Mol)
                                   64.30463 (Kcal/Mol)
 Warning -- explicit consideration of   7 degrees of freedom as
           vibrations may cause significant error
 Vibrational temperatures:    152.71   237.97   270.10   433.32   616.08
          (Kelvin)            820.91   887.38  1226.31  1255.41  1416.58
                             1542.16  1548.67  1620.78  1698.76  1757.03
                             1981.65  2048.92  2137.79  2141.68  2145.40
                             2156.34  2176.09  2501.87  4397.60  4400.86
                             4496.43  4504.18  4538.26  4547.79  5059.58

 Zero-point correction=                           0.102476 (Hartree/Particle)
 Thermal correction to Energy=                    0.108575
 Thermal correction to Enthalpy=                  0.109519
 Thermal correction to Gibbs Free Energy=         0.073287
 Sum of electronic and zero-point Energies=           -248.405540
 Sum of electronic and thermal Energies=              -248.399441
 Sum of electronic and thermal Enthalpies=            -248.398497
 Sum of electronic and thermal Free Energies=         -248.434729

                     E (Thermal)             CV                S
                      KCal/Mol        Cal/Mol-Kelvin    Cal/Mol-Kelvin
 Total                   68.132             20.219             76.256
 Electronic               0.000              0.000              0.000
 Translational            0.889              2.981             38.782
 Rotational               0.889              2.981             25.397
 Vibrational             66.354             14.257             12.077
 Vibration     1          0.605              1.944              3.338
 Vibration     2          0.624              1.885              2.487
 Vibration     3          0.632              1.857              2.250
 Vibration     4          0.693              1.671              1.410
 Vibration     5          0.790              1.409              0.865
 Vibration     6          0.927              1.095              0.503
 Vibration     7          0.976              0.996              0.422

 Optimization completed.
    -- Stationary point found.
 Normal termination of Gaussian 09 at Thu Sep  8 15:18:54 2022.
