 Gaussian 09, Revision E.01,
 Gaussian 09:  ES64L-G09RevE.01 30-Nov-2015

 ----------------------------
 #P OPT Freq B3LYP/6-31G(d,p)
 ----------------------------

 --------
 Frag_821
 --------
 Symbolic Z-matrix:
 Charge =  0 Multiplicity = 1

 SCF Done:  E(RB3LYP) =  -379.098968742     A.U. after   14 cycles
 SCF Done:  E(RB3LYP) =  -379.099033523     A.U. after   11 cycles
 SCF Done:  E(RB3LYP) =  -379.099001436     A.U. after   12 cycles
 SCF Done:  E(RB3LYP) =  -379.099063429     A.U. after   11 cycles
 SCF Done:  E(RB3LYP) =  -379.099065449     A.U. after    8 cycles
 SCF Done:  E(RB3LYP) =  -379.099066802     A.U. after    8 cycles
 SCF Done:  E(RB3LYP) =  -379.099067112     A.U. after    8 cycles
 Optimization completed.
    -- Stationary point found.
 Normal termination of Gaussian 09 at Thu Sep  8 15:15:14 2022.

 ----------------------------------------------------------------------
 #P Geom=AllCheck Guess=TCheck SCRF=Check GenChk RB3LYP/6-31G(d,p) Freq
 ----------------------------------------------------------------------

 Structure from the checkpoint file:  "B3LYP6-31Gdp.Frag_821.chk"
 --------
 Frag_821
 --------
 Charge =  0 Multiplicity = 1

                         Standard orientation:
 ---------------------------------------------------------------------
 Center     Atomic      Atomic             Coordinates (Angstroms)
 Number     Number       Type             X           Y           Z
 ---------------------------------------------------------------------
      1          6           0       -1.218500   -0.425064    1.285557
      2          6           0       -0.603270    0.038423   -0.033926
      3          8           0       -1.064788    1.306828   -0.390381
      4          8           0       -0.990705   -0.910872   -1.027108
      5          6           0        0.942492    0.081826    0.041297
      6          7           0        1.476450    1.243758    0.131894
      7          7           0        1.536386   -1.151330    0.045967
      8          1           0       -2.305811   -0.393641    1.185845
      9          1           0       -0.911804    0.246744    2.090743
     10          1           0       -0.909404   -1.443822    1.532440
     11          1           0       -0.277686    1.886781   -0.307341
     12          1           0       -0.991940   -0.415420   -1.859319
     13          1           0        2.496645    1.220961    0.174154
     14          1           0        2.535847   -1.202642   -0.087493
     15          1           0        0.993906   -1.884708   -0.391709
 ---------------------------------------------------------------------

 SCF Done:  E(RB3LYP) =  -379.099067112     A.U. after    1 cycles

 The electronic state is 1-A.
 Alpha  occ. eigenvalues --  -19.15011 -19.13535 -14.36045 -14.31077 -10.29017
 Alpha  occ. eigenvalues --  -10.26419 -10.17103  -1.06089  -0.98779  -0.95074
 Alpha  occ. eigenvalues --   -0.85842  -0.74324  -0.64649  -0.57545  -0.54536
 Alpha  occ. eigenvalues --   -0.53479  -0.51110  -0.46072  -0.44311  -0.39794
 Alpha  occ. eigenvalues --   -0.38245  -0.36959  -0.35962  -0.34215  -0.30247
 Alpha  occ. eigenvalues --   -0.28396  -0.25983  -0.25271
 Alpha virt. eigenvalues --    0.02153   0.06440   0.10094   0.12237   0.13252
 Alpha virt. eigenvalues --    0.15118   0.17420   0.17832   0.18360   0.23047
 Alpha virt. eigenvalues --    0.24580   0.27180   0.28763   0.31527   0.47491

 Mulliken charges:
               1
     1  C   -0.291303
     2  C    0.456564
     3  O   -0.569856
     4  O   -0.550163
     5  C    0.444763
     6  N   -0.624361
     7  N   -0.610717
     8  H    0.126752
     9  H    0.114749
    10  H    0.104276
    11  H    0.329713
    12  H    0.307865
    13  H    0.215249
    14  H    0.260944
    15  H    0.285524
 Sum of Mulliken charges =  -0.00000

 Dipole moment (field-independent basis, Debye):
    X=              2.9121    Y=             -1.8459    Z=             -0.7855  Tot=              3.5362
 Quadrupole moment (field-independent basis, Debye-Ang):
   XX=            -37.3210   YY=            -43.5959   ZZ=            -39.7376
   XY=             -2.0947   XZ=             -1.8915   YZ=              0.4661

  Exact polarizability:  56.584   2.463  57.784   0.661   0.471  40.173
 Approx polarizability:  73.757   5.318  94.135   3.713   1.403  54.196

                      1                      2                      3
                      A                      A                      A
 Frequencies --     76.6643               235.9889               241.3152
 Red. masses --      5.2985                 1.6067                 1.5068
 Frc consts  --      0.0183                 0.0527                 0.0517
 IR Inten    --      1.3307                 2.7960                 1.3660

                      4                      5                      6
                      A                      A                      A
 Frequencies --    292.9344               322.7251               374.0527
 Red. masses --      2.9208                 1.4355                 2.2883
 Frc consts  --      0.1477                 0.0881                 0.1886
 IR Inten    --      4.2746               102.1867                19.4140

                      7                      8                      9
                      A                      A                      A
 Frequencies --    402.6308               446.7457               491.9243
 Red. masses --      4.3918                 1.9354                 1.5441
 Frc consts  --      0.4195                 0.2276                 0.2202
 IR Inten    --     10.7427                20.8199               113.0734

                     10                     11                     12
                      A                      A                      A
 Frequencies --    523.2127               563.3162               577.0456
 Red. masses --      1.9745                 1.3244                 1.9313
 Frc consts  --      0.3185                 0.2476                 0.3789
 IR Inten    --     38.9847                61.1072                53.8067

                     13                     14                     15
                      A                      A                      A
 Frequencies --    604.8523               720.8807               730.8918
 Red. masses --      1.7404                 2.9255                 3.6320
 Frc consts  --      0.3752                 0.8957                 1.1431
 IR Inten    --     76.6527                 0.3836                 4.6373

                     16                     17                     18
                      A                      A                      A
 Frequencies --    839.2529               934.8987               977.8445
 Red. masses --      1.4342                 2.2855                 1.8591
 Frc consts  --      0.5952                 1.1770                 1.0474
 IR Inten    --     74.4258                16.4677                57.4053

                     19                     20                     21
                      A                      A                      A
 Frequencies --   1081.4852              1104.6381              1126.5675
 Red. masses --      2.2011                 1.2895                 1.9624
 Frc consts  --      1.5168                 0.9270                 1.4674
 IR Inten    --    101.7158                25.0589                24.6873

                     22                     23                     24
                      A                      A                      A
 Frequencies --   1155.5994              1205.6180              1369.5131
 Red. masses --      2.1023                 3.2682                 1.6085
 Frc consts  --      1.6541                 2.7988                 1.7775
 IR Inten    --     83.8215                90.1047                99.9449

                     25                     26                     27
                      A                      A                      A
 Frequencies --   1408.2396              1430.9146              1460.3571
 Red. masses --      1.5487                 1.6763                 1.4296
 Frc consts  --      1.8096                 2.0222                 1.7963
 IR Inten    --    129.9245                42.0233               105.1173

                     28                     29                     30
                      A                      A                      A
 Frequencies --   1497.3016              1509.2638              1634.7400
 Red. masses --      1.0574                 1.1684                 1.2160
 Frc consts  --      1.3968                 1.5681                 1.9147
 IR Inten    --      4.2689                17.1575                72.5728

                     31                     32                     33
                      A                      A                      A
 Frequencies --   1742.9288              3064.7333              3147.0486
 Red. masses --      7.1944                 1.0339                 1.1037
 Frc consts  --     12.8766                 5.7216                 6.4404
 IR Inten    --    205.4941                 9.5805                17.1006

                     34                     35                     36
                      A                      A                      A
 Frequencies --   3154.2292              3481.7408              3552.3366
 Red. masses --      1.1042                 1.0757                 1.0648
 Frc consts  --      6.4725                 7.6831                 7.9164
 IR Inten    --     13.5036                 9.6046               157.8020

                     37                     38                     39
                      A                      A                      A
 Frequencies --   3569.4267              3692.0071              3795.2151
 Red. masses --      1.0463                 1.1015                 1.0653
 Frc consts  --      7.8543                 8.8463                 9.0402
 IR Inten    --     41.8174                33.9859                32.0932

 - Thermochemistry -
 -------------------
 Temperature   298.150 Kelvin.  Pressure   1.00000 Atm.
 Atom     1 has atomic number  6 and mass  12.00000

 Molecular mass:   104.05858 amu.
 Principal axes and moments of inertia in atomic units:
                           1         2         3
     Eigenvalues --   524.38864 726.53839 885.50862
           X            0.99912  -0.00168  -0.04183
           Y            0.00079   0.99977  -0.02131
           Z            0.04186   0.02126   0.99890
 This molecule is an asymmetric top.
 Rotational symmetry number  1.
 Warning -- assumption of classical behavior for rotation
           may cause significant error
 Rotational temperatures (Kelvin)      0.16517     0.11921     0.09781
 Rotational constants (GHZ):           3.44161     2.48403     2.03808
 Zero-point vibrational energy     326228.1 (Joules/Mol)
                                   77.97039 (Kcal/Mol)
 Warning -- explicit consideration of  13 degrees of freedom as
           vibrations may cause significant error
 Vibrational temperatures:    110.30   339.53   347.20   421.47   464.33
          (Kelvin)            538.18   579.30   642.77   707.77   752.79
                              810.49   830.24   870.25  1037.19  1051.59
                             1207.50  1345.11  1406.90  1556.01  1589.33
                             1620.88  1662.65  1734.61  1970.42  2026.14
                             2058.76  2101.13  2154.28  2171.49  2352.02
                             2507.68  4409.46  4527.90  4538.23  5009.44
                             5111.01  5135.60  5311.97  5460.46

 Zero-point correction=                           0.124254 (Hartree/Particle)
 Thermal correction to Energy=                    0.132065
 Thermal correction to Enthalpy=                  0.133009
 Thermal correction to Gibbs Free Energy=         0.092913
 Sum of electronic and zero-point Energies=           -378.974813
 Sum of electronic and thermal Energies=              -378.967003
 Sum of electronic and thermal Enthalpies=            -378.966058
 Sum of electronic and thermal Free Energies=         -379.006154

                     E (Thermal)             CV                S
                      KCal/Mol        Cal/Mol-Kelvin    Cal/Mol-Kelvin
 Total                   82.872             29.744             84.388
 Electronic               0.000              0.000              0.000
 Translational            0.889              2.981             39.837
 Rotational               0.889              2.981             27.314
 Vibrational             81.094             23.782             17.237
 Vibration     1          0.599              1.965              3.975
 Vibration     2          0.655              1.786              1.833
 Vibration     3          0.658              1.777              1.793
 Vibration     4          0.688              1.687              1.457
 Vibration     5          0.708              1.630              1.296
 Vibration     6          0.745              1.525              1.063
 Vibration     7          0.768              1.464              0.953
 Vibration     8          0.806              1.368              0.806
 Vibration     9          0.848              1.268              0.679
 Vibration    10          0.878              1.199              0.603
 Vibration    11          0.919              1.111              0.517
 Vibration    12          0.934              1.081              0.491
 Vibration    13          0.963              1.022              0.441

 Optimization completed.
    -- Stationary point found.
 Normal termination of Gaussian 09 at Thu Sep  8 15:15:27 2022.
