 Gaussian 09, Revision E.01,
 Gaussian 09:  ES64L-G09RevE.01 30-Nov-2015

 ----------------------------
 #P OPT Freq B3LYP/6-31G(d,p)
 ----------------------------

 --------
 Frag_615
 --------
 Symbolic Z-matrix:
 Charge =  0 Multiplicity = 1

 SCF Done:  E(RB3LYP) =  -195.292706529     A.U. after   13 cycles
 SCF Done:  E(RB3LYP) =  -195.292804798     A.U. after   10 cycles
 SCF Done:  E(RB3LYP) =  -195.292791165     A.U. after    9 cycles
 SCF Done:  E(RB3LYP) =  -195.292800202     A.U. after    9 cycles
 SCF Done:  E(RB3LYP) =  -195.292807508     A.U. after    9 cycles
 SCF Done:  E(RB3LYP) =  -195.292809221     A.U. after    8 cycles
 SCF Done:  E(RB3LYP) =  -195.292809043     A.U. after    7 cycles
 SCF Done:  E(RB3LYP) =  -195.292809307     A.U. after    7 cycles
 Optimization completed.
    -- Stationary point found.
 Normal termination of Gaussian 09 at Thu Sep  8 15:10:19 2022.

 ----------------------------------------------------------------------
 #P Geom=AllCheck Guess=TCheck SCRF=Check GenChk RB3LYP/6-31G(d,p) Freq
 ----------------------------------------------------------------------

 Structure from the checkpoint file:  "B3LYP6-31Gdp.Frag_615.chk"
 --------
 Frag_615
 --------
 Charge =  0 Multiplicity = 1

                         Standard orientation:
 ---------------------------------------------------------------------
 Center     Atomic      Atomic             Coordinates (Angstroms)
 Number     Number       Type             X           Y           Z
 ---------------------------------------------------------------------
      1          6           0       -2.234496   -0.000001    0.118444
      2          6           0       -1.050497    0.000008   -0.122842
      3          6           0        0.391554   -0.000000   -0.399912
      4          6           0        1.061182   -1.274630    0.152689
      5          6           0        1.061192    1.274625    0.152690
      6          1           0       -3.278816    0.000010    0.328353
      7          1           0        0.518349   -0.000001   -1.492164
      8          1           0        0.601083   -2.174616   -0.263979
      9          1           0        2.126563   -1.281702   -0.099440
     10          1           0        0.965765   -1.318244    1.242113
     11          1           0        0.601101    2.174614   -0.263981
     12          1           0        2.126574    1.281688   -0.099434
     13          1           0        0.965771    1.318241    1.242113
 ---------------------------------------------------------------------

 SCF Done:  E(RB3LYP) =  -195.292809307     A.U. after    1 cycles

 The electronic state is 1-A.
 Alpha  occ. eigenvalues --  -10.21437 -10.18122 -10.18121 -10.17852 -10.17092
 Alpha  occ. eigenvalues --   -0.81241  -0.72090  -0.68785  -0.61385  -0.51844
 Alpha  occ. eigenvalues --   -0.47546  -0.44694  -0.41405  -0.38787  -0.36872
 Alpha  occ. eigenvalues --   -0.35133  -0.35051  -0.25795  -0.25747
 Alpha virt. eigenvalues --    0.05734   0.06188   0.10139   0.13160   0.14140
 Alpha virt. eigenvalues --    0.15245   0.15961   0.17237   0.19027   0.19992
 Alpha virt. eigenvalues --    0.22984   0.26096   0.26122   0.43768   0.47502

 Mulliken charges:
               1
     1  C   -0.445387
     2  C    0.306545
     3  C   -0.190114
     4  C   -0.302547
     5  C   -0.302548
     6  H    0.148688
     7  H    0.122354
     8  H    0.114653
     9  H    0.102388
    10  H    0.114464
    11  H    0.114653
    12  H    0.102388
    13  H    0.114464
 Sum of Mulliken charges =  -0.00000

 Dipole moment (field-independent basis, Debye):
    X=              0.6519    Y=              0.0000    Z=             -0.0812  Tot=              0.6569
 Quadrupole moment (field-independent basis, Debye-Ang):
   XX=            -28.3374   YY=            -32.0461   ZZ=            -31.7762
   XY=             -0.0000   XZ=             -1.0658   YZ=              0.0000

  Exact polarizability:  67.945   0.000  42.421  -3.846  -0.000  37.905
 Approx polarizability: 101.407   0.000  52.903  -9.612  -0.000  54.098

                      1                      2                      3
                      A                      A                      A
 Frequencies --    180.8866               215.7625               233.5592
 Red. masses --      3.1176                 1.7918                 1.0277
 Frc consts  --      0.0601                 0.0491                 0.0330
 IR Inten    --      0.2236                 0.6004                 0.0000

                      4                      5                      6
                      A                      A                      A
 Frequencies --    283.7587               352.9452               533.9056
 Red. masses --      1.3849                 2.2969                 3.4020
 Frc consts  --      0.0657                 0.1686                 0.5714
 IR Inten    --      0.4897                 0.5311                 0.7803

                      7                      8                      9
                      A                      A                      A
 Frequencies --    541.8793               620.1138               624.3557
 Red. masses --      4.8953                 1.2059                 1.2114
 Frc consts  --      0.8469                 0.2732                 0.2782
 IR Inten    --      3.3287                46.3372                46.5410

                     10                     11                     12
                      A                      A                      A
 Frequencies --    777.2781               937.5295               938.0795
 Red. masses --      2.8414                 1.1661                 2.2292
 Frc consts  --      1.0114                 0.6039                 1.1558
 IR Inten    --      0.1407                 1.3455                 0.7695

                     13                     14                     15
                      A                      A                      A
 Frequencies --    968.2368              1126.5568              1128.6555
 Red. masses --      1.5311                 2.2614                 1.5559
 Frc consts  --      0.8457                 1.6910                 1.1678
 IR Inten    --      0.0146                 2.9211                 3.5363

                     16                     17                     18
                      A                      A                      A
 Frequencies --   1195.9583              1331.4992              1354.8708
 Red. masses --      1.7628                 1.3279                 1.4835
 Frc consts  --      1.4855                 1.3871                 1.6045
 IR Inten    --      3.6697                 1.7564                16.7011

                     19                     20                     21
                      A                      A                      A
 Frequencies --   1409.8198              1430.8184              1500.8982
 Red. masses --      1.2192                 1.2191                 1.0428
 Frc consts  --      1.4278                 1.4705                 1.3841
 IR Inten    --      1.6554                 1.3607                 1.2865

                     22                     23                     24
                      A                      A                      A
 Frequencies --   1504.3113              1513.2486              1524.5763
 Red. masses --      1.0475                 1.0433                 1.0527
 Frc consts  --      1.3966                 1.4077                 1.4416
 IR Inten    --      1.2674                 5.4357                 4.8857

                     25                     26                     27
                      A                      A                      A
 Frequencies --   2233.3744              3017.7497              3045.8788
 Red. masses --      5.9764                 1.0829                 1.0347
 Frc consts  --     17.5636                 5.8104                 5.6555
 IR Inten    --      2.3748                15.1564                22.1673

                     28                     29                     30
                      A                      A                      A
 Frequencies --   3049.8100              3118.9848              3124.4124
 Red. masses --      1.0351                 1.1033                 1.1027
 Frc consts  --      5.6723                 6.3240                 6.3421
 IR Inten    --     26.8184                 0.8786                55.8381

                     31                     32                     33
                      A                      A                      A
 Frequencies --   3131.2130              3132.6965              3490.4857
 Red. masses --      1.1033                 1.1030                 1.1597
 Frc consts  --      6.3734                 6.3774                 8.3250
 IR Inten    --     20.2315                31.2895                59.2848

 - Thermochemistry -
 -------------------
 Temperature   298.150 Kelvin.  Pressure   1.00000 Atm.
 Atom     1 has atomic number  6 and mass  12.00000

 Molecular mass:    68.06260 amu.
 Principal axes and moments of inertia in atomic units:
                           1         2         3
     Eigenvalues --   227.77577 474.91712 642.37262
           X            1.00000  -0.00000  -0.00129
           Y            0.00000   1.00000   0.00000
           Z            0.00129  -0.00000   1.00000
 This molecule is an asymmetric top.
 Rotational symmetry number  1.
 Rotational temperatures (Kelvin)      0.38026     0.18238     0.13483
 Rotational constants (GHZ):           7.92332     3.80012     2.80949
 Zero-point vibrational energy     296519.0 (Joules/Mol)
                                   70.86975 (Kcal/Mol)
 Warning -- explicit consideration of   8 degrees of freedom as
           vibrations may cause significant error
 Vibrational temperatures:    260.26   310.43   336.04   408.26   507.81
          (Kelvin)            768.17   779.64   892.20   898.31  1118.33
                             1348.89  1349.69  1393.08  1620.86  1623.88
                             1720.72  1915.73  1949.35  2028.41  2058.63
                             2159.46  2164.37  2177.22  2193.52  3213.32
                             4341.86  4382.33  4387.99  4487.52  4495.33
                             4505.11  4507.25  5022.02

 Zero-point correction=                           0.112938 (Hartree/Particle)
 Thermal correction to Energy=                    0.119232
 Thermal correction to Enthalpy=                  0.120177
 Thermal correction to Gibbs Free Energy=         0.084085
 Sum of electronic and zero-point Energies=           -195.179871
 Sum of electronic and thermal Energies=              -195.173577
 Sum of electronic and thermal Enthalpies=            -195.172633
 Sum of electronic and thermal Free Energies=         -195.208724

                     E (Thermal)             CV                S
                      KCal/Mol        Cal/Mol-Kelvin    Cal/Mol-Kelvin
 Total                   74.819             22.483             75.961
 Electronic               0.000              0.000              0.000
 Translational            0.889              2.981             38.571
 Rotational               0.889              2.981             25.744
 Vibrational             73.042             16.522             11.645
 Vibration     1          0.630              1.866              2.319
 Vibration     2          0.645              1.817              1.994
 Vibration     3          0.654              1.790              1.851
 Vibration     4          0.682              1.704              1.511
 Vibration     5          0.729              1.569              1.153
 Vibration     6          0.889              1.175              0.579
 Vibration     7          0.897              1.157              0.561
 Vibration     8          0.980              0.989              0.416

 Optimization completed.
    -- Stationary point found.
 Normal termination of Gaussian 09 at Thu Sep  8 15:10:28 2022.
