 Gaussian 09, Revision E.01,
 Gaussian 09:  ES64L-G09RevE.01 30-Nov-2015

 -------------------------
 #P OPT Freq B3LYP/6-31G**
 -------------------------

 --------
 Frag_252
 --------
 Symbolic Z-matrix:
 Charge =  0 Multiplicity = 1

 SCF Done:  E(RB3LYP) =  -213.813087528     A.U. after   12 cycles
 SCF Done:  E(RB3LYP) =  -213.817335877     A.U. after   11 cycles
 SCF Done:  E(RB3LYP) =  -213.817611311     A.U. after   10 cycles
 SCF Done:  E(RB3LYP) =  -213.817654736     A.U. after   10 cycles
 SCF Done:  E(RB3LYP) =  -213.817670053     A.U. after    9 cycles
 SCF Done:  E(RB3LYP) =  -213.817673168     A.U. after    7 cycles
 SCF Done:  E(RB3LYP) =  -213.817673657     A.U. after    7 cycles
 Optimization completed.
    -- Stationary point found.
 Normal termination of Gaussian 09 at Sat Aug 21 01:36:14 2021.

 ----------------------------------------------------------------------
 #P Geom=AllCheck Guess=TCheck SCRF=Check GenChk RB3LYP/6-31G(d,p) Freq
 ----------------------------------------------------------------------

 Structure from the checkpoint file:  "/public/home/users/caep010/.cache/gau_scr/Gau-129594.chk"
 --------
 Frag_252
 --------
 Charge =  0 Multiplicity = 1

                         Standard orientation:
 ---------------------------------------------------------------------
 Center     Atomic      Atomic             Coordinates (Angstroms)
 Number     Number       Type             X           Y           Z
 ---------------------------------------------------------------------
      1          6           0        1.731847   -0.792026    0.003200
      2          6           0        0.463914    0.003074   -0.337080
      3          6           0        0.594360    1.465472    0.107588
      4          6           0       -0.779409   -0.681562    0.274435
      5          7           0       -2.091023   -0.120687   -0.053922
      6          1           0        2.619194   -0.347256   -0.459391
      7          1           0        1.658860   -1.829256   -0.342084
      8          1           0        1.900658   -0.814278    1.086904
      9          1           0        0.337405   -0.009652   -1.431415
     10          1           0        1.455939    1.948992   -0.364576
     11          1           0       -0.293648    2.050159   -0.155361
     12          1           0        0.730518    1.532914    1.194377
     13          1           0       -0.784566   -1.735767   -0.031679
     14          1           0       -0.682379   -0.683119    1.369022
     15          1           0       -2.204861   -0.072082   -1.064530
     16          1           0       -2.164228    0.834404    0.287330
 ---------------------------------------------------------------------

 SCF Done:  E(RB3LYP) =  -213.817673657     A.U. after    1 cycles

 The electronic state is 1-A.
 Alpha  occ. eigenvalues --  -14.30742 -10.19922 -10.18491 -10.17407 -10.17275
 Alpha  occ. eigenvalues --   -0.87465  -0.78385  -0.68236  -0.65208  -0.56140
 Alpha  occ. eigenvalues --   -0.48953  -0.45215  -0.43863  -0.42015  -0.38574
 Alpha  occ. eigenvalues --   -0.37661  -0.35976  -0.34675  -0.32819  -0.32092
 Alpha  occ. eigenvalues --   -0.22724
 Alpha virt. eigenvalues --    0.07608   0.10465   0.12227   0.14176   0.15224
 Alpha virt. eigenvalues --    0.16101   0.16570   0.18008   0.18753   0.21399
 Alpha virt. eigenvalues --    0.21947   0.23477   0.25239   0.26659   0.28106

 Mulliken charges:
               1
     1  C   -0.310573
     2  C   -0.060013
     3  C   -0.309295
     4  C   -0.043722
     5  N   -0.598635
     6  H    0.098782
     7  H    0.099303
     8  H    0.100501
     9  H    0.076392
    10  H    0.101618
    11  H    0.086332
    12  H    0.099765
    13  H    0.096410
    14  H    0.095026
    15  H    0.231889
    16  H    0.236220
 Sum of Mulliken charges =  -0.00000

 Dipole moment (field-independent basis, Debye):
    X=              0.9123    Y=              0.8319    Z=             -0.6488  Tot=              1.3947
 Quadrupole moment (field-independent basis, Debye-Ang):
   XX=            -38.0802   YY=            -33.6440   ZZ=            -32.5923
   XY=             -2.6833   XZ=              1.8286   YZ=              0.5069

  Exact polarizability:  54.960  -1.516  51.684   1.068   0.458  47.258
 Approx polarizability:  69.034  -1.572  67.974   1.472   1.099  68.983

                      1                      2                      3
                      A                      A                      A
 Frequencies --    117.0406               223.4378               238.8527
 Red. masses --      1.8360                 1.0982                 1.0681
 Frc consts  --      0.0148                 0.0323                 0.0359
 IR Inten    --      1.5088                 0.2848                10.8862

                      4                      5                      6
                      A                      A                      A
 Frequencies --    267.1712               295.9883               355.3843
 Red. masses --      2.3256                 1.1911                 2.1731
 Frc consts  --      0.0978                 0.0615                 0.1617
 IR Inten    --      2.3425                34.2463                 0.5829

                      7                      8                      9
                      A                      A                      A
 Frequencies --    423.7739               473.7023               783.3973
 Red. masses --      1.7696                 2.6458                 2.1230
 Frc consts  --      0.1872                 0.3498                 0.7677
 IR Inten    --      5.2208                 4.7404                49.4297

                     10                     11                     12
                      A                      A                      A
 Frequencies --    856.5887               888.0955               928.0932
 Red. masses --      1.2906                 1.6220                 1.3808
 Frc consts  --      0.5579                 0.7537                 0.7007
 IR Inten    --      6.8901               155.9192                 6.5439

                     13                     14                     15
                      A                      A                      A
 Frequencies --    948.1890               969.1871              1064.6235
 Red. masses --      1.5490                 1.4337                 1.2148
 Frc consts  --      0.8205                 0.7935                 0.8113
 IR Inten    --     32.0600                 0.2613                 1.4943

                     16                     17                     18
                      A                      A                      A
 Frequencies --   1096.1257              1156.0607              1196.7116
 Red. masses --      3.2456                 2.2445                 1.7469
 Frc consts  --      2.2975                 1.7674                 1.4740
 IR Inten    --      8.9152                 3.5248                 0.1324

                     19                     20                     21
                      A                      A                      A
 Frequencies --   1242.4250              1332.2789              1368.8754
 Red. masses --      1.6778                 1.2654                 1.4010
 Frc consts  --      1.5259                 1.3233                 1.5468
 IR Inten    --      0.2097                 8.4806                 2.3018

                     22                     23                     24
                      A                      A                      A
 Frequencies --   1393.4351              1400.7315              1416.0565
 Red. masses --      1.3068                 1.1916                 1.3084
 Frc consts  --      1.4950                 1.3775                 1.5458
 IR Inten    --      4.1838                 0.6572                 4.5630

                     25                     26                     27
                      A                      A                      A
 Frequencies --   1434.8363              1495.9264              1503.5060
 Red. masses --      1.2383                 1.0800                 1.0465
 Frc consts  --      1.5020                 1.4240                 1.3938
 IR Inten    --      5.7502                 0.1333                 0.6776

                     28                     29                     30
                      A                      A                      A
 Frequencies --   1509.6718              1519.2995              1525.4240
 Red. masses --      1.0563                 1.0517                 1.0500
 Frc consts  --      1.4185                 1.4303                 1.4395
 IR Inten    --      2.6934                 4.0811                 9.4188

                     31                     32                     33
                      A                      A                      A
 Frequencies --   1670.7354              2993.8171              3022.0242
 Red. masses --      1.0901                 1.0830                 1.0584
 Frc consts  --      1.7928                 5.7191                 5.6952
 IR Inten    --     17.1780                21.0579                36.4806

                     34                     35                     36
                      A                      A                      A
 Frequencies --   3030.6292              3035.8343              3064.0897
 Red. masses --      1.0362                 1.0383                 1.1051
 Frc consts  --      5.6074                 5.6380                 6.1131
 IR Inten    --     33.7816                26.8658                34.7594

                     37                     38                     39
                      A                      A                      A
 Frequencies --   3097.5346              3101.8888              3107.7009
 Red. masses --      1.1010                 1.1004                 1.1025
 Frc consts  --      6.2238                 6.2384                 6.2732
 IR Inten    --     13.6293                65.8292                18.0438

                     40                     41                     42
                      A                      A                      A
 Frequencies --   3110.1938              3485.3746              3573.4702
 Red. masses --      1.1016                 1.0491                 1.0922
 Frc consts  --      6.2783                 7.5090                 8.2176
 IR Inten    --     55.8218                 1.4473                 0.3770

 - Thermochemistry -
 -------------------
 Temperature   298.150 Kelvin.  Pressure   1.00000 Atm.
 Atom     1 has atomic number  6 and mass  12.00000

 Molecular mass:    73.08915 amu.
 Principal axes and moments of inertia in atomic units:
                           1         2         3
     Eigenvalues --   244.85402 531.88530 700.06237
           X            0.99968  -0.02385   0.00788
           Y            0.02383   0.99971   0.00290
           Z           -0.00795  -0.00271   0.99996
 This molecule is an asymmetric top.
 Rotational symmetry number  1.
 Rotational temperatures (Kelvin)      0.35374     0.16284     0.12372
 Rotational constants (GHZ):           7.37068     3.39310     2.57797
 Zero-point vibrational energy     393082.0 (Joules/Mol)
                                   93.94886 (Kcal/Mol)
 Warning -- explicit consideration of   8 degrees of freedom as
           vibrations may cause significant error
 Vibrational temperatures:    168.40   321.48   343.66   384.40   425.86
          (Kelvin)            511.32   609.72   681.55  1127.13  1232.44
                             1277.77  1335.32  1364.23  1394.44  1531.75
                             1577.08  1663.31  1721.80  1787.57  1916.85
                             1969.50  2004.84  2015.34  2037.39  2064.41
                             2152.30  2163.21  2172.08  2185.93  2194.74
                             2403.81  4307.43  4348.01  4360.39  4367.88
                             4408.54  4456.66  4462.92  4471.28  4474.87
                             5014.67  5141.42

 Zero-point correction=                           0.149717 (Hartree/Particle)
 Thermal correction to Energy=                    0.156570
 Thermal correction to Enthalpy=                  0.157514
 Thermal correction to Gibbs Free Energy=         0.120070
 Sum of electronic and zero-point Energies=           -213.667957
 Sum of electronic and thermal Energies=              -213.661104
 Sum of electronic and thermal Enthalpies=            -213.660159
 Sum of electronic and thermal Free Energies=         -213.697603

                     E (Thermal)             CV                S
                      KCal/Mol        Cal/Mol-Kelvin    Cal/Mol-Kelvin
 Total                   98.249             24.536             78.807
 Electronic               0.000              0.000              0.000
 Translational            0.889              2.981             38.784
 Rotational               0.889              2.981             26.014
 Vibrational             96.472             18.575             14.010
 Vibration     1          0.608              1.935              3.149
 Vibration     2          0.649              1.805              1.931
 Vibration     3          0.657              1.781              1.811
 Vibration     4          0.672              1.733              1.614
 Vibration     5          0.690              1.681              1.439
 Vibration     6          0.731              1.564              1.142
 Vibration     7          0.786              1.419              0.879
 Vibration     8          0.830              1.308              0.727

 Optimization completed.
    -- Stationary point found.
 Normal termination of Gaussian 09 at Sat Aug 21 01:36:26 2021.
