 Gaussian 09, Revision E.01,
 Gaussian 09:  ES64L-G09RevE.01 30-Nov-2015

 --------------------------------
 #P OPT=calcfc Freq B3LYP/6-31G**
 --------------------------------

 --------
 Frag_409
 --------
 Symbolic Z-matrix:
 Charge =  0 Multiplicity = 1

 SCF Done:  E(RB3LYP) =  -247.241492277     A.U. after   14 cycles
 SCF Done:  E(RB3LYP) =  -247.257688412     A.U. after   16 cycles
 SCF Done:  E(RB3LYP) =  -247.255756715     A.U. after   15 cycles
 SCF Done:  E(RB3LYP) =  -247.257813472     A.U. after   11 cycles
 SCF Done:  E(RB3LYP) =  -247.258217625     A.U. after   12 cycles
 SCF Done:  E(RB3LYP) =  -247.258264703     A.U. after   12 cycles
 SCF Done:  E(RB3LYP) =  -247.258275267     A.U. after   11 cycles
 SCF Done:  E(RB3LYP) =  -247.258276330     A.U. after    8 cycles
 Optimization completed.
    -- Stationary point found.
 Normal termination of Gaussian 09 at Fri Sep 10 17:47:37 2021.

 ----------------------------------------------------------------------
 #P Geom=AllCheck Guess=TCheck SCRF=Check GenChk RB3LYP/6-31G(d,p) Freq
 ----------------------------------------------------------------------

 Structure from the checkpoint file:  "/public/home/users/caep010/.cache/gau_scr/Gau-156730.chk"
 --------
 Frag_409
 --------
 Charge =  0 Multiplicity = 1

                         Standard orientation:
 ---------------------------------------------------------------------
 Center     Atomic      Atomic             Coordinates (Angstroms)
 Number     Number       Type             X           Y           Z
 ---------------------------------------------------------------------
      1          6           0       -1.852321   -0.016451    0.170589
      2          7           0       -0.794295   -0.535604   -0.310302
      3          6           0        0.459128    0.050187   -0.046524
      4          6           0        0.735492    1.362059   -0.056683
      5          8           0        1.430234   -0.885013    0.150867
      6          1           0       -2.816614   -0.460340   -0.077284
      7          1           0       -1.849876    0.864629    0.823165
      8          1           0       -0.042675    2.089016   -0.244642
      9          1           0        1.752110    1.708033    0.077224
     10          1           0        1.021450   -1.746773   -0.017571
 ---------------------------------------------------------------------

 SCF Done:  E(RB3LYP) =  -247.258276330     A.U. after    1 cycles

 The electronic state is 1-A.
 Alpha  occ. eigenvalues --  -19.17247 -14.35710 -10.27083 -10.24873 -10.16802
 Alpha  occ. eigenvalues --   -1.06318  -0.93506  -0.74713  -0.66019  -0.57356
 Alpha  occ. eigenvalues --   -0.53514  -0.47632  -0.45316  -0.40787  -0.40191
 Alpha  occ. eigenvalues --   -0.37480  -0.33307  -0.28398  -0.22011
 Alpha virt. eigenvalues --   -0.04525   0.06957   0.09405   0.11295   0.14927
 Alpha virt. eigenvalues --    0.16396   0.17685   0.23392   0.28100   0.32720
 Alpha virt. eigenvalues --    0.39454   0.51556   0.55791   0.57245   0.58001

 Mulliken charges:
               1
     1  C   -0.020758
     2  N   -0.392645
     3  C    0.483973
     4  C   -0.294948
     5  O   -0.528005
     6  H    0.118472
     7  H    0.110915
     8  H    0.094431
     9  H    0.107308
    10  H    0.321257
 Sum of Mulliken charges =  -0.00000

 Dipole moment (field-independent basis, Debye):
    X=             -1.9520    Y=             -0.0640    Z=              0.4784  Tot=              2.0108
 Quadrupole moment (field-independent basis, Debye-Ang):
   XX=            -27.7913   YY=            -26.3238   ZZ=            -31.4362
   XY=             -1.0620   XZ=             -1.2953   YZ=             -0.1053

  Exact polarizability:  56.225   4.674  48.943  -1.890   2.301  21.101
 Approx polarizability:  80.496   5.169  79.649  -4.616   4.463  31.261

                      1                      2                      3
                      A                      A                      A
 Frequencies --    155.9700               297.8228               381.2544
 Red. masses --      3.5837                 2.4344                 1.1355
 Frc consts  --      0.0514                 0.1272                 0.0972
 IR Inten    --      7.3391                 9.9934                97.9791

                      4                      5                      6
                      A                      A                      A
 Frequencies --    450.0623               459.9735               637.0733
 Red. masses --      2.1294                 2.5586                 2.8355
 Frc consts  --      0.2541                 0.3189                 0.6780
 IR Inten    --     13.6734                 2.1249                 2.3564

                      7                      8                      9
                      A                      A                      A
 Frequencies --    712.5111               799.8012               812.0119
 Red. masses --      1.0905                 1.2904                 2.0461
 Frc consts  --      0.3262                 0.4863                 0.7949
 IR Inten    --      9.4297                55.8404                14.7243

                     10                     11                     12
                      A                      A                      A
 Frequencies --    874.8551               982.1975              1068.0238
 Red. masses --      3.5077                 1.8888                 1.3565
 Frc consts  --      1.5818                 1.0736                 0.9116
 IR Inten    --     19.7837                31.2682                19.2380

                     13                     14                     15
                      A                      A                      A
 Frequencies --   1216.6800              1229.9947              1352.1563
 Red. masses --      1.4668                 1.5487                 2.7472
 Frc consts  --      1.2793                 1.3804                 2.9594
 IR Inten    --     17.3360                23.4094               292.1682

                     16                     17                     18
                      A                      A                      A
 Frequencies --   1440.6438              1506.6656              1715.4243
 Red. masses --      1.1732                 1.1871                 6.0471
 Frc consts  --      1.4346                 1.5877                10.4844
 IR Inten    --      1.6987                33.7440                33.8137

                     19                     20                     21
                      A                      A                      A
 Frequencies --   1736.0646              3054.4577              3174.3798
 Red. masses --      5.2820                 1.0595                 1.1120
 Frc consts  --      9.3794                 5.8242                 6.6022
 IR Inten    --     75.6001                24.0165                21.9280

                     22                     23                     24
                      A                      A                      A
 Frequencies --   3198.8261              3293.6252              3793.5123
 Red. masses --      1.0588                 1.1184                 1.0651
 Frc consts  --      6.3834                 7.1482                 9.0306
 IR Inten    --      0.1654                 2.8496                64.2784

 - Thermochemistry -
 -------------------
 Temperature   298.150 Kelvin.  Pressure   1.00000 Atm.
 Atom     1 has atomic number  6 and mass  12.00000

 Molecular mass:    71.03711 amu.
 Principal axes and moments of inertia in atomic units:
                           1         2         3
     Eigenvalues --   189.23933 393.42733 562.23716
           X            0.99985   0.01306  -0.01126
           Y           -0.01297   0.99988   0.00857
           Z            0.01138  -0.00843   0.99990
 This molecule is an asymmetric top.
 Rotational symmetry number  1.
 Rotational temperatures (Kelvin)      0.45769     0.22015     0.15405
 Rotational constants (GHZ):           9.53682     4.58723     3.20993
 Zero-point vibrational energy     205422.7 (Joules/Mol)
                                   49.09719 (Kcal/Mol)
 Warning -- explicit consideration of   5 degrees of freedom as
           vibrations may cause significant error
 Vibrational temperatures:    224.41   428.50   548.54   647.54   661.80
          (Kelvin)            916.61  1025.14  1150.73  1168.30  1258.72
                             1413.16  1536.65  1750.53  1769.69  1945.45
                             2072.76  2167.75  2468.11  2497.81  4394.68
                             4567.22  4602.39  4738.79  5458.01

 Zero-point correction=                           0.078241 (Hartree/Particle)
 Thermal correction to Energy=                    0.083560
 Thermal correction to Enthalpy=                  0.084505
 Thermal correction to Gibbs Free Energy=         0.050244
 Sum of electronic and zero-point Energies=           -247.180035
 Sum of electronic and thermal Energies=              -247.174716
 Sum of electronic and thermal Enthalpies=            -247.173772
 Sum of electronic and thermal Free Energies=         -247.208032

                     E (Thermal)             CV                S
                      KCal/Mol        Cal/Mol-Kelvin    Cal/Mol-Kelvin
 Total                   52.435             18.765             72.108
 Electronic               0.000              0.000              0.000
 Translational            0.889              2.981             38.699
 Rotational               0.889              2.981             25.240
 Vibrational             50.658             12.803              8.169
 Vibration     1          0.620              1.896              2.598
 Vibration     2          0.691              1.678              1.429
 Vibration     3          0.751              1.510              1.034
 Vibration     4          0.809              1.361              0.796
 Vibration     5          0.818              1.339              0.766

 Optimization completed.
    -- Stationary point found.
 Normal termination of Gaussian 09 at Fri Sep 10 17:47:44 2021.
