 Gaussian 09, Revision E.01,
 Gaussian 09:  ES64L-G09RevE.01 30-Nov-2015

 --------------------------------
 #P OPT=calcfc Freq B3LYP/6-31G**
 --------------------------------

 --------
 Frag_353
 --------
 Symbolic Z-matrix:
 Charge =  0 Multiplicity = 1

 SCF Done:  E(RB3LYP) =  -251.887772296     A.U. after   13 cycles
 SCF Done:  E(RB3LYP) =  -251.893733932     A.U. after   13 cycles
 SCF Done:  E(RB3LYP) =  -251.893943326     A.U. after   14 cycles
 SCF Done:  E(RB3LYP) =  -251.895746635     A.U. after   13 cycles
 SCF Done:  E(RB3LYP) =  -251.852412808     A.U. after   13 cycles
 SCF Done:  E(RB3LYP) =  -251.896711541     A.U. after   10 cycles
 SCF Done:  E(RB3LYP) =  -251.898343159     A.U. after   11 cycles
 SCF Done:  E(RB3LYP) =  -251.899059984     A.U. after   11 cycles
 SCF Done:  E(RB3LYP) =  -251.899574741     A.U. after   12 cycles
 SCF Done:  E(RB3LYP) =  -251.900123544     A.U. after   11 cycles
 SCF Done:  E(RB3LYP) =  -251.900622727     A.U. after   11 cycles
 SCF Done:  E(RB3LYP) =  -251.900764755     A.U. after   10 cycles
 SCF Done:  E(RB3LYP) =  -251.900802545     A.U. after    9 cycles
 SCF Done:  E(RB3LYP) =  -251.900803961     A.U. after    7 cycles
 SCF Done:  E(RB3LYP) =  -251.900804039     A.U. after    6 cycles
 Optimization completed.
    -- Stationary point found.
 Normal termination of Gaussian 09 at Fri Sep 10 21:22:35 2021.

 ----------------------------------------------------------------------
 #P Geom=AllCheck Guess=TCheck SCRF=Check GenChk RB3LYP/6-31G(d,p) Freq
 ----------------------------------------------------------------------

 Structure from the checkpoint file:  "/public/home/users/caep010/.cache/gau_scr/Gau-26189.chk"
 --------
 Frag_353
 --------
 Charge =  0 Multiplicity = 1

                         Standard orientation:
 ---------------------------------------------------------------------
 Center     Atomic      Atomic             Coordinates (Angstroms)
 Number     Number       Type             X           Y           Z
 ---------------------------------------------------------------------
      1          6           0       -1.040451    1.460519   -0.413933
      2          6           0       -0.760666    0.236224    0.043868
      3          6           0       -1.842852   -0.786056    0.289688
      4          6           0        0.656337   -0.240651    0.345773
      5          6           0        1.732755    0.851962    0.293260
      6          7           0        0.947890   -1.399184   -0.524407
      7          1           0       -0.277108    2.209901   -0.592831
      8          1           0       -2.063868    1.758929   -0.623557
      9          1           0       -2.829112   -0.402567    0.015290
     10          1           0       -1.871426   -1.073771    1.349085
     11          1           0       -1.640406   -1.700410   -0.275680
     12          1           0        0.639027   -0.640856    1.371296
     13          1           0        2.705445    0.429251    0.567132
     14          1           0        1.825339    1.270429   -0.715393
     15          1           0        1.517795    1.673770    0.984198
     16          1           0        1.034053   -1.072457   -1.486049
     17          1           0        1.854294   -1.789921   -0.274582
 ---------------------------------------------------------------------

 SCF Done:  E(RB3LYP) =  -251.900804039     A.U. after    1 cycles

 The electronic state is 1-A.
 Alpha  occ. eigenvalues --  -14.31086 -10.21437 -10.18727 -10.17425 -10.16756
 Alpha  occ. eigenvalues --  -10.16698  -0.88405  -0.78363  -0.72013  -0.67128
 Alpha  occ. eigenvalues --   -0.61977  -0.52057  -0.48305  -0.45097  -0.43223
 Alpha  occ. eigenvalues --   -0.42574  -0.39727  -0.38877  -0.37975  -0.35618
 Alpha  occ. eigenvalues --   -0.34161  -0.32215  -0.24308  -0.23481
 Alpha virt. eigenvalues --    0.02570   0.08663   0.12205   0.13364   0.13642
 Alpha virt. eigenvalues --    0.15282   0.16329   0.16869   0.18668   0.19218
 Alpha virt. eigenvalues --    0.20428   0.20654   0.24648   0.25579   0.27725

 Mulliken charges:
               1
     1  C   -0.290349
     2  C    0.171949
     3  C   -0.356541
     4  C    0.002148
     5  C   -0.322628
     6  N   -0.587067
     7  H    0.087630
     8  H    0.085608
     9  H    0.098538
    10  H    0.105391
    11  H    0.138699
    12  H    0.097831
    13  H    0.091338
    14  H    0.101406
    15  H    0.108063
    16  H    0.234085
    17  H    0.233901
 Sum of Mulliken charges =  -0.00000

 Dipole moment (field-independent basis, Debye):
    X=              1.1797    Y=              0.3278    Z=             -0.0512  Tot=              1.2255
 Quadrupole moment (field-independent basis, Debye-Ang):
   XX=            -35.8278   YY=            -41.0030   ZZ=            -38.1609
   XY=             -1.3823   XZ=             -0.5555   YZ=             -0.7956

  Exact polarizability:  64.985  -3.344  67.980   1.777  -5.714  48.410
 Approx polarizability:  80.145  -7.660 101.012   3.370 -12.041  71.775

                      1                      2                      3
                      A                      A                      A
 Frequencies --     68.6341               179.4884               259.5758
 Red. masses --      2.7336                 1.0648                 1.8463
 Frc consts  --      0.0076                 0.0202                 0.0733
 IR Inten    --      0.5349                 0.2553                10.3024

                      4                      5                      6
                      A                      A                      A
 Frequencies --    285.8862               298.8507               344.1513
 Red. masses --      1.8271                 1.0275                 1.7715
 Frc consts  --      0.0880                 0.0541                 0.1236
 IR Inten    --     21.7792                 1.1666                20.2954

                      7                      8                      9
                      A                      A                      A
 Frequencies --    367.7010               443.4582               496.5515
 Red. masses --      2.5160                 2.1489                 2.6928
 Frc consts  --      0.2004                 0.2490                 0.3912
 IR Inten    --      2.6038                 5.5212                 2.9468

                     10                     11                     12
                      A                      A                      A
 Frequencies --    576.5110               723.0839               772.6901
 Red. masses --      2.1682                 1.5309                 1.6035
 Frc consts  --      0.4246                 0.4716                 0.5641
 IR Inten    --      4.7989                 0.9294                 0.6729

                     13                     14                     15
                      A                      A                      A
 Frequencies --    872.4343               921.6265               930.8569
 Red. masses --      1.9855                 1.4747                 1.3371
 Frc consts  --      0.8904                 0.7380                 0.6826
 IR Inten    --    115.8813                37.0294                35.3819

                     16                     17                     18
                      A                      A                      A
 Frequencies --    968.3240              1010.9114              1027.4644
 Red. masses --      1.6634                 1.2649                 1.6000
 Frc consts  --      0.9189                 0.7616                 0.9952
 IR Inten    --      1.2622                 5.2164                 4.7097

                     19                     20                     21
                      A                      A                      A
 Frequencies --   1071.3613              1111.8475              1154.4470
 Red. masses --      1.3935                 2.6058                 1.5555
 Frc consts  --      0.9424                 1.8979                 1.2215
 IR Inten    --      0.6767                15.8458                14.4156

                     22                     23                     24
                      A                      A                      A
 Frequencies --   1220.0614              1272.7302              1379.1032
 Red. masses --      1.5993                 2.0758                 1.3098
 Frc consts  --      1.4026                 1.9811                 1.4678
 IR Inten    --      5.6617                 2.2690                 5.1696

                     25                     26                     27
                      A                      A                      A
 Frequencies --   1409.5114              1415.6511              1420.0425
 Red. masses --      1.5420                 1.2678                 1.2472
 Frc consts  --      1.8050                 1.4970                 1.4818
 IR Inten    --      7.0925                 1.3757                11.3897

                     28                     29                     30
                      A                      A                      A
 Frequencies --   1461.7830              1487.9897              1508.0508
 Red. masses --      1.1901                 1.0467                 1.0471
 Frc consts  --      1.4982                 1.3654                 1.4030
 IR Inten    --      1.0463                 6.0344                 2.0863

                     31                     32                     33
                      A                      A                      A
 Frequencies --   1511.5190              1521.0848              1661.2940
 Red. masses --      1.0497                 1.0684                 1.0935
 Frc consts  --      1.4130                 1.4565                 1.7781
 IR Inten    --     13.1231                 2.0267                22.5475

                     34                     35                     36
                      A                      A                      A
 Frequencies --   1731.9453              3002.2840              3032.5147
 Red. masses --      4.9948                 1.0829                 1.0438
 Frc consts  --      8.8275                 5.7508                 5.6556
 IR Inten    --     10.9164                25.5060                31.7356

                     37                     38                     39
                      A                      A                      A
 Frequencies --   3036.3919              3098.4156              3106.1138
 Red. masses --      1.0354                 1.0904                 1.1024
 Frc consts  --      5.6246                 6.1678                 6.2664
 IR Inten    --     19.1719                19.0699                34.5799

                     40                     41                     42
                      A                      A                      A
 Frequencies --   3113.9213              3135.0938              3161.0304
 Red. masses --      1.1022                 1.1037                 1.0615
 Frc consts  --      6.2970                 6.3912                 6.2494
 IR Inten    --     31.5866                17.0470                10.3130

                     43                     44                     45
                      A                      A                      A
 Frequencies --   3243.6580              3470.0567              3559.1009
 Red. masses --      1.1137                 1.0491                 1.0925
 Frc consts  --      6.9036                 7.4432                 8.1534
 IR Inten    --     17.0790                 2.8481                 0.6432

 - Thermochemistry -
 -------------------
 Temperature   298.150 Kelvin.  Pressure   1.00000 Atm.
 Atom     1 has atomic number  6 and mass  12.00000

 Molecular mass:    85.08915 amu.
 Principal axes and moments of inertia in atomic units:
                           1         2         3
     Eigenvalues --   393.33901 604.72375 869.12364
           X            0.99882   0.04845  -0.00114
           Y           -0.04846   0.99869  -0.01616
           Z            0.00036   0.01619   0.99987
 This molecule is an asymmetric top.
 Rotational symmetry number  1.
 Rotational temperatures (Kelvin)      0.22020     0.14323     0.09966
 Rotational constants (GHZ):           4.58826     2.98441     2.07651
 Zero-point vibrational energy     405804.4 (Joules/Mol)
                                   96.98959 (Kcal/Mol)
 Warning -- explicit consideration of  10 degrees of freedom as
           vibrations may cause significant error
 Vibrational temperatures:     98.75   258.24   373.47   411.33   429.98
          (Kelvin)            495.16   529.04   638.04   714.43   829.47
                             1040.36  1111.73  1255.24  1326.01  1339.29
                             1393.20  1454.47  1478.29  1541.45  1599.70
                             1660.99  1755.39  1831.17  1984.22  2027.97
                             2036.80  2043.12  2103.18  2140.88  2169.75
                             2174.74  2188.50  2390.23  2491.88  4319.61
                             4363.11  4368.69  4457.92  4469.00  4480.23
                             4510.70  4548.01  4666.89  4992.63  5120.75

 Zero-point correction=                           0.154563 (Hartree/Particle)
 Thermal correction to Energy=                    0.162114
 Thermal correction to Enthalpy=                  0.163058
 Thermal correction to Gibbs Free Energy=         0.123613
 Sum of electronic and zero-point Energies=           -251.746241
 Sum of electronic and thermal Energies=              -251.738690
 Sum of electronic and thermal Enthalpies=            -251.737746
 Sum of electronic and thermal Free Energies=         -251.777191

                     E (Thermal)             CV                S
                      KCal/Mol        Cal/Mol-Kelvin    Cal/Mol-Kelvin
 Total                  101.728             27.875             83.018
 Electronic               0.000              0.000              0.000
 Translational            0.889              2.981             39.237
 Rotational               0.889              2.981             26.827
 Vibrational             99.950             21.914             16.954
 Vibration     1          0.598              1.969              4.192
 Vibration     2          0.629              1.867              2.334
 Vibration     3          0.668              1.747              1.665
 Vibration     4          0.684              1.700              1.498
 Vibration     5          0.692              1.676              1.423
 Vibration     6          0.723              1.587              1.193
 Vibration     7          0.740              1.539              1.089
 Vibration     8          0.803              1.375              0.816
 Vibration     9          0.852              1.258              0.667
 Vibration    10          0.933              1.082              0.492

 Optimization completed.
    -- Stationary point found.
 Normal termination of Gaussian 09 at Fri Sep 10 21:22:49 2021.
