 Gaussian 09, Revision E.01,
 Gaussian 09:  ES64L-G09RevE.01 30-Nov-2015

 ----------------------------
 #P OPT Freq B3LYP/6-31G(d,p)
 ----------------------------

 ---------
 Frag_1032
 ---------
 Symbolic Z-matrix:
 Charge =  0 Multiplicity = 1

 SCF Done:  E(RB3LYP) =  -276.643823918     A.U. after   14 cycles
 SCF Done:  E(RB3LYP) =  -276.643875610     A.U. after   11 cycles
 SCF Done:  E(RB3LYP) =  -276.643845010     A.U. after   12 cycles
 SCF Done:  E(RB3LYP) =  -276.643897305     A.U. after   11 cycles
 SCF Done:  E(RB3LYP) =  -276.643903510     A.U. after    9 cycles
 SCF Done:  E(RB3LYP) =  -276.643906619     A.U. after    9 cycles
 SCF Done:  E(RB3LYP) =  -276.643907499     A.U. after    8 cycles
 SCF Done:  E(RB3LYP) =  -276.643907681     A.U. after    7 cycles
 SCF Done:  E(RB3LYP) =  -276.643907732     A.U. after    8 cycles
 Optimization completed.
    -- Stationary point found.
 Normal termination of Gaussian 09 at Thu Sep  8 14:52:13 2022.

 ----------------------------------------------------------------------
 #P Geom=AllCheck Guess=TCheck SCRF=Check GenChk RB3LYP/6-31G(d,p) Freq
 ----------------------------------------------------------------------

 Structure from the checkpoint file:  "B3LYP6-31Gdp.Frag_1032.chk"
 ---------
 Frag_1032
 ---------
 Charge =  0 Multiplicity = 1

                         Standard orientation:
 ---------------------------------------------------------------------
 Center     Atomic      Atomic             Coordinates (Angstroms)
 Number     Number       Type             X           Y           Z
 ---------------------------------------------------------------------
      1          7           0       -1.850317   -0.221527    0.097680
      2          7           0       -0.766603   -0.789934   -0.070103
      3          7           0        0.382745    0.015949   -0.344232
      4          7           0        1.552467   -0.621758    0.164655
      5          7           0        0.252212    1.359226    0.072491
      6          1           0       -1.704117    0.813072    0.067881
      7          1           0        2.017420   -1.066878   -0.624172
      8          1           0        1.251085   -1.371603    0.788016
      9          1           0        0.690253    1.948770   -0.628585
     10          1           0        0.751833    1.482943    0.953427
 ---------------------------------------------------------------------

 SCF Done:  E(RB3LYP) =  -276.643907732     A.U. after    1 cycles

 The electronic state is 1-A.
 Alpha  occ. eigenvalues --  -14.42347 -14.41052 -14.37269 -14.36514 -14.35531
 Alpha  occ. eigenvalues --   -1.07892  -0.98107  -0.88774  -0.75656  -0.62134
 Alpha  occ. eigenvalues --   -0.55519  -0.54251  -0.51551  -0.48752  -0.39798
 Alpha  occ. eigenvalues --   -0.36336  -0.31312  -0.29517  -0.24831  -0.24725
 Alpha virt. eigenvalues --   -0.02509   0.06804   0.09350   0.12753   0.13786
 Alpha virt. eigenvalues --    0.16114   0.18116   0.21213   0.23305   0.40132
 Alpha virt. eigenvalues --    0.58175   0.60430   0.61876   0.64273   0.67704

 Mulliken charges:
               1
     1  N   -0.274720
     2  N   -0.039313
     3  N   -0.122090
     4  N   -0.446382
     5  N   -0.444537
     6  H    0.248835
     7  H    0.273745
     8  H    0.263551
     9  H    0.278674
    10  H    0.262237
 Sum of Mulliken charges =   0.00000

 Dipole moment (field-independent basis, Debye):
    X=              3.0055    Y=              1.5122    Z=              0.0043  Tot=              3.3645
 Quadrupole moment (field-independent basis, Debye-Ang):
   XX=            -33.6665   YY=            -26.1721   ZZ=            -28.2999
   XY=             -3.2560   XZ=             -0.6859   YZ=             -0.5193

  Exact polarizability:  48.791  -2.014  38.118  -1.972  -0.459  24.518
 Approx polarizability:  78.672  -3.838  54.452  -6.056  -0.625  36.526

                      1                      2                      3
                      A                      A                      A
 Frequencies --    171.3853               228.1584               324.6631
 Red. masses --      1.6446                 1.8119                 1.1332
 Frc consts  --      0.0285                 0.0556                 0.0704
 IR Inten    --     19.5526                51.0141                22.3121

                      4                      5                      6
                      A                      A                      A
 Frequencies --    370.1314               413.1016               492.9567
 Red. masses --      3.9549                 3.3088                 2.9691
 Frc consts  --      0.3192                 0.3327                 0.4251
 IR Inten    --      2.9306                38.1007                27.1563

                      7                      8                      9
                      A                      A                      A
 Frequencies --    659.6631               751.0420               823.7949
 Red. masses --      4.7058                 4.4908                 3.2651
 Frc consts  --      1.2065                 1.4925                 1.3055
 IR Inten    --     87.8277                30.8492                86.1424

                     10                     11                     12
                      A                      A                      A
 Frequencies --    946.4482              1077.4284              1113.0859
 Red. masses --      1.8029                 1.3248                 2.0658
 Frc consts  --      0.9515                 0.9061                 1.5079
 IR Inten    --     66.4341                80.9836                23.0959

                     13                     14                     15
                      A                      A                      A
 Frequencies --   1243.1033              1293.4962              1326.6379
 Red. masses --      2.7258                 1.1840                 1.2015
 Frc consts  --      2.4817                 1.1671                 1.2459
 IR Inten    --     22.2035                 1.4462                13.1225

                     16                     17                     18
                      A                      A                      A
 Frequencies --   1464.9504              1660.4580              1680.1179
 Red. masses --      1.3121                 3.7621                 1.1086
 Frc consts  --      1.6591                 6.1113                 1.8437
 IR Inten    --    156.1532                39.5645                37.2974

                     19                     20                     21
                      A                      A                      A
 Frequencies --   1692.0040              3151.2146              3456.8264
 Red. masses --      1.2584                 1.0664                 1.0484
 Frc consts  --      2.1226                 6.2394                 7.3814
 IR Inten    --     13.9918                 7.7053                 2.9213

                     22                     23                     24
                      A                      A                      A
 Frequencies --   3466.1449              3548.1423              3578.7689
 Red. masses --      1.0505                 1.0949                 1.0924
 Frc consts  --      7.4358                 8.1215                 8.2435
 IR Inten    --      3.7694                 4.6116                 7.2165

 - Thermochemistry -
 -------------------
 Temperature   298.150 Kelvin.  Pressure   1.00000 Atm.
 Atom     1 has atomic number  7 and mass  14.00307

 Molecular mass:    75.05450 amu.
 Principal axes and moments of inertia in atomic units:
                           1         2         3
     Eigenvalues --   196.16241 382.77548 545.74299
           X            0.99866  -0.05178  -0.00076
           Y            0.05178   0.99865  -0.00337
           Z            0.00093   0.00333   0.99999
 This molecule is an asymmetric top.
 Rotational symmetry number  1.
 Rotational temperatures (Kelvin)      0.44154     0.22628     0.15871
 Rotational constants (GHZ):           9.20024     4.71488     3.30694
 Zero-point vibrational energy     208950.1 (Joules/Mol)
                                   49.94027 (Kcal/Mol)
 Warning -- explicit consideration of   6 degrees of freedom as
           vibrations may cause significant error
 Vibrational temperatures:    246.58   328.27   467.12   532.54   594.36
          (Kelvin)            709.25   949.11  1080.58  1185.26  1361.73
                             1550.18  1601.48  1788.55  1861.05  1908.73
                             2107.73  2389.03  2417.31  2434.41  4533.89
                             4973.60  4987.00  5104.98  5149.04

 Zero-point correction=                           0.079585 (Hartree/Particle)
 Thermal correction to Energy=                    0.085238
 Thermal correction to Enthalpy=                  0.086183
 Thermal correction to Gibbs Free Energy=         0.051255
 Sum of electronic and zero-point Energies=           -276.564323
 Sum of electronic and thermal Energies=              -276.558669
 Sum of electronic and thermal Enthalpies=            -276.557725
 Sum of electronic and thermal Free Energies=         -276.592653

                     E (Thermal)             CV                S
                      KCal/Mol        Cal/Mol-Kelvin    Cal/Mol-Kelvin
 Total                   53.488             19.438             73.511
 Electronic               0.000              0.000              0.000
 Translational            0.889              2.981             38.863
 Rotational               0.889              2.981             25.219
 Vibrational             51.710             13.476              9.429
 Vibration     1          0.626              1.878              2.420
 Vibration     2          0.651              1.798              1.893
 Vibration     3          0.709              1.626              1.287
 Vibration     4          0.742              1.534              1.079
 Vibration     5          0.777              1.442              0.916
 Vibration     6          0.849              1.266              0.676

 Normal termination of Gaussian 09 at Thu Sep  8 14:52:20 2022.
