 Gaussian 09, Revision E.01,
 Gaussian 09:  ES64L-G09RevE.01 30-Nov-2015

 --------------------------------
 #P OPT=calcfc Freq B3LYP/6-31G**
 --------------------------------

 --------
 Frag_297
 --------
 Symbolic Z-matrix:
 Charge =  0 Multiplicity = 1

 SCF Done:  E(RB3LYP) =  -343.195178118     A.U. after   14 cycles
 SCF Done:  E(RB3LYP) =  -343.205839942     A.U. after   14 cycles
 SCF Done:  E(RB3LYP) =  -343.204788213     A.U. after   14 cycles
 SCF Done:  E(RB3LYP) =  -343.206520324     A.U. after   11 cycles
 SCF Done:  E(RB3LYP) =  -343.206949140     A.U. after   13 cycles
 SCF Done:  E(RB3LYP) =  -343.202276249     A.U. after   14 cycles
 SCF Done:  E(RB3LYP) =  -343.206954628     A.U. after    8 cycles
 SCF Done:  E(RB3LYP) =  -343.207187721     A.U. after   11 cycles
 SCF Done:  E(RB3LYP) =  -343.207225271     A.U. after   10 cycles
 SCF Done:  E(RB3LYP) =  -343.207239235     A.U. after   11 cycles
 SCF Done:  E(RB3LYP) =  -343.207245599     A.U. after   11 cycles
 SCF Done:  E(RB3LYP) =  -343.207247384     A.U. after   10 cycles
 SCF Done:  E(RB3LYP) =  -343.207247587     A.U. after    8 cycles
 SCF Done:  E(RB3LYP) =  -343.207247781     A.U. after    8 cycles
 SCF Done:  E(RB3LYP) =  -343.207247895     A.U. after   10 cycles
 SCF Done:  E(RB3LYP) =  -343.207247952     A.U. after    8 cycles
 Optimization completed.
    -- Stationary point found.
 Normal termination of Gaussian 09 at Fri Sep 10 20:59:53 2021.

 ----------------------------------------------------------------------
 #P Geom=AllCheck Guess=TCheck SCRF=Check GenChk RB3LYP/6-31G(d,p) Freq
 ----------------------------------------------------------------------

 Structure from the checkpoint file:  "/public/home/users/caep010/.cache/gau_scr/Gau-223297.chk"
 --------
 Frag_297
 --------
 Charge =  0 Multiplicity = 1

                         Standard orientation:
 ---------------------------------------------------------------------
 Center     Atomic      Atomic             Coordinates (Angstroms)
 Number     Number       Type             X           Y           Z
 ---------------------------------------------------------------------
      1          6           0        1.101407   -1.256305    0.727173
      2          6           0        0.590799    0.005375    0.013915
      3          6           0        1.013869   -0.005210   -1.469443
      4          7           0        1.210720    1.174448    0.647865
      5          6           0       -0.959984    0.140752    0.044660
      6          7           0       -1.693624   -1.006394   -0.036696
      7          8           0       -1.493064    1.243247    0.087772
      8          1           0        0.825210   -2.175277    0.199270
      9          1           0        0.721220   -1.321779    1.752767
     10          1           0        2.193103   -1.219743    0.771166
     11          1           0        0.579118   -0.854818   -2.005883
     12          1           0        0.683480    0.913411   -1.963749
     13          1           0        2.103895   -0.058595   -1.535421
     14          1           0        1.025497    1.138655    1.650188
     15          1           0        0.695746    1.994158    0.325576
     16          1           0       -2.699060   -0.923434   -0.047457
     17          1           0       -1.279913   -1.922603   -0.024647
 ---------------------------------------------------------------------

 SCF Done:  E(RB3LYP) =  -343.207247952     A.U. after    1 cycles

 The electronic state is 1-A.
 Alpha  occ. eigenvalues --  -19.11064 -14.35917 -14.30431 -10.28222 -10.22868
 Alpha  occ. eigenvalues --  -10.18775 -10.17722  -1.02960  -0.90394  -0.88511
 Alpha  occ. eigenvalues --   -0.75632  -0.69536  -0.63014  -0.56373  -0.53946
 Alpha  occ. eigenvalues --   -0.48399  -0.46851  -0.44858  -0.42052  -0.41488
 Alpha  occ. eigenvalues --   -0.38707  -0.37848  -0.37199  -0.35616  -0.33808
 Alpha  occ. eigenvalues --   -0.26855  -0.25209  -0.23446
 Alpha virt. eigenvalues --    0.02938   0.05873   0.10288   0.12098   0.13366
 Alpha virt. eigenvalues --    0.14984   0.15241   0.16264   0.18393   0.19160
 Alpha virt. eigenvalues --    0.21196   0.21702   0.24345   0.25310   0.27545

 Mulliken charges:
               1
     1  C   -0.327339
     2  C    0.057779
     3  C   -0.286131
     4  N   -0.572450
     5  C    0.572329
     6  N   -0.610001
     7  O   -0.519240
     8  H    0.089511
     9  H    0.106384
    10  H    0.131517
    11  H    0.092797
    12  H    0.116566
    13  H    0.119718
    14  H    0.230332
    15  H    0.252500
    16  H    0.276660
    17  H    0.269069
 Sum of Mulliken charges =  -0.00000

 Dipole moment (field-independent basis, Debye):
    X=             -0.4895    Y=             -3.4839    Z=              0.1951  Tot=              3.5235
 Quadrupole moment (field-independent basis, Debye-Ang):
   XX=            -45.0653   YY=            -41.9912   ZZ=            -41.6947
   XY=              4.2663   XZ=             -0.0245   YZ=              0.1292

  Exact polarizability:  60.440   1.146  63.186   0.610   0.961  50.329
 Approx polarizability:  80.830  -0.389  98.344   1.293   2.759  68.494

                      1                      2                      3
                      A                      A                      A
 Frequencies --     23.9463               162.1093               226.7262
 Red. masses --      4.2929                 1.3033                 1.3887
 Frc consts  --      0.0015                 0.0202                 0.0421
 IR Inten    --      8.6093               178.5162                 5.7285

                      4                      5                      6
                      A                      A                      A
 Frequencies --    233.5614               272.6448               277.1800
 Red. masses --      1.5193                 1.6095                 1.1438
 Frc consts  --      0.0488                 0.0705                 0.0518
 IR Inten    --      7.2567                35.0128                 2.3014

                      7                      8                      9
                      A                      A                      A
 Frequencies --    312.6607               346.3478               380.9501
 Red. masses --      1.4241                 2.5526                 3.1837
 Frc consts  --      0.0820                 0.1804                 0.2722
 IR Inten    --     20.5117                 4.3113                10.2735

                     10                     11                     12
                      A                      A                      A
 Frequencies --    403.2645               489.7363               573.7146
 Red. masses --      2.5448                 2.6836                 2.3196
 Frc consts  --      0.2438                 0.3792                 0.4498
 IR Inten    --      2.0173                 5.5574                 6.7331

                     13                     14                     15
                      A                      A                      A
 Frequencies --    589.3549               702.1498               774.7769
 Red. masses --      1.3867                 3.0474                 4.7894
 Frc consts  --      0.2838                 0.8852                 1.6939
 IR Inten    --     16.1335                 7.9398                 4.2664

                     16                     17                     18
                      A                      A                      A
 Frequencies --    867.6850               928.4033               950.1701
 Red. masses --      2.3423                 1.8179                 1.5370
 Frc consts  --      1.0390                 0.9232                 0.8176
 IR Inten    --      2.2092                99.3096                20.6576

                     19                     20                     21
                      A                      A                      A
 Frequencies --   1014.1242              1046.1627              1080.3385
 Red. masses --      1.2707                 1.3583                 1.7697
 Frc consts  --      0.7700                 0.8759                 1.2169
 IR Inten    --      4.4548                51.4812                 5.0152

                     22                     23                     24
                      A                      A                      A
 Frequencies --   1094.7339              1204.8342              1263.3291
 Red. masses --      1.8117                 2.3431                 2.9545
 Frc consts  --      1.2792                 2.0040                 2.7782
 IR Inten    --      1.8075                83.2371                11.9125

                     25                     26                     27
                      A                      A                      A
 Frequencies --   1345.3132              1365.8046              1407.2121
 Red. masses --      2.4908                 1.9682                 1.3009
 Frc consts  --      2.6561                 2.1632                 1.5178
 IR Inten    --     52.1079                15.2997                 8.4075

                     28                     29                     30
                      A                      A                      A
 Frequencies --   1430.9967              1496.4815              1501.3577
 Red. masses --      1.2884                 1.0547                 1.0545
 Frc consts  --      1.5545                 1.3917                 1.4005
 IR Inten    --      8.8235                 1.4761                 1.3515

                     31                     32                     33
                      A                      A                      A
 Frequencies --   1518.1347              1522.2901              1621.8406
 Red. masses --      1.0610                 1.0526                 1.2669
 Frc consts  --      1.4407                 1.4372                 1.9634
 IR Inten    --      8.7976                 5.9757               110.3958

                     34                     35                     36
                      A                      A                      A
 Frequencies --   1686.3470              1784.3120              3040.9980
 Red. masses --      1.0881                 9.3865                 1.0364
 Frc consts  --      1.8231                17.6074                 5.6468
 IR Inten    --     25.4182               261.1881                23.0708

                     37                     38                     39
                      A                      A                      A
 Frequencies --   3049.0571              3108.1095              3123.0227
 Red. masses --      1.0349                 1.1025                 1.1024
 Frc consts  --      5.6686                 6.2749                 6.3351
 IR Inten    --     14.2937                28.2077                24.6960

                     40                     41                     42
                      A                      A                      A
 Frequencies --   3130.1134              3136.1737              3465.5185
 Red. masses --      1.1015                 1.1032                 1.0503
 Frc consts  --      6.3583                 6.3928                 7.4323
 IR Inten    --     11.8859                26.0155                 3.1174

                     43                     44                     45
                      A                      A                      A
 Frequencies --   3540.1943              3608.2545              3752.4399
 Red. masses --      1.0900                 1.0456                 1.1040
 Frc consts  --      8.0488                 8.0206                 9.1591
 IR Inten    --      3.0903                25.0392                34.5438

 - Thermochemistry -
 -------------------
 Temperature   298.150 Kelvin.  Pressure   1.00000 Atm.
 Atom     1 has atomic number  6 and mass  12.00000

 Molecular mass:   102.07931 amu.
 Principal axes and moments of inertia in atomic units:
                           1         2         3
     Eigenvalues --   542.31625 769.06787 917.32724
           X            0.99956   0.02890  -0.00592
           Y           -0.02903   0.99927  -0.02472
           Z            0.00520   0.02489   0.99968
 This molecule is an asymmetric top.
 Rotational symmetry number  1.
 Warning -- assumption of classical behavior for rotation
           may cause significant error
 Rotational temperatures (Kelvin)      0.15971     0.11262     0.09442
 Rotational constants (GHZ):           3.32784     2.34666     1.96739
 Zero-point vibrational energy     387906.3 (Joules/Mol)
                                   92.71184 (Kcal/Mol)
 Warning -- explicit consideration of  13 degrees of freedom as
           vibrations may cause significant error
 Vibrational temperatures:     34.45   233.24   326.21   336.04   392.27
          (Kelvin)            398.80   449.85   498.32   548.10   580.21
                              704.62   825.45   847.95  1010.24  1114.73
                             1248.40  1335.76  1367.08  1459.10  1505.19
                             1554.36  1575.08  1733.49  1817.65  1935.60
                             1965.09  2024.66  2058.88  2153.10  2160.12
                             2184.25  2190.23  2333.46  2426.27  2567.22
                             4375.31  4386.91  4471.87  4493.33  4503.53
                             4512.25  4986.10  5093.54  5191.47  5398.92

 Zero-point correction=                           0.147746 (Hartree/Particle)
 Thermal correction to Energy=                    0.156560
 Thermal correction to Enthalpy=                  0.157504
 Thermal correction to Gibbs Free Energy=         0.114500
 Sum of electronic and zero-point Energies=           -343.059502
 Sum of electronic and thermal Energies=              -343.050688
 Sum of electronic and thermal Enthalpies=            -343.049743
 Sum of electronic and thermal Free Energies=         -343.092748

                     E (Thermal)             CV                S
                      KCal/Mol        Cal/Mol-Kelvin    Cal/Mol-Kelvin
 Total                   98.243             31.939             90.511
 Electronic               0.000              0.000              0.000
 Translational            0.889              2.981             39.779
 Rotational               0.889              2.981             27.439
 Vibrational             96.466             25.977             23.292
 Vibration     1          0.593              1.985              6.277
 Vibration     2          0.622              1.889              2.525
 Vibration     3          0.650              1.800              1.905
 Vibration     4          0.654              1.790              1.851
 Vibration     5          0.676              1.724              1.579
 Vibration     6          0.678              1.716              1.551
 Vibration     7          0.701              1.650              1.348
 Vibration     8          0.724              1.583              1.183
 Vibration     9          0.751              1.511              1.035
 Vibration    10          0.769              1.463              0.951
 Vibration    11          0.846              1.273              0.684
 Vibration    12          0.930              1.088              0.497
 Vibration    13          0.947              1.054              0.468

 Optimization completed.
    -- Stationary point found.
 Normal termination of Gaussian 09 at Fri Sep 10 21:00:09 2021.
