 Gaussian 09, Revision E.01,
 Gaussian 09:  ES64L-G09RevE.01 30-Nov-2015

 --------------------------------
 #P OPT=calcfc Freq B3LYP/6-31G**
 --------------------------------

 --------
 Frag_377
 --------
 Symbolic Z-matrix:
 Charge =  0 Multiplicity = 1

 SCF Done:  E(RB3LYP) =  -264.567640951     A.U. after   14 cycles
 SCF Done:  E(RB3LYP) =  -264.581278487     A.U. after   13 cycles
 SCF Done:  E(RB3LYP) =  -264.578037741     A.U. after   12 cycles
 SCF Done:  E(RB3LYP) =  -264.581328461     A.U. after    9 cycles
 SCF Done:  E(RB3LYP) =  -264.581695196     A.U. after   12 cycles
 SCF Done:  E(RB3LYP) =  -264.577701658     A.U. after   14 cycles
 SCF Done:  E(RB3LYP) =  -264.582431669     A.U. after   11 cycles
 SCF Done:  E(RB3LYP) =  -264.552138490     A.U. after   13 cycles
 SCF Done:  E(RB3LYP) =  -264.582631965     A.U. after   10 cycles
 SCF Done:  E(RB3LYP) =  -264.583311924     A.U. after   11 cycles
 SCF Done:  E(RB3LYP) =  -264.583540520     A.U. after   11 cycles
 SCF Done:  E(RB3LYP) =  -264.583491291     A.U. after   11 cycles
 SCF Done:  E(RB3LYP) =  -264.583769832     A.U. after   12 cycles
 SCF Done:  E(RB3LYP) =  -264.583914150     A.U. after   12 cycles
 SCF Done:  E(RB3LYP) =  -264.583952868     A.U. after   11 cycles
 SCF Done:  E(RB3LYP) =  -264.583961452     A.U. after   10 cycles
 SCF Done:  E(RB3LYP) =  -264.583962344     A.U. after    9 cycles
 SCF Done:  E(RB3LYP) =  -264.583962515     A.U. after    7 cycles
 Optimization completed.
    -- Stationary point found.
 Normal termination of Gaussian 09 at Fri Sep 10 19:00:26 2021.

 ----------------------------------------------------------------------
 #P Geom=AllCheck Guess=TCheck SCRF=Check GenChk RB3LYP/6-31G(d,p) Freq
 ----------------------------------------------------------------------

 Structure from the checkpoint file:  "/public/home/users/caep010/.cache/gau_scr/Gau-124580.chk"
 --------
 Frag_377
 --------
 Charge =  0 Multiplicity = 1

                         Standard orientation:
 ---------------------------------------------------------------------
 Center     Atomic      Atomic             Coordinates (Angstroms)
 Number     Number       Type             X           Y           Z
 ---------------------------------------------------------------------
      1          6           0       -1.927256   -0.040733    0.020892
      2          7           0       -0.614150   -0.656151   -0.083397
      3          6           0        0.515918    0.134853   -0.005737
      4          7           0        1.702780   -0.590443    0.095397
      5          8           0        0.489438    1.357811   -0.012262
      6          1           0       -2.250363    0.100533    1.061001
      7          1           0       -1.877688    0.939444   -0.453198
      8          1           0       -2.666212   -0.656580   -0.499100
      9          1           0       -0.527672   -1.599295    0.268273
     10          1           0        1.741681   -1.477833   -0.388504
     11          1           0        2.512369   -0.007315   -0.065305
 ---------------------------------------------------------------------

 SCF Done:  E(RB3LYP) =  -264.583962515     A.U. after    1 cycles

 The electronic state is 1-A.
 Alpha  occ. eigenvalues --  -19.09862 -14.35127 -14.34504 -10.30227 -10.21175
 Alpha  occ. eigenvalues --   -1.03288  -0.91842  -0.88307  -0.69692  -0.58388
 Alpha  occ. eigenvalues --   -0.54407  -0.51408  -0.44942  -0.43287  -0.41057
 Alpha  occ. eigenvalues --   -0.38939  -0.38159  -0.27067  -0.25384  -0.24344
 Alpha virt. eigenvalues --    0.05672   0.06882   0.11073   0.13865   0.14364
 Alpha virt. eigenvalues --    0.16662   0.18199   0.20575   0.27275   0.34676
 Alpha virt. eigenvalues --    0.39555   0.52949   0.53574   0.54916   0.59943

 Mulliken charges:
               1
     1  C   -0.169782
     2  N   -0.534835
     3  C    0.695120
     4  N   -0.632379
     5  O   -0.520593
     6  H    0.113821
     7  H    0.156473
     8  H    0.106474
     9  H    0.253857
    10  H    0.256057
    11  H    0.275787
 Sum of Mulliken charges =   0.00000

 Dipole moment (field-independent basis, Debye):
    X=             -0.1115    Y=             -3.5559    Z=             -0.4402  Tot=              3.5847
 Quadrupole moment (field-independent basis, Debye-Ang):
   XX=            -23.6183   YY=            -30.6819   ZZ=            -31.0534
   XY=             -1.6141   XZ=             -2.3196   YZ=              0.3046

  Exact polarizability:  47.759   0.017  40.382  -0.244   0.363  23.933
 Approx polarizability:  57.140   1.002  65.843   0.894   0.365  32.922

                      1                      2                      3
                      A                      A                      A
 Frequencies --     74.0783               164.8713               286.5526
 Red. masses --      1.0944                 3.1815                 3.1317
 Frc consts  --      0.0035                 0.0510                 0.1515
 IR Inten    --      0.3388                10.0323                14.5793

                      4                      5                      6
                      A                      A                      A
 Frequencies --    395.2219               450.0104               513.1485
 Red. masses --      1.0857                 1.6599                 2.0651
 Frc consts  --      0.0999                 0.1981                 0.3204
 IR Inten    --     65.2402                67.2338                76.2293

                      7                      8                      9
                      A                      A                      A
 Frequencies --    589.1675               669.4782               773.0692
 Red. masses --      1.3132                 3.0077                 6.6222
 Frc consts  --      0.2686                 0.7943                 2.3318
 IR Inten    --    177.9980                27.5249                64.2442

                     10                     11                     12
                      A                      A                      A
 Frequencies --    905.7999              1089.8062              1143.1451
 Red. masses --      2.4641                 1.8611                 1.5820
 Frc consts  --      1.1911                 1.3023                 1.2181
 IR Inten    --      7.8299                10.7216                 3.0995

                     13                     14                     15
                      A                      A                      A
 Frequencies --   1159.3139              1190.2249              1332.7324
 Red. masses --      1.6750                 1.9363                 2.0088
 Frc consts  --      1.3264                 1.6162                 2.1022
 IR Inten    --     25.8515                23.0071               143.9334

                     16                     17                     18
                      A                      A                      A
 Frequencies --   1455.5880              1503.1657              1517.2956
 Red. masses --      1.1577                 1.1503                 1.1258
 Frc consts  --      1.4451                 1.5313                 1.5271
 IR Inten    --     11.2257                69.5431                19.9103

                     19                     20                     21
                      A                      A                      A
 Frequencies --   1564.9605              1636.6255              1814.8445
 Red. masses --      1.5613                 1.2018                 7.7740
 Frc consts  --      2.2529                 1.8966                15.0859
 IR Inten    --    153.3582               112.5191               289.0017

                     22                     23                     24
                      A                      A                      A
 Frequencies --   3026.1923              3102.0066              3169.8841
 Red. masses --      1.0478                 1.0928                 1.0992
 Frc consts  --      5.6533                 6.1954                 6.5077
 IR Inten    --     63.0450                36.3526                 3.8678

                     25                     26                     27
                      A                      A                      A
 Frequencies --   3569.9501              3620.3895              3690.0972
 Red. masses --      1.0479                 1.0763                 1.0989
 Frc consts  --      7.8687                 8.3120                 8.8163
 IR Inten    --     18.9301                11.2012                24.6830

 - Thermochemistry -
 -------------------
 Temperature   298.150 Kelvin.  Pressure   1.00000 Atm.
 Atom     1 has atomic number  6 and mass  12.00000

 Molecular mass:    74.04801 amu.
 Principal axes and moments of inertia in atomic units:
                           1         2         3
     Eigenvalues --   173.74034 446.29240 605.44721
           X            0.99966  -0.02428  -0.00980
           Y            0.02432   0.99970   0.00390
           Z            0.00970  -0.00413   0.99994
 This molecule is an asymmetric top.
 Rotational symmetry number  1.
 Rotational temperatures (Kelvin)      0.49852     0.19407     0.14306
 Rotational constants (GHZ):          10.38758     4.04385     2.98084
 Zero-point vibrational energy     241691.2 (Joules/Mol)
                                   57.76559 (Kcal/Mol)
 Warning -- explicit consideration of   7 degrees of freedom as
           vibrations may cause significant error
 Vibrational temperatures:    106.58   237.21   412.28   568.64   647.46
          (Kelvin)            738.31   847.68   963.23  1112.27  1303.24
                             1567.99  1644.73  1667.99  1712.47  1917.50
                             2094.26  2162.72  2183.05  2251.63  2354.74
                             2611.15  4354.01  4463.09  4560.75  5136.36
                             5208.93  5309.22

 Zero-point correction=                           0.092055 (Hartree/Particle)
 Thermal correction to Energy=                    0.098069
 Thermal correction to Enthalpy=                  0.099013
 Thermal correction to Gibbs Free Energy=         0.062867
 Sum of electronic and zero-point Energies=           -264.491907
 Sum of electronic and thermal Energies=              -264.485894
 Sum of electronic and thermal Enthalpies=            -264.484949
 Sum of electronic and thermal Free Energies=         -264.521096

                     E (Thermal)             CV                S
                      KCal/Mol        Cal/Mol-Kelvin    Cal/Mol-Kelvin
 Total                   61.539             20.179             76.077
 Electronic               0.000              0.000              0.000
 Translational            0.889              2.981             38.822
 Rotational               0.889              2.981             25.354
 Vibrational             59.762             14.218             11.900
 Vibration     1          0.599              1.966              4.042
 Vibration     2          0.623              1.886              2.493
 Vibration     3          0.684              1.699              1.494
 Vibration     4          0.762              1.480              0.980
 Vibration     5          0.809              1.361              0.796
 Vibration     6          0.868              1.221              0.626
 Vibration     7          0.946              1.055              0.469

 Optimization completed.
    -- Stationary point found.
 Normal termination of Gaussian 09 at Fri Sep 10 19:00:34 2021.
