 Gaussian 09, Revision D.01,
 Gaussian 09:  ES64L-G09RevD.01 24-Apr-2013

 -------------------------
 #P OPT Freq B3LYP/6-31G**
 -------------------------

 -------
 Frag_33
 -------
 Symbolic Z-matrix:
 Charge =  0 Multiplicity = 1

 SCF Done:  E(RB3LYP) =  -320.193484515     A.U. after   15 cycles
 Optimization completed.
    -- Stationary point found.
 Normal termination of Gaussian 09 at Thu Jul 22 23:36:12 2021.

 ----------------------------------------------------------------------
 #P Geom=AllCheck Guess=TCheck SCRF=Check GenChk RB3LYP/6-31G(d,p) Freq
 ----------------------------------------------------------------------

 Structure from the checkpoint file:  "/vol2/users/liuj201281/HOFBenchmark/IsodesmicSplit/Sample60/Ring26/Running/Gau-448416.chk"
 -------
 Frag_33
 -------
 Charge =  0 Multiplicity = 1

                         Standard orientation:
 ---------------------------------------------------------------------
 Center     Atomic      Atomic             Coordinates (Angstroms)
 Number     Number       Type             X           Y           Z
 ---------------------------------------------------------------------
      1          6           0        1.762807   -0.001089    0.000102
      2          8           0        0.541707   -0.760888    0.000102
      3          7           0       -0.619492    0.049913    0.000102
      4          8           0       -1.638793   -0.595486   -0.000298
      5          8           0       -0.459891    1.254413    0.000002
      6          1           0        2.536207   -0.769890    0.000102
      7          1           0        1.839608    0.621410    0.894003
      8          1           0        1.839608    0.621310   -0.893898
 ---------------------------------------------------------------------

 SCF Done:  E(RB3LYP) =  -320.193484515     A.U. after    1 cycles

 The electronic state is 1-A.
 Alpha  occ. eigenvalues --  -19.24167 -19.21344 -19.20927 -14.63522 -10.26455
 Alpha  occ. eigenvalues --   -1.28289  -1.10045  -1.07861  -0.76596  -0.63771
 Alpha  occ. eigenvalues --   -0.58417  -0.57851  -0.54359  -0.47176  -0.47047
 Alpha  occ. eigenvalues --   -0.41454  -0.34660  -0.34353  -0.33027  -0.31646
 Alpha virt. eigenvalues --   -0.06588   0.04849   0.10067   0.11613   0.15031
 Alpha virt. eigenvalues --    0.15788   0.25570   0.37398   0.49023   0.52330
 Alpha virt. eigenvalues --    0.52867   0.61882   0.64752   0.68224   0.70855

 Mulliken charges:
               1
     1  C   -0.084859
     2  O   -0.366813
     3  N    0.742971
     4  O   -0.350864
     5  O   -0.370866
     6  H    0.143798
     7  H    0.143320
     8  H    0.143313
 Sum of Mulliken charges =   0.00000

 Dipole moment (field-independent basis, Debye):
    X=              3.1035    Y=              0.1769    Z=              0.0005  Tot=              3.1085
 Quadrupole moment (field-independent basis, Debye-Ang):
   XX=            -25.9921   YY=            -31.1466   ZZ=            -26.6119
   XY=             -0.2696   XZ=             -0.0007   YZ=             -0.0001

  Exact polarizability:  40.923   1.711  31.156   0.003   0.001  19.009
 Approx polarizability:  61.499   8.501  61.507   0.006   0.003  25.806

                      1                      2                      3
                      A                      A                      A
 Frequencies --    144.5950               202.7366               342.4671
 Red. masses --      2.8826                 1.2394                 3.9471
 Frc consts  --      0.0355                 0.0300                 0.2728
 IR Inten    --      1.8235                 1.1294                 3.1515

                      4                      5                      6
                      A                      A                      A
 Frequencies --    574.7439               667.4201               765.1935
 Red. masses --      8.4598                 5.9889                13.8320
 Frc consts  --      1.6465                 1.5718                 4.7718
 IR Inten    --      1.9946                19.2953                17.3274

                      7                      8                      9
                      A                      A                      A
 Frequencies --    873.7645              1033.2877              1171.9673
 Red. masses --     12.2268                 6.6625                 1.2678
 Frc consts  --      5.4998                 4.1911                 1.0259
 IR Inten    --    165.3359                92.9778                 0.6657

                     10                     11                     12
                      A                      A                      A
 Frequencies --   1192.4126              1346.3702              1470.4152
 Red. masses --      1.5336                 6.8034                 1.2312
 Frc consts  --      1.2848                 7.2661                 1.5684
 IR Inten    --      1.6765               207.4899                24.0149

                     13                     14                     15
                      A                      A                      A
 Frequencies --   1484.8979              1511.4592              1759.1600
 Red. masses --      1.0464                 1.0619                13.9088
 Frc consts  --      1.3594                 1.4293                25.3600
 IR Inten    --      8.0581                 6.5578               352.6169

                     16                     17                     18
                      A                      A                      A
 Frequencies --   3067.9172              3155.8364              3175.8943
 Red. masses --      1.0285                 1.1087                 1.1071
 Frc consts  --      5.7036                 6.5055                 6.5789
 IR Inten    --     14.6932                15.5476                 5.6311

 - Thermochemistry -
 -------------------
 Temperature   298.150 Kelvin.  Pressure   1.00000 Atm.
 Atom     1 has atomic number  6 and mass  12.00000

 Molecular mass:    77.01129 amu.
 Principal axes and moments of inertia in atomic units:
                           1         2         3
     Eigenvalues --   153.97467 386.10728 528.57739
           X            0.99998   0.00567  -0.00010
           Y           -0.00567   0.99998  -0.00005
           Z            0.00010   0.00005   1.00000
 This molecule is an asymmetric top.
 Rotational symmetry number  1.
 Rotational temperatures (Kelvin)      0.56252     0.22433     0.16386
 Rotational constants (GHZ):          11.72103     4.67420     3.41434
 Zero-point vibrational energy     143196.2 (Joules/Mol)
                                   34.22472 (Kcal/Mol)
 Warning -- explicit consideration of   4 degrees of freedom as
           vibrations may cause significant error
 Vibrational temperatures:    208.04   291.69   492.73   826.93   960.27
          (Kelvin)           1100.94  1257.15  1486.67  1686.20  1715.61
                             1937.12  2115.60  2136.43  2174.65  2531.04
                             4414.04  4540.54  4569.40

 Zero-point correction=                           0.054541 (Hartree/Particle)
 Thermal correction to Energy=                    0.059496
 Thermal correction to Enthalpy=                  0.060441
 Thermal correction to Gibbs Free Energy=         0.026509
 Sum of electronic and zero-point Energies=           -320.138944
 Sum of electronic and thermal Energies=              -320.133988
 Sum of electronic and thermal Enthalpies=            -320.133044
 Sum of electronic and thermal Free Energies=         -320.166976

                     E (Thermal)             CV                S
                      KCal/Mol        Cal/Mol-Kelvin    Cal/Mol-Kelvin
 Total                   37.335             15.689             71.415
 Electronic               0.000              0.000              0.000
 Translational            0.889              2.981             38.939
 Rotational               0.889              2.981             24.956
 Vibrational             35.557              9.727              7.520
 Vibration     1          0.616              1.909              2.742
 Vibration     2          0.639              1.836              2.108
 Vibration     3          0.722              1.591              1.201
 Vibration     4          0.931              1.086              0.495

 Optimization completed.
    -- Stationary point found.
 Normal termination of Gaussian 09 at Thu Jul 22 23:36:20 2021.
