 Gaussian 09, Revision E.01,
 Gaussian 09:  ES64L-G09RevE.01 30-Nov-2015

 --------------------------------
 #P OPT=calcfc Freq B3LYP/6-31G**
 --------------------------------

 --------
 Frag_391
 --------
 Symbolic Z-matrix:
 Charge =  0 Multiplicity = 1

 SCF Done:  E(RB3LYP) =  -205.281426385     A.U. after   14 cycles
 SCF Done:  E(RB3LYP) =  -205.283923461     A.U. after   13 cycles
 SCF Done:  E(RB3LYP) =  -205.288990484     A.U. after   14 cycles
 SCF Done:  E(RB3LYP) =  -205.210690526     A.U. after   13 cycles
 SCF Done:  E(RB3LYP) =  -205.235082722     A.U. after   11 cycles
 SCF Done:  E(RB3LYP) =  -205.254466341     A.U. after   11 cycles
 SCF Done:  E(RB3LYP) =  -205.288996605     A.U. after    8 cycles
 SCF Done:  E(RB3LYP) =  -205.291057564     A.U. after   12 cycles
 SCF Done:  E(RB3LYP) =  -205.291218172     A.U. after   11 cycles
 SCF Done:  E(RB3LYP) =  -205.291224827     A.U. after    9 cycles
 Optimization completed.
    -- Stationary point found.
 Normal termination of Gaussian 09 at Fri Sep 10 19:30:17 2021.

 ----------------------------------------------------------------------
 #P Geom=AllCheck Guess=TCheck SCRF=Check GenChk RB3LYP/6-31G(d,p) Freq
 ----------------------------------------------------------------------

 Structure from the checkpoint file:  "/public/home/users/caep010/.cache/gau_scr/Gau-226289.chk"
 --------
 Frag_391
 --------
 Charge =  0 Multiplicity = 1

                         Standard orientation:
 ---------------------------------------------------------------------
 Center     Atomic      Atomic             Coordinates (Angstroms)
 Number     Number       Type             X           Y           Z
 ---------------------------------------------------------------------
      1          6           0       -1.763091    0.008235    0.075613
      2          7           0       -0.582116   -0.444827   -0.110598
      3          7           0        0.451117    0.453275   -0.193301
      4          7           0        1.725853   -0.067681    0.124904
      5          1           0       -2.584363   -0.701228    0.087310
      6          1           0       -1.993745    1.071702    0.210627
      7          1           0        0.298779    1.320434    0.321651
      8          1           0        1.635593   -0.755680    0.874683
      9          1           0        2.058301   -0.570009   -0.694984
 ---------------------------------------------------------------------

 SCF Done:  E(RB3LYP) =  -205.291224827     A.U. after    1 cycles

 The electronic state is 1-A.
 Alpha  occ. eigenvalues --  -14.38831 -14.36632 -14.34846 -10.21365  -1.02192
 Alpha  occ. eigenvalues --   -0.89038  -0.74201  -0.61804  -0.51437  -0.50944
 Alpha  occ. eigenvalues --   -0.49186  -0.42484  -0.37185  -0.27853  -0.26892
 Alpha  occ. eigenvalues --   -0.22856
 Alpha virt. eigenvalues --   -0.00095   0.09406   0.09890   0.14227   0.15459
 Alpha virt. eigenvalues --    0.16939   0.22115   0.23859   0.34608   0.54560
 Alpha virt. eigenvalues --    0.58830   0.61350   0.65855   0.66790   0.68113

 Mulliken charges:
               1
     1  C   -0.073750
     2  N   -0.192307
     3  N   -0.248890
     4  N   -0.450335
     5  H    0.114561
     6  H    0.082131
     7  H    0.256134
     8  H    0.246110
     9  H    0.266345
 Sum of Mulliken charges =  -0.00000

 Dipole moment (field-independent basis, Debye):
    X=             -0.6200    Y=              0.1788    Z=              0.8404  Tot=              1.0595
 Quadrupole moment (field-independent basis, Debye-Ang):
   XX=            -22.9308   YY=            -23.2798   ZZ=            -24.5831
   XY=             -3.5436   XZ=             -0.9841   YZ=              0.5642

  Exact polarizability:  53.484  -2.048  29.232  -2.261   1.026  19.662
 Approx polarizability:  77.109  -3.391  41.433  -5.719   1.542  28.020

                      1                      2                      3
                      A                      A                      A
 Frequencies --    175.8432               324.8065               356.8318
 Red. masses --      3.3146                 1.1570                 2.5618
 Frc consts  --      0.0604                 0.0719                 0.1922
 IR Inten    --      6.7557                42.1696                16.9938

                      4                      5                      6
                      A                      A                      A
 Frequencies --    537.5526               680.1199               788.6002
 Red. masses --      2.0242                 2.0409                 1.3589
 Frc consts  --      0.3446                 0.5562                 0.4979
 IR Inten    --     85.4300                91.7591                19.7510

                      7                      8                      9
                      A                      A                      A
 Frequencies --    935.2948               941.0271              1058.7718
 Red. masses --      1.4052                 1.6270                 2.3062
 Frc consts  --      0.7242                 0.8489                 1.5232
 IR Inten    --     33.4235                80.8691                17.6902

                     10                     11                     12
                      A                      A                      A
 Frequencies --   1198.2450              1253.6871              1333.2644
 Red. masses --      2.1459                 1.9391                 1.2513
 Frc consts  --      1.8153                 1.7957                 1.3105
 IR Inten    --     41.7243                15.9455                10.8394

                     13                     14                     15
                      A                      A                      A
 Frequencies --   1463.6742              1508.7738              1684.5198
 Red. masses --      1.1491                 1.1709                 3.5413
 Frc consts  --      1.4505                 1.5704                 5.9206
 IR Inten    --      3.6020                 9.8913                26.6137

                     16                     17                     18
                      A                      A                      A
 Frequencies --   1706.8237              3054.9515              3218.9144
 Red. masses --      1.1775                 1.0645                 1.1063
 Frc consts  --      2.0212                 5.8534                 6.7535
 IR Inten    --     10.2284                31.3160                13.5248

                     19                     20                     21
                      A                      A                      A
 Frequencies --   3437.5904              3462.1149              3545.8969
 Red. masses --      1.0523                 1.0741                 1.0903
 Frc consts  --      7.3267                 7.5851                 8.0773
 IR Inten    --     10.7094                 5.4306                 0.5516

 - Thermochemistry -
 -------------------
 Temperature   298.150 Kelvin.  Pressure   1.00000 Atm.
 Atom     1 has atomic number  6 and mass  12.00000

 Molecular mass:    59.04835 amu.
 Principal axes and moments of inertia in atomic units:
                           1         2         3
     Eigenvalues --    44.09940 381.46307 408.65520
           X            0.99968  -0.02434  -0.00644
           Y            0.02460   0.99870   0.04460
           Z            0.00534  -0.04475   0.99898
 This molecule is an asymmetric top.
 Rotational symmetry number  1.
 Rotational temperatures (Kelvin)      1.96406     0.22706     0.21195
 Rotational constants (GHZ):          40.92440     4.73110     4.41629
 Zero-point vibrational energy     195393.9 (Joules/Mol)
                                   46.70026 (Kcal/Mol)
 Warning -- explicit consideration of   4 degrees of freedom as
           vibrations may cause significant error
 Vibrational temperatures:    253.00   467.32   513.40   773.42   978.54
          (Kelvin)           1134.62  1345.68  1353.93  1523.33  1724.01
                             1803.77  1918.27  2105.90  2170.79  2423.65
                             2455.74  4395.39  4631.29  4945.92  4981.20
                             5101.75

 Zero-point correction=                           0.074422 (Hartree/Particle)
 Thermal correction to Energy=                    0.079176
 Thermal correction to Enthalpy=                  0.080120
 Thermal correction to Gibbs Free Energy=         0.047834
 Sum of electronic and zero-point Energies=           -205.216803
 Sum of electronic and thermal Energies=              -205.212049
 Sum of electronic and thermal Enthalpies=            -205.211105
 Sum of electronic and thermal Free Energies=         -205.243391

                     E (Thermal)             CV                S
                      KCal/Mol        Cal/Mol-Kelvin    Cal/Mol-Kelvin
 Total                   49.683             15.686             67.952
 Electronic               0.000              0.000              0.000
 Translational            0.889              2.981             38.148
 Rotational               0.889              2.981             23.446
 Vibrational             47.906              9.724              6.359
 Vibration     1          0.628              1.872              2.372
 Vibration     2          0.709              1.626              1.286
 Vibration     3          0.732              1.561              1.136
 Vibration     4          0.893              1.167              0.571

 Normal termination of Gaussian 09 at Fri Sep 10 19:30:23 2021.
