 Gaussian 09, Revision D.01,
 Gaussian 09:  ES64L-G09RevD.01 24-Apr-2013

 -------------------------
 #P OPT Freq B3LYP/6-31G**
 -------------------------

 -------
 Frag_55
 -------
 Symbolic Z-matrix:
 Charge =  0 Multiplicity = 1

 SCF Done:  E(RB3LYP) =  -157.238836883     A.U. after   12 cycles
 SCF Done:  E(RB3LYP) =  -157.238836989     A.U. after    7 cycles
 Optimization completed.
    -- Stationary point found.
 Normal termination of Gaussian 09 at Fri Jul 23 04:54:09 2021.

 ----------------------------------------------------------------------
 #P Geom=AllCheck Guess=TCheck SCRF=Check GenChk RB3LYP/6-31G(d,p) Freq
 ----------------------------------------------------------------------

 Structure from the checkpoint file:  "/vol2/users/liuj201281/HOFBenchmark/IsodesmicSplit/Sample60/Ring26/Running/Gau-490148.chk"
 -------
 Frag_55
 -------
 Charge =  0 Multiplicity = 1

                         Standard orientation:
 ---------------------------------------------------------------------
 Center     Atomic      Atomic             Coordinates (Angstroms)
 Number     Number       Type             X           Y           Z
 ---------------------------------------------------------------------
      1          6           0        0.000430    1.459381    0.000000
      2          6           0       -0.000174    0.123009    0.000000
      3          6           0       -0.000174   -0.678716    1.277486
      4          6           0       -0.000174   -0.678716   -1.277486
      5          1           0        0.000947    2.029850   -0.924648
      6          1           0        0.000947    2.029850    0.924648
      7          1           0       -0.879722   -1.333554    1.330976
      8          1           0        0.000687   -0.036189    2.161802
      9          1           0        0.878366   -1.334978    1.330303
     10          1           0       -0.879722   -1.333554   -1.330976
     11          1           0        0.000687   -0.036189   -2.161802
     12          1           0        0.878366   -1.334978   -1.330303
 ---------------------------------------------------------------------

 SCF Done:  E(RB3LYP) =  -157.238836989     A.U. after    1 cycles

 The electronic state is 1-A'.
 Alpha  occ. eigenvalues --  -10.19183 -10.17825 -10.17824 -10.16578  -0.80004
 Alpha  occ. eigenvalues --   -0.68916  -0.67434  -0.51962  -0.44718  -0.43872
 Alpha  occ. eigenvalues --   -0.42681  -0.38238  -0.36698  -0.36046  -0.33437
 Alpha  occ. eigenvalues --   -0.23957
 Alpha virt. eigenvalues --    0.03064   0.09681   0.13947   0.15151   0.15663
 Alpha virt. eigenvalues --    0.17496   0.17641   0.18692   0.22014   0.22763
 Alpha virt. eigenvalues --    0.31198   0.37825   0.50861   0.52414   0.52537

 Mulliken charges:
               1
     1  C   -0.279170
     2  C    0.166843
     3  C   -0.360726
     4  C   -0.360726
     5  H    0.085036
     6  H    0.085036
     7  H    0.111511
     8  H    0.108845
     9  H    0.111498
    10  H    0.111511
    11  H    0.108845
    12  H    0.111498
 Sum of Mulliken charges =   0.00000

 Dipole moment (field-independent basis, Debye):
    X=              0.0003    Y=             -0.5258    Z=              0.0000  Tot=              0.5258
 Quadrupole moment (field-independent basis, Debye-Ang):
   XX=            -27.6395   YY=            -25.8846   ZZ=            -25.4276
   XY=              0.0015   XZ=              0.0000   YZ=              0.0000

  Exact polarizability:  29.134   0.012  56.020   0.000   0.000  44.043
 Approx polarizability:  40.667   0.020  83.597   0.000   0.000  54.611

                      1                      2                      3
                     A"                     A'                     A'
 Frequencies --    173.9608               211.9557               377.7313
 Red. masses --      1.0240                 1.0762                 2.1581
 Frc consts  --      0.0183                 0.0285                 0.1814
 IR Inten    --      0.0000                 0.5866                 0.2946

                      4                      5                      6
                     A'                     A"                     A"
 Frequencies --    437.2360               437.8460               706.8626
 Red. masses --      2.1564                 2.0759                 1.0094
 Frc consts  --      0.2429                 0.2345                 0.2972
 IR Inten    --      5.1440                 1.5148                 0.0000

                      7                      8                      9
                     A'                     A'                     A"
 Frequencies --    818.4617               920.0141               966.4022
 Red. masses --      3.4301                 1.3332                 1.4451
 Frc consts  --      1.3538                 0.6649                 0.7952
 IR Inten    --      0.0982                39.8763                 0.0732

                     10                     11                     12
                     A"                     A"                     A'
 Frequencies --    989.2390              1026.9833              1090.0202
 Red. masses --      1.4522                 1.2367                 1.4580
 Frc consts  --      0.8373                 0.7685                 1.0206
 IR Inten    --      0.2428                 0.0000                 4.1011

                     13                     14                     15
                     A'                     A"                     A"
 Frequencies --   1111.6918              1303.2112              1423.7873
 Red. masses --      1.6798                 2.5851                 1.3783
 Frc consts  --      1.2231                 2.5868                 1.6462
 IR Inten    --      0.7392                 4.3695                 5.5946

                     16                     17                     18
                     A'                     A'                     A"
 Frequencies --   1425.6121              1456.8214              1484.6173
 Red. masses --      1.1883                 1.2068                 1.0472
 Frc consts  --      1.4229                 1.5091                 1.3599
 IR Inten    --      0.0057                 0.4952                 0.0000

                     19                     20                     21
                     A"                     A'                     A'
 Frequencies --   1498.2271              1502.4079              1516.3780
 Red. masses --      1.0437                 1.0424                 1.0675
 Frc consts  --      1.3803                 1.3863                 1.4463
 IR Inten    --      3.7427                13.9345                 8.9287

                     22                     23                     24
                     A'                     A"                     A'
 Frequencies --   1740.0628              3021.9595              3027.9361
 Red. masses --      4.9358                 1.0382                 1.0386
 Frc consts  --      8.8053                 5.5861                 5.6106
 IR Inten    --     14.2638                19.4517                40.3108

                     25                     26                     27
                     A"                     A'                     A"
 Frequencies --   3071.3735              3074.7788              3124.8452
 Red. masses --      1.0998                 1.0993                 1.1001
 Frc consts  --      6.1129                 6.1235                 6.3289
 IR Inten    --      0.0001                53.4176                24.5650

                     28                     29                     30
                     A'                     A'                     A"
 Frequencies --   3126.5128              3150.1330              3232.1546
 Red. masses --      1.1000                 1.0607                 1.1159
 Frc consts  --      6.3351                 6.2016                 6.8684
 IR Inten    --     21.2048                 9.1341                21.2431

 - Thermochemistry -
 -------------------
 Temperature   298.150 Kelvin.  Pressure   1.00000 Atm.
 Atom     1 has atomic number  6 and mass  12.00000

 Molecular mass:    56.06260 amu.
 Principal axes and moments of inertia in atomic units:
                           1         2         3
     Eigenvalues --   197.70270 216.27590 391.73042
           X            0.00000   0.00031   1.00000
           Y            0.00000   1.00000  -0.00031
           Z            1.00000   0.00000   0.00000
 This molecule is an asymmetric top.
 Rotational symmetry number  1.
 Rotational temperatures (Kelvin)      0.43810     0.40048     0.22111
 Rotational constants (GHZ):           9.12856     8.34462     4.60710
 Zero-point vibrational energy     283809.4 (Joules/Mol)
                                   67.83207 (Kcal/Mol)
 Warning -- explicit consideration of   5 degrees of freedom as
           vibrations may cause significant error
 Vibrational temperatures:    250.29   304.96   543.47   629.08   629.96
          (Kelvin)           1017.02  1177.58  1323.69  1390.44  1423.29
                             1477.60  1568.29  1599.47  1875.03  2048.51
                             2051.14  2096.04  2136.03  2155.61  2161.63
                             2181.73  2503.56  4347.92  4356.52  4419.02
                             4423.92  4495.95  4498.35  4532.33  4650.34

 Zero-point correction=                           0.108097 (Hartree/Particle)
 Thermal correction to Energy=                    0.113404
 Thermal correction to Enthalpy=                  0.114348
 Thermal correction to Gibbs Free Energy=         0.080796
 Sum of electronic and zero-point Energies=           -157.130740
 Sum of electronic and thermal Energies=              -157.125433
 Sum of electronic and thermal Enthalpies=            -157.124489
 Sum of electronic and thermal Free Energies=         -157.158041

                     E (Thermal)             CV                S
                      KCal/Mol        Cal/Mol-Kelvin    Cal/Mol-Kelvin
 Total                   71.162             18.335             70.617
 Electronic               0.000              0.000              0.000
 Translational            0.889              2.981             37.993
 Rotational               0.889              2.981             24.330
 Vibrational             69.385             12.374              8.294
 Vibration     1          0.627              1.875              2.392
 Vibration     2          0.643              1.823              2.027
 Vibration     3          0.748              1.518              1.048
 Vibration     4          0.798              1.389              0.835
 Vibration     5          0.798              1.388              0.833

 Optimization completed.
    -- Stationary point found.
 Normal termination of Gaussian 09 at Fri Jul 23 04:54:25 2021.
