 Gaussian 09, Revision E.01,
 Gaussian 09:  ES64L-G09RevE.01 30-Nov-2015

 ----------------------------
 #P OPT Freq B3LYP/6-31G(d,p)
 ----------------------------

 --------
 Frag_720
 --------
 Symbolic Z-matrix:
 Charge =  0 Multiplicity = 1

 SCF Done:  E(RB3LYP) =  -300.325495252     A.U. after   15 cycles
 SCF Done:  E(RB3LYP) =  -300.325599862     A.U. after   10 cycles
 SCF Done:  E(RB3LYP) =  -300.325603240     A.U. after    9 cycles
 SCF Done:  E(RB3LYP) =  -300.325607637     A.U. after    9 cycles
 SCF Done:  E(RB3LYP) =  -300.325608207     A.U. after    8 cycles
 Optimization completed.
    -- Stationary point found.
 Normal termination of Gaussian 09 at Thu Sep  8 15:09:05 2022.

 ----------------------------------------------------------------------
 #P Geom=AllCheck Guess=TCheck SCRF=Check GenChk RB3LYP/6-31G(d,p) Freq
 ----------------------------------------------------------------------

 Structure from the checkpoint file:  "B3LYP6-31Gdp.Frag_720.chk"
 --------
 Frag_720
 --------
 Charge =  0 Multiplicity = 1

                         Standard orientation:
 ---------------------------------------------------------------------
 Center     Atomic      Atomic             Coordinates (Angstroms)
 Number     Number       Type             X           Y           Z
 ---------------------------------------------------------------------
      1          6           0       -0.470112    1.328227   -0.000009
      2          7           0       -0.477478   -0.163425    0.000091
      3          8           0       -1.586165   -0.744511   -0.000052
      4          7           0        0.610991   -0.837223    0.000026
      5          8           0        1.692802    0.068450   -0.000016
      6          1           0       -1.517311    1.615133   -0.000125
      7          1           0        0.052961    1.684357   -0.888025
      8          1           0        0.052789    1.684460    0.888067
      9          1           0        2.444547   -0.540289   -0.000127
 ---------------------------------------------------------------------

 SCF Done:  E(RB3LYP) =  -300.325608207     A.U. after    1 cycles

 The electronic state is 1-A.
 Alpha  occ. eigenvalues --  -19.21550 -19.14350 -14.51803 -14.42462 -10.24248
 Alpha  occ. eigenvalues --   -1.17067  -1.08760  -0.91319  -0.78958  -0.60692
 Alpha  occ. eigenvalues --   -0.56336  -0.52077  -0.51676  -0.46193  -0.42989
 Alpha  occ. eigenvalues --   -0.41910  -0.37823  -0.32604  -0.26726  -0.23258
 Alpha virt. eigenvalues --   -0.03881   0.05510   0.10186   0.10907   0.14548
 Alpha virt. eigenvalues --    0.15253   0.15599   0.30558   0.33746   0.48512
 Alpha virt. eigenvalues --    0.52109   0.54787   0.65301   0.66066   0.67907

 Mulliken charges:
               1
     1  C   -0.181905
     2  N    0.233079
     3  O   -0.442539
     4  N   -0.010258
     5  O   -0.428371
     6  H    0.159905
     7  H    0.160990
     8  H    0.160981
     9  H    0.348119
 Sum of Mulliken charges =  -0.00000

 Dipole moment (field-independent basis, Debye):
    X=              2.6555    Y=              2.5738    Z=             -0.0001  Tot=              3.6982
 Quadrupole moment (field-independent basis, Debye-Ang):
   XX=            -26.9757   YY=            -28.6374   ZZ=            -28.2718
   XY=             -5.1499   XZ=             -0.0008   YZ=              0.0000

  Exact polarizability:  52.083  -0.703  32.345   0.000   0.001  19.829
 Approx polarizability: 107.733   2.139  45.034   0.001   0.001  27.582

                      1                      2                      3
                      A                      A                      A
 Frequencies --    143.0771               269.6302               340.1605
 Red. masses --      1.0720                 3.6609                 1.3219
 Frc consts  --      0.0129                 0.1568                 0.0901
 IR Inten    --      2.7918                45.1842                89.8743

                      4                      5                      6
                      A                      A                      A
 Frequencies --    362.5159               538.3481               544.8220
 Red. masses --      3.6838                 4.0650                 4.6852
 Frc consts  --      0.2852                 0.6941                 0.8194
 IR Inten    --      4.3991                 3.1530                 7.8532

                      7                      8                      9
                      A                      A                      A
 Frequencies --    636.4731               834.9396              1032.4316
 Red. masses --      6.6621                 6.3772                 8.2632
 Frc consts  --      1.5901                 2.6193                 5.1894
 IR Inten    --      8.2271                 6.7524               179.0659

                     10                     11                     12
                      A                      A                      A
 Frequencies --   1104.8874              1119.2865              1291.6704
 Red. masses --      1.5105                 1.4348                 1.7286
 Frc consts  --      1.0864                 1.0590                 1.6992
 IR Inten    --      8.8621                 0.0811               131.3888

                     13                     14                     15
                      A                      A                      A
 Frequencies --   1413.2521              1466.4928              1486.4727
 Red. masses --      1.1853                 1.2151                 1.0462
 Frc consts  --      1.3948                 1.5397                 1.3621
 IR Inten    --      5.1494                41.5114                11.5671

                     16                     17                     18
                      A                      A                      A
 Frequencies --   1505.1166              1590.7529              3092.2179
 Red. masses --      2.4407                 5.0071                 1.0307
 Frc consts  --      3.2577                 7.4652                 5.8067
 IR Inten    --      6.2887               125.8371                 1.8778

                     19                     20                     21
                      A                      A                      A
 Frequencies --   3178.3584              3228.0783              3822.1246
 Red. masses --      1.1055                 1.1085                 1.0676
 Frc consts  --      6.5796                 6.8054                 9.1891
 IR Inten    --      2.3610                 0.1866               112.4068

 - Thermochemistry -
 -------------------
 Temperature   298.150 Kelvin.  Pressure   1.00000 Atm.
 Atom     1 has atomic number  6 and mass  12.00000

 Molecular mass:    76.02728 amu.
 Principal axes and moments of inertia in atomic units:
                           1         2         3
     Eigenvalues --   178.77445 383.13069 550.55205
           X            0.99812  -0.06124  -0.00000
           Y            0.06124   0.99812   0.00000
           Z            0.00000  -0.00000   1.00000
 This molecule is an asymmetric top.
 Rotational symmetry number  1.
 Rotational temperatures (Kelvin)      0.48449     0.22607     0.15732
 Rotational constants (GHZ):          10.09507     4.71051     3.27806
 Zero-point vibrational energy     173465.2 (Joules/Mol)
                                   41.45917 (Kcal/Mol)
 Warning -- explicit consideration of   6 degrees of freedom as
           vibrations may cause significant error
 Vibrational temperatures:    205.86   387.94   489.41   521.58   774.56
          (Kelvin)            783.88   915.74  1201.29  1485.44  1589.68
                             1610.40  1858.42  2033.35  2109.95  2138.70
                             2165.52  2288.74  4449.01  4572.94  4644.48
                             5499.18

 Zero-point correction=                           0.066069 (Hartree/Particle)
 Thermal correction to Energy=                    0.071455
 Thermal correction to Enthalpy=                  0.072399
 Thermal correction to Gibbs Free Energy=         0.037853
 Sum of electronic and zero-point Energies=           -300.259539
 Sum of electronic and thermal Energies=              -300.254154
 Sum of electronic and thermal Enthalpies=            -300.253209
 Sum of electronic and thermal Free Energies=         -300.287756

                     E (Thermal)             CV                S
                      KCal/Mol        Cal/Mol-Kelvin    Cal/Mol-Kelvin
 Total                   44.838             18.039             72.709
 Electronic               0.000              0.000              0.000
 Translational            0.889              2.981             38.901
 Rotational               0.889              2.981             25.137
 Vibrational             43.061             12.078              8.671
 Vibration     1          0.616              1.910              2.762
 Vibration     2          0.674              1.729              1.599
 Vibration     3          0.720              1.595              1.211
 Vibration     4          0.736              1.549              1.111
 Vibration     5          0.893              1.165              0.569
 Vibration     6          0.900              1.151              0.555

 Optimization completed.
    -- Stationary point found.
 Normal termination of Gaussian 09 at Thu Sep  8 15:09:12 2022.
