 Gaussian 09, Revision E.01,
 Gaussian 09:  ES64L-G09RevE.01 30-Nov-2015

 ----------------------------
 #P OPT Freq B3LYP/6-31G(d,p)
 ----------------------------

 --------
 Frag_444
 --------
 Symbolic Z-matrix:
 Charge =  0 Multiplicity = 1

 SCF Done:  E(RB3LYP) =  -286.611666918     A.U. after   14 cycles
 SCF Done:  E(RB3LYP) =  -286.611762606     A.U. after    9 cycles
 SCF Done:  E(RB3LYP) =  -286.611767399     A.U. after    8 cycles
 SCF Done:  E(RB3LYP) =  -286.611767564     A.U. after    8 cycles
 SCF Done:  E(RB3LYP) =  -286.611767572     A.U. after    8 cycles
 Optimization completed.
    -- Stationary point found.
 Normal termination of Gaussian 09 at Thu Sep  8 15:09:52 2022.

 ----------------------------------------------------------------------
 #P Geom=AllCheck Guess=TCheck SCRF=Check GenChk RB3LYP/6-31G(d,p) Freq
 ----------------------------------------------------------------------

 Structure from the checkpoint file:  "B3LYP6-31Gdp.Frag_444.chk"
 --------
 Frag_444
 --------
 Charge =  0 Multiplicity = 1

                         Standard orientation:
 ---------------------------------------------------------------------
 Center     Atomic      Atomic             Coordinates (Angstroms)
 Number     Number       Type             X           Y           Z
 ---------------------------------------------------------------------
      1          6           0       -1.842178   -0.663962    0.000096
      2          6           0       -0.688696    0.305957   -0.000102
      3          7           0       -0.748106    1.582060   -0.000018
      4          6           0        0.699615   -0.320313   -0.000507
      5          6           0        1.894051    0.603850    0.000152
      6          8           0        0.802646   -1.535266    0.000098
      7          1           0       -1.789240   -1.318973    0.875105
      8          1           0       -1.789602   -1.318907   -0.874982
      9          1           0       -2.798465   -0.134764    0.000316
     10          1           0       -1.724065    1.898674    0.000191
     11          1           0        1.866078    1.260386    0.874752
     12          1           0        1.866972    1.260371   -0.874488
     13          1           0        2.807146    0.007731    0.000613
 ---------------------------------------------------------------------

 SCF Done:  E(RB3LYP) =  -286.611767572     A.U. after    1 cycles

 The electronic state is 1-A.
 Alpha  occ. eigenvalues --  -19.14877 -14.33888 -10.28060 -10.24923 -10.19636
 Alpha  occ. eigenvalues --  -10.18481  -1.04678  -0.92065  -0.74446  -0.74066
 Alpha  occ. eigenvalues --   -0.63487  -0.50979  -0.48426  -0.46600  -0.45274
 Alpha  occ. eigenvalues --   -0.42017  -0.42008  -0.41325  -0.37635  -0.36006
 Alpha  occ. eigenvalues --   -0.31982  -0.29337  -0.24774
 Alpha virt. eigenvalues --   -0.06537   0.05239   0.08793   0.12299   0.13257
 Alpha virt. eigenvalues --    0.14799   0.16120   0.17283   0.19329   0.22010
 Alpha virt. eigenvalues --    0.25468   0.31472   0.32995   0.38918   0.52021

 Mulliken charges:
               1
     1  C   -0.353029
     2  C    0.223853
     3  N   -0.510062
     4  C    0.411496
     5  C   -0.372335
     6  O   -0.437188
     7  H    0.144813
     8  H    0.144795
     9  H    0.104160
    10  H    0.230731
    11  H    0.142725
    12  H    0.142663
    13  H    0.127377
 Sum of Mulliken charges =   0.00000

 Dipole moment (field-independent basis, Debye):
    X=             -1.5977    Y=              1.0124    Z=             -0.0002  Tot=              1.8915
 Quadrupole moment (field-independent basis, Debye-Ang):
   XX=            -30.7840   YY=            -41.7577   ZZ=            -34.9830
   XY=              1.3354   XZ=             -0.0007   YZ=              0.0014

  Exact polarizability:  55.370  -1.979  61.311  -0.000  -0.001  32.656
 Approx polarizability:  65.996  -6.879 109.391   0.001  -0.007  47.541

                      1                      2                      3
                      A                      A                      A
 Frequencies --     59.0029               111.0687               124.4966
 Red. masses --      2.5914                 1.1372                 1.1044
 Frc consts  --      0.0053                 0.0083                 0.0101
 IR Inten    --      7.7363                 0.1412                 0.0008

                      4                      5                      6
                      A                      A                      A
 Frequencies --    259.4342               350.0135               378.3934
 Red. masses --      3.3928                 3.0319                 3.0697
 Frc consts  --      0.1345                 0.2188                 0.2590
 IR Inten    --     14.2587                 0.0072                 1.6224

                      7                      8                      9
                      A                      A                      A
 Frequencies --    518.0566               554.4450               624.6635
 Red. masses --      3.4139                 4.3227                 2.2363
 Frc consts  --      0.5398                 0.7829                 0.5141
 IR Inten    --     14.5848                12.6390                 0.2129

                     10                     11                     12
                      A                      A                      A
 Frequencies --    707.3398               869.1671               927.0639
 Red. masses --      3.3151                 1.1526                 2.3881
 Frc consts  --      0.9772                 0.5130                 1.2093
 IR Inten    --      1.5857                25.0888                10.6819

                     13                     14                     15
                      A                      A                      A
 Frequencies --   1019.5804              1060.1190              1084.7901
 Red. masses --      1.7953                 1.7935                 1.5586
 Frc consts  --      1.0996                 1.1876                 1.0806
 IR Inten    --      0.6258                20.5822                17.0300

                     16                     17                     18
                      A                      A                      A
 Frequencies --   1088.5593              1212.1060              1383.8073
 Red. masses --      1.5428                 2.1088                 1.4351
 Frc consts  --      1.0771                 1.8255                 1.6192
 IR Inten    --     34.9628                74.9182                49.6002

                     19                     20                     21
                      A                      A                      A
 Frequencies --   1404.9611              1425.2406              1470.0430
 Red. masses --      1.3757                 1.7150                 1.0561
 Frc consts  --      1.6000                 2.0525                 1.3446
 IR Inten    --     34.3005                25.7659                 9.2960

                     22                     23                     24
                      A                      A                      A
 Frequencies --   1474.8790              1477.5778              1487.0364
 Red. masses --      1.0466                 1.0482                 1.0791
 Frc consts  --      1.3413                 1.3483                 1.4060
 IR Inten    --     13.3392                 0.3803                24.9004

                     25                     26                     27
                      A                      A                      A
 Frequencies --   1724.1162              1795.2691              3055.0698
 Red. masses --      9.0326                11.0964                 1.0351
 Frc consts  --     15.8196                21.0712                 5.6920
 IR Inten    --     35.2152               117.9106                 5.9944

                     28                     29                     30
                      A                      A                      A
 Frequencies --   3064.9534              3124.4869              3130.6085
 Red. masses --      1.0352                 1.0995                 1.0986
 Frc consts  --      5.7295                 6.3242                 6.3439
 IR Inten    --      0.7765                 5.1647                 3.8262

                     31                     32                     33
                      A                      A                      A
 Frequencies --   3141.7460              3171.6845              3424.8755
 Red. masses --      1.1055                 1.1059                 1.0748
 Frc consts  --      6.4291                 6.5545                 7.4282
 IR Inten    --     12.9208                10.3880                 5.0030

 - Thermochemistry -
 -------------------
 Temperature   298.150 Kelvin.  Pressure   1.00000 Atm.
 Atom     1 has atomic number  6 and mass  12.00000

 Molecular mass:    85.05276 amu.
 Principal axes and moments of inertia in atomic units:
                           1         2         3
     Eigenvalues --   347.71762 534.43069 860.11283
           X            0.99220   0.12467   0.00000
           Y           -0.12467   0.99220   0.00001
           Z           -0.00000  -0.00001   1.00000
 This molecule is an asymmetric top.
 Rotational symmetry number  1.
 Rotational temperatures (Kelvin)      0.24909     0.16207     0.10070
 Rotational constants (GHZ):           5.19025     3.37694     2.09826
 Zero-point vibrational energy     279355.9 (Joules/Mol)
                                   66.76766 (Kcal/Mol)
 Warning -- explicit consideration of   8 degrees of freedom as
           vibrations may cause significant error
 Vibrational temperatures:     84.89   159.80   179.12   373.27   503.59
          (Kelvin)            544.42   745.37   797.72   898.75  1017.70
                             1250.54  1333.84  1466.95  1525.27  1560.77
                             1566.19  1743.95  1990.99  2021.42  2050.60
                             2115.06  2122.02  2125.90  2139.51  2480.62
                             2582.99  4395.56  4409.78  4495.43  4504.24
                             4520.27  4563.34  4927.63

 Zero-point correction=                           0.106401 (Hartree/Particle)
 Thermal correction to Energy=                    0.113560
 Thermal correction to Enthalpy=                  0.114505
 Thermal correction to Gibbs Free Energy=         0.075051
 Sum of electronic and zero-point Energies=           -286.505367
 Sum of electronic and thermal Energies=              -286.498207
 Sum of electronic and thermal Enthalpies=            -286.497263
 Sum of electronic and thermal Free Energies=         -286.536717

                     E (Thermal)             CV                S
                      KCal/Mol        Cal/Mol-Kelvin    Cal/Mol-Kelvin
 Total                   71.260             23.935             83.037
 Electronic               0.000              0.000              0.000
 Translational            0.889              2.981             39.235
 Rotational               0.889              2.981             26.572
 Vibrational             69.483             17.973             17.230
 Vibration     1          0.596              1.974              4.490
 Vibration     2          0.607              1.940              3.250
 Vibration     3          0.610              1.928              3.029
 Vibration     4          0.668              1.747              1.666
 Vibration     5          0.727              1.575              1.166
 Vibration     6          0.749              1.516              1.046
 Vibration     7          0.873              1.210              0.614
 Vibration     8          0.910              1.130              0.535

 Optimization completed.
    -- Stationary point found.
 Normal termination of Gaussian 09 at Thu Sep  8 15:10:03 2022.
