 Gaussian 09, Revision D.01,
 Gaussian 09:  ES64L-G09RevD.01 24-Apr-2013

 -------------------------
 #P OPT Freq B3LYP/6-31G**
 -------------------------

 -------
 Frag_56
 -------
 Symbolic Z-matrix:
 Charge =  0 Multiplicity = 1

 SCF Done:  E(RB3LYP) =  -245.013375217     A.U. after   14 cycles
 SCF Done:  E(RB3LYP) =  -245.013373262     A.U. after    9 cycles
 SCF Done:  E(RB3LYP) =  -245.013373944     A.U. after    9 cycles
 SCF Done:  E(RB3LYP) =  -245.013375524     A.U. after    9 cycles
 Optimization completed.
    -- Stationary point found.
 Normal termination of Gaussian 09 at Fri Jul 23 05:23:42 2021.

 ----------------------------------------------------------------------
 #P Geom=AllCheck Guess=TCheck SCRF=Check GenChk RB3LYP/6-31G(d,p) Freq
 ----------------------------------------------------------------------

 Structure from the checkpoint file:  "/vol2/users/liuj201281/HOFBenchmark/IsodesmicSplit/Sample60/Ring26/Running/Gau-380457.chk"
 -------
 Frag_56
 -------
 Charge =  0 Multiplicity = 1

                         Standard orientation:
 ---------------------------------------------------------------------
 Center     Atomic      Atomic             Coordinates (Angstroms)
 Number     Number       Type             X           Y           Z
 ---------------------------------------------------------------------
      1          6           0        1.325232   -0.002384   -0.002726
      2          7           0       -0.173837    0.000009   -0.011081
      3          8           0       -0.728890    1.093908    0.002862
      4          8           0       -0.733714   -1.091391    0.003282
      5          1           0        1.666029    0.893803   -0.516653
      6          1           0        1.636314    0.018493    1.043392
      7          1           0        1.663950   -0.918194   -0.481959
 ---------------------------------------------------------------------

 SCF Done:  E(RB3LYP) =  -245.013375524     A.U. after    1 cycles

 The electronic state is 1-A.
 Alpha  occ. eigenvalues --  -19.18726 -19.18711 -14.57710 -10.25548  -1.22955
 Alpha  occ. eigenvalues --   -1.05879  -0.81765  -0.62552  -0.54921  -0.53949
 Alpha  occ. eigenvalues --   -0.51928  -0.45394  -0.43608  -0.31508  -0.30740
 Alpha  occ. eigenvalues --   -0.29476
 Alpha virt. eigenvalues --   -0.06962   0.08935   0.10859   0.13024   0.14167
 Alpha virt. eigenvalues --    0.26427   0.35576   0.47027   0.50295   0.52067
 Alpha virt. eigenvalues --    0.64481   0.64782   0.68544   0.80018   0.80731

 Mulliken charges:
               1
     1  C   -0.198295
     2  N    0.440781
     3  O   -0.369559
     4  O   -0.369551
     5  H    0.162506
     6  H    0.171947
     7  H    0.162170
 Sum of Mulliken charges =   0.00000

 Dipole moment (field-independent basis, Debye):
    X=              3.4841    Y=             -0.0052    Z=              0.0402  Tot=              3.4844
 Quadrupole moment (field-independent basis, Debye-Ang):
   XX=            -21.7159   YY=            -25.9544   ZZ=            -21.2540
   XY=             -0.0024   XZ=              0.1192   YZ=              0.0011

  Exact polarizability:  26.163   0.035  32.133   0.141  -0.002  17.139
 Approx polarizability:  33.798   0.123  68.964   0.292  -0.008  23.414

                      1                      2                      3
                      A                      A                      A
 Frequencies --     30.1752               477.5618               606.8995
 Red. masses --      1.0921                 3.3181                 3.5532
 Frc consts  --      0.0006                 0.4459                 0.7711
 IR Inten    --      0.0708                 0.6193                 5.7853

                      4                      5                      6
                      A                      A                      A
 Frequencies --    661.3455               927.6770              1110.7256
 Red. masses --      6.1343                 9.5751                 1.3949
 Frc consts  --      1.5808                 4.8550                 1.0139
 IR Inten    --     20.4005                14.0642                 8.7065

                      7                      8                      9
                      A                      A                      A
 Frequencies --   1136.9373              1409.5732              1441.6796
 Red. masses --      1.5352                 1.3278                 5.2221
 Frc consts  --      1.1692                 1.5544                 6.3948
 IR Inten    --      1.6439                24.7627                81.2557

                     10                     11                     12
                      A                      A                      A
 Frequencies --   1474.9096              1488.7396              1679.9370
 Red. masses --      1.0666                 1.0778                 9.5165
 Frc consts  --      1.3670                 1.4074                15.8238
 IR Inten    --     32.4080                11.1897               248.1877

                     13                     14                     15
                      A                      A                      A
 Frequencies --   3091.6490              3187.9904              3220.1093
 Red. masses --      1.0305                 1.1038                 1.1110
 Frc consts  --      5.8033                 6.6098                 6.7876
 IR Inten    --      0.6910                 1.9956                 0.6942

 - Thermochemistry -
 -------------------
 Temperature   298.150 Kelvin.  Pressure   1.00000 Atm.
 Atom     1 has atomic number  6 and mass  12.00000

 Molecular mass:    61.01638 amu.
 Principal axes and moments of inertia in atomic units:
                           1         2         3
     Eigenvalues --   148.01958 171.76212 308.33760
           X            1.00000  -0.00133   0.00104
           Y            0.00133   1.00000   0.00019
           Z           -0.00104  -0.00018   1.00000
 This molecule is an asymmetric top.
 Rotational symmetry number  1.
 Rotational temperatures (Kelvin)      0.58515     0.50427     0.28091
 Rotational constants (GHZ):          12.19258    10.50721     5.85313
 Zero-point vibrational energy     131265.7 (Joules/Mol)
                                   31.37325 (Kcal/Mol)
 Warning -- explicit consideration of   3 degrees of freedom as
           vibrations may cause significant error
 Vibrational temperatures:     43.42   687.10   873.19   951.53  1334.72
          (Kelvin)           1598.08  1635.80  2028.06  2074.25  2122.06
                             2141.96  2417.05  4448.19  4586.80  4633.01

 Zero-point correction=                           0.049996 (Hartree/Particle)
 Thermal correction to Energy=                    0.054353
 Thermal correction to Enthalpy=                  0.055297
 Thermal correction to Gibbs Free Energy=         0.022299
 Sum of electronic and zero-point Energies=           -244.963379
 Sum of electronic and thermal Energies=              -244.959022
 Sum of electronic and thermal Enthalpies=            -244.958078
 Sum of electronic and thermal Free Energies=         -244.991077

                     E (Thermal)             CV                S
                      KCal/Mol        Cal/Mol-Kelvin    Cal/Mol-Kelvin
 Total                   34.107             12.545             69.451
 Electronic               0.000              0.000              0.000
 Translational            0.889              2.981             38.245
 Rotational               0.889              2.981             23.576
 Vibrational             32.330              6.583              7.629
 Vibration     1          0.594              1.984              5.818
 Vibration     2          0.834              1.300              0.717
 Vibration     3          0.966              1.017              0.438

 Normal termination of Gaussian 09 at Fri Jul 23 05:23:51 2021.
