 Gaussian 09, Revision E.01,
 Gaussian 09:  ES64L-G09RevE.01 30-Nov-2015

 ----------------------------
 #P OPT Freq B3LYP/6-31G(d,p)
 ----------------------------

 ---------
 Frag_1061
 ---------
 Symbolic Z-matrix:
 Charge =  0 Multiplicity = 1

 SCF Done:  E(RB3LYP) =  -207.953151662     A.U. after   14 cycles
 SCF Done:  E(RB3LYP) =  -207.953247102     A.U. after   10 cycles
 SCF Done:  E(RB3LYP) =  -207.953230885     A.U. after   10 cycles
 SCF Done:  E(RB3LYP) =  -207.953216859     A.U. after   10 cycles
 SCF Done:  E(RB3LYP) =  -207.953250540     A.U. after    5 cycles
 SCF Done:  E(RB3LYP) =  -207.953252432     A.U. after    9 cycles
 Optimization completed.
    -- Stationary point found.
 Normal termination of Gaussian 09 at Thu Sep  8 14:52:05 2022.

 ----------------------------------------------------------------------
 #P Geom=AllCheck Guess=TCheck SCRF=Check GenChk RB3LYP/6-31G(d,p) Freq
 ----------------------------------------------------------------------

 Structure from the checkpoint file:  "B3LYP6-31Gdp.Frag_1061.chk"
 ---------
 Frag_1061
 ---------
 Charge =  0 Multiplicity = 1

                         Standard orientation:
 ---------------------------------------------------------------------
 Center     Atomic      Atomic             Coordinates (Angstroms)
 Number     Number       Type             X           Y           Z
 ---------------------------------------------------------------------
      1          7           0       -1.473224   -0.495477    0.000000
      2          6           0       -0.744183    0.546387   -0.000002
      3          6           0        0.765747    0.494361    0.000005
      4          8           0        1.369321   -0.557610   -0.000002
      5          1           0       -0.853207   -1.319853    0.000003
      6          1           0       -1.212109    1.534990   -0.000001
      7          1           0        1.293925    1.469589   -0.000005
 ---------------------------------------------------------------------

 SCF Done:  E(RB3LYP) =  -207.953252432     A.U. after    1 cycles

 The electronic state is 1-A.
 Alpha  occ. eigenvalues --  -19.18174 -14.35550 -10.30227 -10.25421  -1.07525
 Alpha  occ. eigenvalues --   -0.92636  -0.70058  -0.58208  -0.52605  -0.47987
 Alpha  occ. eigenvalues --   -0.43252  -0.42742  -0.34116  -0.31342  -0.27345
 Alpha virt. eigenvalues --   -0.09644   0.04196   0.09920   0.13073   0.14017
 Alpha virt. eigenvalues --    0.22886   0.30462   0.34960   0.50078   0.55958
 Alpha virt. eigenvalues --    0.57204   0.58425   0.62285   0.67025   0.71801

 Mulliken charges:
               1
     1  N   -0.423859
     2  C    0.076071
     3  C    0.272561
     4  O   -0.382603
     5  H    0.256815
     6  H    0.113891
     7  H    0.087124
 Sum of Mulliken charges =  -0.00000

 Dipole moment (field-independent basis, Debye):
    X=              0.4684    Y=              1.9869    Z=              0.0000  Tot=              2.0413
 Quadrupole moment (field-independent basis, Debye-Ang):
   XX=            -29.4587   YY=            -20.1621   ZZ=            -22.6341
   XY=              0.9940   XZ=             -0.0000   YZ=             -0.0000

  Exact polarizability:  34.703   2.565  36.386  -0.000  -0.000  13.765
 Approx polarizability:  54.035   3.584  59.520  -0.000  -0.000  19.799

                      1                      2                      3
                      A                      A                      A
 Frequencies --    214.9919               304.0496               683.7169
 Red. masses --      1.8569                 5.4595                 1.4749
 Frc consts  --      0.0506                 0.2974                 0.4062
 IR Inten    --     10.2825                18.5837                17.4902

                      4                      5                      6
                      A                      A                      A
 Frequencies --    782.6316               891.7575              1048.7912
 Red. masses --      4.0621                 3.4964                 1.8723
 Frc consts  --      1.4659                 1.6382                 1.2134
 IR Inten    --     24.6247                42.0850                 0.0015

                      7                      8                      9
                      A                      A                      A
 Frequencies --   1169.2043              1245.8905              1401.8474
 Red. masses --      1.0713                 1.2007                 1.1789
 Frc consts  --      0.8629                 1.0981                 1.3650
 IR Inten    --     60.4011               101.7796                21.0500

                     10                     11                     12
                      A                      A                      A
 Frequencies --   1438.3801              1698.4966              1815.9558
 Red. masses --      1.3143                 9.4353                 9.0954
 Frc consts  --      1.6022                16.0374                17.6719
 IR Inten    --      9.2402                27.0262                62.7972

                     13                     14                     15
                      A                      A                      A
 Frequencies --   2948.2443              3120.4116              3372.0620
 Red. masses --      1.0871                 1.0911                 1.0723
 Frc consts  --      5.5672                 6.2596                 7.1835
 IR Inten    --    110.3837                32.5779                 1.0764

 - Thermochemistry -
 -------------------
 Temperature   298.150 Kelvin.  Pressure   1.00000 Atm.
 Atom     1 has atomic number  7 and mass  14.00307

 Molecular mass:    57.02146 amu.
 Principal axes and moments of inertia in atomic units:
                           1         2         3
     Eigenvalues --    75.56963 278.47007 354.03970
           X            0.99980   0.01989  -0.00000
           Y           -0.01989   0.99980  -0.00000
           Z            0.00000   0.00000   1.00000
 This molecule is an asymmetric top.
 Rotational symmetry number  1.
 Rotational temperatures (Kelvin)      1.14615     0.31103     0.24464
 Rotational constants (GHZ):          23.88183     6.48092     5.09757
 Zero-point vibrational energy     132405.3 (Joules/Mol)
                                   31.64562 (Kcal/Mol)
 Warning -- explicit consideration of   2 degrees of freedom as
           vibrations may cause significant error
 Vibrational temperatures:    309.33   437.46   983.71  1126.03  1283.04
          (Kelvin)           1508.97  1682.22  1792.56  2016.94  2069.51
                             2443.75  2612.75  4241.86  4489.57  4851.64

 Zero-point correction=                           0.050431 (Hartree/Particle)
 Thermal correction to Energy=                    0.054555
 Thermal correction to Enthalpy=                  0.055499
 Thermal correction to Gibbs Free Energy=         0.024209
 Sum of electronic and zero-point Energies=           -207.902822
 Sum of electronic and thermal Energies=              -207.898697
 Sum of electronic and thermal Enthalpies=            -207.897753
 Sum of electronic and thermal Free Energies=         -207.929043

                     E (Thermal)             CV                S
                      KCal/Mol        Cal/Mol-Kelvin    Cal/Mol-Kelvin
 Total                   34.234             12.486             65.856
 Electronic               0.000              0.000              0.000
 Translational            0.889              2.981             38.044
 Rotational               0.889              2.981             23.525
 Vibrational             32.456              6.525              4.287
 Vibration     1          0.645              1.818              2.001
 Vibration     2          0.695              1.666              1.395

 Optimization completed.
    -- Stationary point found.
 Normal termination of Gaussian 09 at Thu Sep  8 14:52:11 2022.
