 Gaussian 09, Revision E.01,
 Gaussian 09:  ES64L-G09RevE.01 30-Nov-2015

 ----------------------------
 #P OPT Freq B3LYP/6-31G(d,p)
 ----------------------------

 --------
 Frag_647
 --------
 Symbolic Z-matrix:
 Charge =  0 Multiplicity = 1

 SCF Done:  E(RB3LYP) =  -379.121463255     A.U. after   14 cycles
 SCF Done:  E(RB3LYP) =  -379.121574565     A.U. after   11 cycles
 SCF Done:  E(RB3LYP) =  -379.121555518     A.U. after   11 cycles
 SCF Done:  E(RB3LYP) =  -379.121588438     A.U. after   10 cycles
 SCF Done:  E(RB3LYP) =  -379.121588761     A.U. after   10 cycles
 SCF Done:  E(RB3LYP) =  -379.121592456     A.U. after    9 cycles
 SCF Done:  E(RB3LYP) =  -379.121592850     A.U. after    7 cycles
 SCF Done:  E(RB3LYP) =  -379.121593041     A.U. after    8 cycles
 Optimization completed.
    -- Stationary point found.
 Normal termination of Gaussian 09 at Thu Sep  8 15:16:33 2022.

 ----------------------------------------------------------------------
 #P Geom=AllCheck Guess=TCheck SCRF=Check GenChk RB3LYP/6-31G(d,p) Freq
 ----------------------------------------------------------------------

 Structure from the checkpoint file:  "B3LYP6-31Gdp.Frag_647.chk"
 --------
 Frag_647
 --------
 Charge =  0 Multiplicity = 1

                         Standard orientation:
 ---------------------------------------------------------------------
 Center     Atomic      Atomic             Coordinates (Angstroms)
 Number     Number       Type             X           Y           Z
 ---------------------------------------------------------------------
      1          6           0       -1.138987   -0.102576    1.383378
      2          6           0       -0.592216    0.010795   -0.048335
      3          7           0       -0.968850   -1.173829   -0.806228
      4          8           0       -1.064579    1.199205   -0.655936
      5          6           0        0.955934    0.114090    0.003668
      6          7           0        1.609175   -1.064844    0.096044
      7          8           0        1.493368    1.218888    0.004660
      8          1           0       -0.797813    0.750128    1.975014
      9          1           0       -0.814305   -1.027196    1.867940
     10          1           0       -2.232874   -0.076326    1.349309
     11          1           0       -1.967381   -1.336960   -0.695465
     12          1           0       -0.823843   -0.974743   -1.795051
     13          1           0       -0.329746    1.833736   -0.556483
     14          1           0        1.087341   -1.909659   -0.090229
     15          1           0        2.617641   -1.066866    0.094189
 ---------------------------------------------------------------------

 SCF Done:  E(RB3LYP) =  -379.121593041     A.U. after    1 cycles

 The electronic state is 1-A.
 Alpha  occ. eigenvalues --  -19.13224 -19.12410 -14.36201 -14.33027 -10.28994
 Alpha  occ. eigenvalues --  -10.27291 -10.18168  -1.05048  -1.00862  -0.91816
 Alpha  occ. eigenvalues --   -0.88070  -0.73841  -0.64970  -0.57226  -0.55438
 Alpha  occ. eigenvalues --   -0.50783  -0.49630  -0.47789  -0.43570  -0.41351
 Alpha  occ. eigenvalues --   -0.40201  -0.38296  -0.37439  -0.33852  -0.29396
 Alpha  occ. eigenvalues --   -0.27621  -0.27387  -0.24422
 Alpha virt. eigenvalues --    0.01903   0.07223   0.10124   0.12583   0.13706
 Alpha virt. eigenvalues --    0.14763   0.16036   0.17605   0.18455   0.21894
 Alpha virt. eigenvalues --    0.24388   0.25410   0.29316   0.33800   0.39895

 Mulliken charges:
               1
     1  C   -0.299921
     2  C    0.298089
     3  N   -0.604869
     4  O   -0.563022
     5  C    0.563007
     6  N   -0.597368
     7  O   -0.533134
     8  H    0.122894
     9  H    0.109105
    10  H    0.113846
    11  H    0.249923
    12  H    0.250353
    13  H    0.320193
    14  H    0.293433
    15  H    0.277471
 Sum of Mulliken charges =  -0.00000

 Dipole moment (field-independent basis, Debye):
    X=             -0.0351    Y=             -3.0723    Z=             -0.0553  Tot=              3.0730
 Quadrupole moment (field-independent basis, Debye-Ang):
   XX=            -39.2633   YY=            -42.4024   ZZ=            -40.2402
   XY=             -2.9142   XZ=             -0.7777   YZ=              1.4208

  Exact polarizability:  54.961   0.255  55.340   0.221   0.036  41.526
 Approx polarizability:  73.010   2.814  88.694   1.799  -1.663  55.530

                      1                      2                      3
                      A                      A                      A
 Frequencies --     79.2579               231.7923               240.7398
 Red. masses --      6.5675                 2.8380                 1.1038
 Frc consts  --      0.0243                 0.0898                 0.0377
 IR Inten    --      1.0760                 1.2049                 0.2822

                      4                      5                      6
                      A                      A                      A
 Frequencies --    296.3888               316.9004               367.3626
 Red. masses --      2.9323                 1.1601                 2.4986
 Frc consts  --      0.1518                 0.0686                 0.1987
 IR Inten    --     11.1924                36.0113                22.9064

                      7                      8                      9
                      A                      A                      A
 Frequencies --    386.0872               412.2100               476.3968
 Red. masses --      3.9437                 1.7112                 1.9720
 Frc consts  --      0.3464                 0.1713                 0.2637
 IR Inten    --     12.9222                68.1774               181.4821

                     10                     11                     12
                      A                      A                      A
 Frequencies --    519.0491               532.0415               599.2227
 Red. masses --      1.6642                 1.6795                 3.2701
 Frc consts  --      0.2642                 0.2801                 0.6918
 IR Inten    --      6.8479                57.4926                20.1963

                     13                     14                     15
                      A                      A                      A
 Frequencies --    666.2521               726.0872               772.5573
 Red. masses --      1.1698                 3.2344                 3.7911
 Frc consts  --      0.3059                 1.0047                 1.3331
 IR Inten    --     15.5856                15.2502                 8.0683

                     16                     17                     18
                      A                      A                      A
 Frequencies --    889.5871               939.0595               994.7076
 Red. masses --      2.3989                 1.7329                 1.6960
 Frc consts  --      1.1185                 0.9003                 0.9887
 IR Inten    --     77.5163                43.8812                 7.0710

                     19                     20                     21
                      A                      A                      A
 Frequencies --   1037.5503              1113.9761              1178.9163
 Red. masses --      1.5666                 1.8900                 2.2090
 Frc consts  --      0.9937                 1.3819                 1.8089
 IR Inten    --     42.0930                 2.0295                 7.2199

                     22                     23                     24
                      A                      A                      A
 Frequencies --   1204.9482              1309.2747              1351.0972
 Red. masses --      2.8565                 1.7234                 2.1273
 Frc consts  --      2.4435                 1.7406                 2.2880
 IR Inten    --    169.5339                33.9397               166.2319

                     25                     26                     27
                      A                      A                      A
 Frequencies --   1411.5014              1451.2238              1501.0470
 Red. masses --      1.2768                 1.6723                 1.0632
 Frc consts  --      1.4988                 2.0751                 1.4114
 IR Inten    --      8.8672                31.9949                 5.7282

                     28                     29                     30
                      A                      A                      A
 Frequencies --   1513.0052              1597.3523              1678.0036
 Red. masses --      1.1467                 1.3521                 1.0997
 Frc consts  --      1.5466                 2.0327                 1.8244
 IR Inten    --      4.3299               135.8855                36.8846

                     31                     32                     33
                      A                      A                      A
 Frequencies --   1794.6266              3053.8423              3131.6646
 Red. masses --      9.4211                 1.0350                 1.1025
 Frc consts  --     17.8772                 5.6870                 6.3707
 IR Inten    --    274.1877                12.9263                19.0242

                     34                     35                     36
                      A                      A                      A
 Frequencies --   3147.3012              3486.1826              3566.8805
 Red. masses --      1.1038                 1.0498                 1.0920
 Frc consts  --      6.4417                 7.5172                 8.1857
 IR Inten    --     15.3079                 0.3813                 1.6256

                     37                     38                     39
                      A                      A                      A
 Frequencies --   3580.3996              3659.4547              3725.9555
 Red. masses --      1.0443                 1.0646                 1.1056
 Frc consts  --      7.8874                 8.3998                 9.0429
 IR Inten    --     44.0163                86.9960                70.5361

 - Thermochemistry -
 -------------------
 Temperature   298.150 Kelvin.  Pressure   1.00000 Atm.
 Atom     1 has atomic number  6 and mass  12.00000

 Molecular mass:   104.05858 amu.
 Principal axes and moments of inertia in atomic units:
                           1         2         3
     Eigenvalues --   524.86710 733.44630 884.84511
           X            0.99926  -0.02427  -0.02991
           Y            0.02508   0.99932   0.02693
           Z            0.02923  -0.02766   0.99919
 This molecule is an asymmetric top.
 Rotational symmetry number  1.
 Warning -- assumption of classical behavior for rotation
           may cause significant error
 Rotational temperatures (Kelvin)      0.16502     0.11809     0.09789
 Rotational constants (GHZ):           3.43847     2.46063     2.03961
 Zero-point vibrational energy     328613.6 (Joules/Mol)
                                   78.54053 (Kcal/Mol)
 Warning -- explicit consideration of  12 degrees of freedom as
           vibrations may cause significant error
 Vibrational temperatures:    114.03   333.50   346.37   426.44   455.95
          (Kelvin)            528.55   555.49   593.08   685.43   746.79
                              765.49   862.15   958.59  1044.68  1111.54
                             1279.92  1351.10  1431.16  1492.80  1602.76
                             1696.20  1733.65  1883.75  1943.93  2030.83
                             2087.98  2159.67  2176.87  2298.23  2414.27
                             2582.06  4393.79  4505.76  4528.26  5015.83
                             5131.94  5151.39  5265.13  5360.81

 Zero-point correction=                           0.125162 (Hartree/Particle)
 Thermal correction to Energy=                    0.132980
 Thermal correction to Enthalpy=                  0.133924
 Thermal correction to Gibbs Free Energy=         0.093801
 Sum of electronic and zero-point Energies=           -378.996431
 Sum of electronic and thermal Energies=              -378.988613
 Sum of electronic and thermal Enthalpies=            -378.987669
 Sum of electronic and thermal Free Energies=         -379.027792

                     E (Thermal)             CV                S
                      KCal/Mol        Cal/Mol-Kelvin    Cal/Mol-Kelvin
 Total                   83.446             29.492             84.447
 Electronic               0.000              0.000              0.000
 Translational            0.889              2.981             39.837
 Rotational               0.889              2.981             27.324
 Vibrational             81.669             23.531             17.286
 Vibration     1          0.600              1.963              3.909
 Vibration     2          0.653              1.792              1.865
 Vibration     3          0.658              1.778              1.797
 Vibration     4          0.690              1.680              1.437
 Vibration     5          0.704              1.641              1.326
 Vibration     6          0.740              1.539              1.091
 Vibration     7          0.755              1.500              1.015
 Vibration     8          0.776              1.444              0.919
 Vibration     9          0.833              1.302              0.720
 Vibration    10          0.874              1.208              0.612
 Vibration    11          0.887              1.179              0.583
 Vibration    12          0.957              1.033              0.451

 Optimization completed.
    -- Stationary point found.
 Normal termination of Gaussian 09 at Thu Sep  8 15:16:47 2022.
