 Gaussian 09, Revision E.01,
 Gaussian 09:  ES64L-G09RevE.01 30-Nov-2015

 ----------------------------
 #P OPT Freq B3LYP/6-31G(d,p)
 ----------------------------

 --------
 Frag_758
 --------
 Symbolic Z-matrix:
 Charge =  0 Multiplicity = 1

 SCF Done:  E(RB3LYP) =  -271.787574437     A.U. after   13 cycles
 SCF Done:  E(RB3LYP) =  -271.787660938     A.U. after    9 cycles
 SCF Done:  E(RB3LYP) =  -271.787650311     A.U. after    9 cycles
 SCF Done:  E(RB3LYP) =  -271.787639708     A.U. after   11 cycles
 SCF Done:  E(RB3LYP) =  -271.787665892     A.U. after    9 cycles
 Optimization completed.
    -- Stationary point found.
 Normal termination of Gaussian 09 at Thu Sep  8 15:05:03 2022.

 ----------------------------------------------------------------------
 #P Geom=AllCheck Guess=TCheck SCRF=Check GenChk RB3LYP/6-31G(d,p) Freq
 ----------------------------------------------------------------------

 Structure from the checkpoint file:  "B3LYP6-31Gdp.Frag_758.chk"
 --------
 Frag_758
 --------
 Charge =  0 Multiplicity = 1

                         Standard orientation:
 ---------------------------------------------------------------------
 Center     Atomic      Atomic             Coordinates (Angstroms)
 Number     Number       Type             X           Y           Z
 ---------------------------------------------------------------------
      1          6           0        1.082195   -0.452652    1.261489
      2          6           0        0.330490    0.027320    0.000001
      3          6           0        0.167437    1.551092   -0.000436
      4          6           0        1.081854   -0.453414   -1.261415
      5          6           0       -1.033674   -0.654561    0.000352
      6          8           0       -2.104545   -0.090039    0.000100
      7          1           0        2.100703   -0.050580    1.266839
      8          1           0        1.155612   -1.545512    1.295168
      9          1           0        0.580935   -0.117230    2.175158
     10          1           0       -0.386509    1.885842   -0.881723
     11          1           0       -0.386454    1.886343    0.880695
     12          1           0        1.146669    2.040955   -0.000609
     13          1           0        2.100339   -0.051289   -1.267317
     14          1           0        0.580306   -0.118594   -2.175145
     15          1           0        1.155320   -1.546291   -1.294417
     16          1           0       -0.980364   -1.770044    0.000598
 ---------------------------------------------------------------------

 SCF Done:  E(RB3LYP) =  -271.787665892     A.U. after    1 cycles

 The electronic state is 1-A.
 Alpha  occ. eigenvalues --  -19.14895 -10.27216 -10.21000 -10.18945 -10.18944
 Alpha  occ. eigenvalues --  -10.17597  -1.04426  -0.82542  -0.69739  -0.69257
 Alpha  occ. eigenvalues --   -0.63606  -0.53533  -0.47844  -0.45497  -0.44929
 Alpha  occ. eigenvalues --   -0.42762  -0.40531  -0.38914  -0.37531  -0.36933
 Alpha  occ. eigenvalues --   -0.36769  -0.33924  -0.33595  -0.24785
 Alpha virt. eigenvalues --   -0.02031   0.07872   0.12011   0.12776   0.14696
 Alpha virt. eigenvalues --    0.15119   0.15583   0.16080   0.19398   0.19881
 Alpha virt. eigenvalues --    0.20520   0.21591   0.22214   0.23260   0.29154

 Mulliken charges:
               1
     1  C   -0.314682
     2  C   -0.037544
     3  C   -0.292628
     4  C   -0.314687
     5  C    0.313687
     6  O   -0.396747
     7  H    0.112657
     8  H    0.104455
     9  H    0.114971
    10  H    0.113681
    11  H    0.113679
    12  H    0.094542
    13  H    0.112663
    14  H    0.114976
    15  H    0.104458
    16  H    0.056517
 Sum of Mulliken charges =  -0.00000

 Dipole moment (field-independent basis, Debye):
    X=              2.5605    Y=             -0.6391    Z=              0.0001  Tot=              2.6390
 Quadrupole moment (field-independent basis, Debye-Ang):
   XX=            -44.1816   YY=            -37.0969   ZZ=            -37.0674
   XY=              0.6049   XZ=             -0.0002   YZ=             -0.0001

  Exact polarizability:  59.362  -1.881  56.257   0.001  -0.002  50.550
 Approx polarizability:  88.186  -6.310  77.522   0.002  -0.003  68.153

                      1                      2                      3
                      A                      A                      A
 Frequencies --     77.2517               199.7492               248.1120
 Red. masses --      3.3850                 1.0252                 1.0417
 Frc consts  --      0.0119                 0.0241                 0.0378
 IR Inten    --      4.0156                 0.0005                 0.2306

                      4                      5                      6
                      A                      A                      A
 Frequencies --    248.4013               277.7417               319.4401
 Red. masses --      1.3196                 1.9524                 2.0599
 Frc consts  --      0.0480                 0.0887                 0.1238
 IR Inten    --      2.3964                 3.7526                 0.5117

                      7                      8                      9
                      A                      A                      A
 Frequencies --    347.2424               386.5805               402.8843
 Red. masses --      2.6152                 2.2881                 2.0796
 Frc consts  --      0.1858                 0.2015                 0.1989
 IR Inten    --      1.7461                 0.9686                 0.0856

                     10                     11                     12
                      A                      A                      A
 Frequencies --    595.8032               766.5113               888.0531
 Red. masses --      3.7526                 3.4911                 2.2328
 Frc consts  --      0.7849                 1.2085                 1.0375
 IR Inten    --      2.9005                 7.7574                33.5533

                     13                     14                     15
                      A                      A                      A
 Frequencies --    935.2861               954.8677               962.4181
 Red. masses --      2.2148                 1.5493                 1.3122
 Frc consts  --      1.1415                 0.8323                 0.7161
 IR Inten    --      0.8601                 2.1808                 0.4771

                     16                     17                     18
                      A                      A                      A
 Frequencies --    970.5463              1061.7220              1074.4385
 Red. masses --      1.2040                 1.4539                 1.5432
 Frc consts  --      0.6682                 0.9656                 1.0496
 IR Inten    --      0.0053                 4.4927                 0.0191

                     19                     20                     21
                      A                      A                      A
 Frequencies --   1235.5680              1243.2360              1299.9941
 Red. masses --      2.6425                 2.5003                 2.9786
 Frc consts  --      2.3769                 2.2769                 2.9658
 IR Inten    --      3.3118                 2.4162                 1.1054

                     22                     23                     24
                      A                      A                      A
 Frequencies --   1408.2689              1416.5642              1420.1076
 Red. masses --      1.2099                 1.2446                 1.1869
 Frc consts  --      1.4137                 1.4714                 1.4102
 IR Inten    --      3.0384                 6.6012                 1.7388

                     25                     26                     27
                      A                      A                      A
 Frequencies --   1448.7482              1493.6343              1497.8988
 Red. masses --      1.2278                 1.0468                 1.0432
 Frc consts  --      1.5183                 1.3759                 1.3791
 IR Inten    --      3.6115                 0.0072                 0.0311

                     28                     29                     30
                      A                      A                      A
 Frequencies --   1500.0296              1515.1382              1520.0348
 Red. masses --      1.0467                 1.0481                 1.0595
 Frc consts  --      1.3877                 1.4176                 1.4424
 IR Inten    --      0.4838                 4.9587                 6.2159

                     31                     32                     33
                      A                      A                      A
 Frequencies --   1531.6882              1829.7302              2860.0427
 Red. masses --      1.0671                10.6345                 1.0827
 Frc consts  --      1.4750                20.9770                 5.2180
 IR Inten    --     14.7520               160.3717               123.0350

                     34                     35                     36
                      A                      A                      A
 Frequencies --   3036.6267              3040.1143              3053.4216
 Red. masses --      1.0344                 1.0349                 1.0363
 Frc consts  --      5.6200                 5.6354                 5.6926
 IR Inten    --     23.6791                22.6583                13.6481

                     37                     38                     39
                      A                      A                      A
 Frequencies --   3107.7683              3111.3822              3116.9719
 Red. masses --      1.1024                 1.1017                 1.1035
 Frc consts  --      6.2729                 6.2836                 6.3169
 IR Inten    --      0.9323                49.1761                14.4227

                     40                     41                     42
                      A                      A                      A
 Frequencies --   3117.8270              3125.5820              3134.2240
 Red. masses --      1.1029                 1.1019                 1.1024
 Frc consts  --      6.3168                 6.3423                 6.3803
 IR Inten    --     11.7786                35.0871                24.4651

 - Thermochemistry -
 -------------------
 Temperature   298.150 Kelvin.  Pressure   1.00000 Atm.
 Atom     1 has atomic number  6 and mass  12.00000

 Molecular mass:    86.07317 amu.
 Principal axes and moments of inertia in atomic units:
                           1         2         3
     Eigenvalues --   408.29220 655.75499 664.74910
           X            0.99984  -0.01797   0.00002
           Y            0.01797   0.99984  -0.00003
           Z           -0.00002   0.00003   1.00000
 This molecule is an asymmetric top.
 Rotational symmetry number  1.
 Rotational temperatures (Kelvin)      0.21214     0.13208     0.13030
 Rotational constants (GHZ):           4.42022     2.75216     2.71492
 Zero-point vibrational energy     369536.3 (Joules/Mol)
                                   88.32130 (Kcal/Mol)
 Warning -- explicit consideration of  10 degrees of freedom as
           vibrations may cause significant error
 Vibrational temperatures:    111.15   287.39   356.98   357.39   399.61
          (Kelvin)            459.60   499.60   556.20   579.66   857.23
                             1102.84  1277.71  1345.67  1373.84  1384.70
                             1396.40  1527.58  1545.88  1777.70  1788.74
                             1870.40  2026.18  2038.12  2043.22  2084.42
                             2149.00  2155.14  2158.21  2179.94  2186.99
                             2203.75  2632.57  4114.96  4369.02  4374.04
                             4393.19  4471.38  4476.58  4484.62  4485.85
                             4497.01  4509.44

 Zero-point correction=                           0.140749 (Hartree/Particle)
 Thermal correction to Energy=                    0.148374
 Thermal correction to Enthalpy=                  0.149318
 Thermal correction to Gibbs Free Energy=         0.109788
 Sum of electronic and zero-point Energies=           -271.646917
 Sum of electronic and thermal Energies=              -271.639292
 Sum of electronic and thermal Enthalpies=            -271.638348
 Sum of electronic and thermal Free Energies=         -271.677878

                     E (Thermal)             CV                S
                      KCal/Mol        Cal/Mol-Kelvin    Cal/Mol-Kelvin
 Total                   93.106             27.147             83.198
 Electronic               0.000              0.000              0.000
 Translational            0.889              2.981             39.271
 Rotational               0.889              2.981             26.679
 Vibrational             91.328             21.186             17.248
 Vibration     1          0.599              1.964              3.960
 Vibration     2          0.638              1.840              2.135
 Vibration     3          0.662              1.766              1.744
 Vibration     4          0.662              1.765              1.742
 Vibration     5          0.679              1.715              1.548
 Vibration     6          0.705              1.636              1.313
 Vibration     7          0.725              1.581              1.179
 Vibration     8          0.755              1.499              1.013
 Vibration     9          0.768              1.464              0.952
 Vibration    10          0.954              1.041              0.457

 Optimization completed.
    -- Stationary point found.
 Normal termination of Gaussian 09 at Thu Sep  8 15:05:16 2022.
