 Gaussian 09, Revision E.01,
 Gaussian 09:  ES64L-G09RevE.01 30-Nov-2015

 ----------------------------
 #P OPT Freq B3LYP/6-31G(d,p)
 ----------------------------

 --------
 Frag_718
 --------
 Symbolic Z-matrix:
 Charge =  0 Multiplicity = 1

 SCF Done:  E(RB3LYP) =  -249.663303200     A.U. after   12 cycles
 SCF Done:  E(RB3LYP) =  -249.663345760     A.U. after    8 cycles
 SCF Done:  E(RB3LYP) =  -249.663351745     A.U. after    8 cycles
 SCF Done:  E(RB3LYP) =  -249.663352658     A.U. after    7 cycles
 Optimization completed.
    -- Stationary point found.
 Normal termination of Gaussian 09 at Thu Sep  8 15:21:56 2022.

 ----------------------------------------------------------------------
 #P Geom=AllCheck Guess=TCheck SCRF=Check GenChk RB3LYP/6-31G(d,p) Freq
 ----------------------------------------------------------------------

 Structure from the checkpoint file:  "B3LYP6-31Gdp.Frag_718.chk"
 --------
 Frag_718
 --------
 Charge =  0 Multiplicity = 1

                         Standard orientation:
 ---------------------------------------------------------------------
 Center     Atomic      Atomic             Coordinates (Angstroms)
 Number     Number       Type             X           Y           Z
 ---------------------------------------------------------------------
      1          6           0        2.022806    0.034167   -0.148566
      2          6           0        0.713697   -0.605470    0.312189
      3          7           0       -0.453393   -0.021828   -0.363275
      4          6           0       -0.757248    1.329994    0.098002
      5          8           0       -1.586522   -0.829415    0.059662
      6          1           0        2.871401   -0.514970    0.270834
      7          1           0        2.101201    0.008057   -1.239633
      8          1           0        2.114732    1.075009    0.176086
      9          1           0        0.611678   -0.538420    1.409475
     10          1           0        0.713039   -1.668452    0.054269
     11          1           0       -1.671621    1.671572   -0.391810
     12          1           0        0.058719    1.998025   -0.190794
     13          1           0       -0.898259    1.383852    1.189795
     14          1           0       -1.910496   -1.178699   -0.782347
 ---------------------------------------------------------------------

 SCF Done:  E(RB3LYP) =  -249.663352658     A.U. after    1 cycles

 The electronic state is 1-A.
 Alpha  occ. eigenvalues --  -19.15995 -14.36805 -10.20395 -10.19846 -10.17795
 Alpha  occ. eigenvalues --   -1.04410  -0.84972  -0.74130  -0.66498  -0.57994
 Alpha  occ. eigenvalues --   -0.50590  -0.46857  -0.45546  -0.41263  -0.39706
 Alpha  occ. eigenvalues --   -0.39221  -0.36525  -0.36236  -0.33980  -0.27694
 Alpha  occ. eigenvalues --   -0.22410
 Alpha virt. eigenvalues --    0.08333   0.09089   0.12270   0.13953   0.15875
 Alpha virt. eigenvalues --    0.16570   0.17437   0.17862   0.18963   0.19875
 Alpha virt. eigenvalues --    0.21462   0.25388   0.26700   0.50780   0.52618

 Mulliken charges:
               1
     1  C   -0.335238
     2  C    0.002913
     3  N   -0.244196
     4  C   -0.136725
     5  O   -0.443810
     6  H    0.107864
     7  H    0.118301
     8  H    0.108006
     9  H    0.083470
    10  H    0.102786
    11  H    0.111686
    12  H    0.107672
    13  H    0.094244
    14  H    0.323025
 Sum of Mulliken charges =   0.00000

 Dipole moment (field-independent basis, Debye):
    X=              0.5358    Y=              0.2439    Z=             -0.5762  Tot=              0.8237
 Quadrupole moment (field-independent basis, Debye-Ang):
   XX=            -31.1199   YY=            -30.2667   ZZ=            -32.6110
   XY=             -0.0175   XZ=              2.8368   YZ=              1.7577

  Exact polarizability:  51.155   0.848  45.618   1.434   0.866  39.760
 Approx polarizability:  63.639   3.807  60.626   1.496   1.044  57.145

                      1                      2                      3
                      A                      A                      A
 Frequencies --    101.4676               222.1337               269.2368
 Red. masses --      1.8753                 1.0766                 1.2353
 Frc consts  --      0.0114                 0.0313                 0.0528
 IR Inten    --      0.0799                 2.1866                 0.4480

                      4                      5                      6
                      A                      A                      A
 Frequencies --    285.8740               289.1209               412.0452
 Red. masses --      1.1541                 2.3264                 2.1804
 Frc consts  --      0.0556                 0.1146                 0.2181
 IR Inten    --     95.7476                 0.7197                 3.9724

                      7                      8                      9
                      A                      A                      A
 Frequencies --    445.7880               491.4359               798.0481
 Red. masses --      3.2059                 3.3445                 2.8836
 Frc consts  --      0.3754                 0.4759                 1.0820
 IR Inten    --      0.7543                11.9373                17.1329

                     10                     11                     12
                      A                      A                      A
 Frequencies --    820.2137               924.2574              1005.1110
 Red. masses --      1.1525                 2.9721                 2.2515
 Frc consts  --      0.4568                 1.4959                 1.3401
 IR Inten    --      0.6079                21.4575                 9.8331

                     13                     14                     15
                      A                      A                      A
 Frequencies --   1059.3307              1122.5288              1155.4166
 Red. masses --      2.5232                 1.3861                 1.6873
 Frc consts  --      1.6683                 1.0291                 1.3271
 IR Inten    --      7.5514                 1.3600                11.5096

                     16                     17                     18
                      A                      A                      A
 Frequencies --   1208.7848              1245.0104              1295.5782
 Red. masses --      1.7090                 2.6960                 1.1397
 Frc consts  --      1.4713                 2.4621                 1.1271
 IR Inten    --     17.4434                 7.0357                25.4365

                     19                     20                     21
                      A                      A                      A
 Frequencies --   1362.1937              1386.1157              1424.2483
 Red. masses --      1.2804                 1.3056                 1.2880
 Frc consts  --      1.3998                 1.4780                 1.5393
 IR Inten    --     33.0933                 5.9580                 6.6622

                     22                     23                     24
                      A                      A                      A
 Frequencies --   1452.8712              1494.5821              1506.0650
 Red. masses --      1.1907                 1.0475                 1.0522
 Frc consts  --      1.4808                 1.3786                 1.4061
 IR Inten    --      0.1012                 7.8302                 1.5338

                     25                     26                     27
                      A                      A                      A
 Frequencies --   1508.5437              1517.9209              1531.9487
 Red. masses --      1.0455                 1.0429                 1.0889
 Frc consts  --      1.4018                 1.4158                 1.5057
 IR Inten    --      4.9267                 3.8664                 2.6703

                     28                     29                     30
                      A                      A                      A
 Frequencies --   2969.8110              2988.4664              3051.5825
 Red. masses --      1.0723                 1.0527                 1.0355
 Frc consts  --      5.5719                 5.5393                 5.6816
 IR Inten    --     49.8800                62.7417                17.8918

                     31                     32                     33
                      A                      A                      A
 Frequencies --   3090.9962              3101.2691              3123.5823
 Red. masses --      1.0912                 1.0814                 1.1007
 Frc consts  --      6.1428                 6.1280                 6.3274
 IR Inten    --     12.2786                25.3737                46.4980

                     34                     35                     36
                      A                      A                      A
 Frequencies --   3128.9558              3142.3660              3797.6251
 Red. masses --      1.1032                 1.1037                 1.0682
 Frc consts  --      6.3638                 6.4212                 9.0763
 IR Inten    --     28.2490                24.3289                32.0508

 - Thermochemistry -
 -------------------
 Temperature   298.150 Kelvin.  Pressure   1.00000 Atm.
 Atom     1 has atomic number  6 and mass  12.00000

 Molecular mass:    75.06841 amu.
 Principal axes and moments of inertia in atomic units:
                           1         2         3
     Eigenvalues --   216.27635 499.54858 649.18537
           X            0.99959  -0.02828   0.00411
           Y            0.02821   0.99945   0.01721
           Z           -0.00460  -0.01709   0.99984
 This molecule is an asymmetric top.
 Rotational symmetry number  1.
 Rotational temperatures (Kelvin)      0.40048     0.17338     0.13342
 Rotational constants (GHZ):           8.34461     3.61274     2.78001
 Zero-point vibrational energy     327361.2 (Joules/Mol)
                                   78.24121 (Kcal/Mol)
 Warning -- explicit consideration of   8 degrees of freedom as
           vibrations may cause significant error
 Vibrational temperatures:    145.99   319.60   387.37   411.31   415.98
          (Kelvin)            592.84   641.39   707.07  1148.21  1180.10
                             1329.80  1446.13  1524.14  1615.07  1662.38
                             1739.17  1791.29  1864.05  1959.89  1994.31
                             2049.17  2090.35  2150.37  2166.89  2170.46
                             2183.95  2204.13  4272.89  4299.73  4390.54
                             4447.25  4462.03  4494.13  4501.86  4521.16
                             5463.93

 Zero-point correction=                           0.124685 (Hartree/Particle)
 Thermal correction to Energy=                    0.131308
 Thermal correction to Enthalpy=                  0.132252
 Thermal correction to Gibbs Free Energy=         0.095193
 Sum of electronic and zero-point Energies=           -249.538667
 Sum of electronic and thermal Energies=              -249.532045
 Sum of electronic and thermal Enthalpies=            -249.531101
 Sum of electronic and thermal Free Energies=         -249.568160

                     E (Thermal)             CV                S
                      KCal/Mol        Cal/Mol-Kelvin    Cal/Mol-Kelvin
 Total                   82.397             23.154             77.998
 Electronic               0.000              0.000              0.000
 Translational            0.889              2.981             38.863
 Rotational               0.889              2.981             25.753
 Vibrational             80.619             17.192             13.382
 Vibration     1          0.604              1.948              3.426
 Vibration     2          0.648              1.807              1.942
 Vibration     3          0.674              1.730              1.601
 Vibration     4          0.684              1.700              1.498
 Vibration     5          0.686              1.694              1.479
 Vibration     6          0.776              1.444              0.919
 Vibration     7          0.805              1.370              0.809
 Vibration     8          0.847              1.269              0.680

 Normal termination of Gaussian 09 at Thu Sep  8 15:22:06 2022.
