 Gaussian 09, Revision E.01,
 Gaussian 09:  ES64L-G09RevE.01 30-Nov-2015

 ----------------------------
 #P OPT Freq B3LYP/6-31G(d,p)
 ----------------------------

 --------
 Frag_642
 --------
 Symbolic Z-matrix:
 Charge =  0 Multiplicity = 1

 SCF Done:  E(RB3LYP) =  -287.819006995     A.U. after   14 cycles
 SCF Done:  E(RB3LYP) =  -287.819048915     A.U. after   11 cycles
 SCF Done:  E(RB3LYP) =  -287.818230146     A.U. after   13 cycles
 SCF Done:  E(RB3LYP) =  -287.819095952     A.U. after    8 cycles
 SCF Done:  E(RB3LYP) =  -287.819118878     A.U. after    8 cycles
 SCF Done:  E(RB3LYP) =  -287.819128457     A.U. after   11 cycles
 SCF Done:  E(RB3LYP) =  -287.819142722     A.U. after   11 cycles
 SCF Done:  E(RB3LYP) =  -287.819149358     A.U. after   10 cycles
 SCF Done:  E(RB3LYP) =  -287.819150070     A.U. after    8 cycles
 SCF Done:  E(RB3LYP) =  -287.819150195     A.U. after    7 cycles
 Optimization completed.
    -- Stationary point found.
 Normal termination of Gaussian 09 at Thu Sep  8 15:07:01 2022.

 ----------------------------------------------------------------------
 #P Geom=AllCheck Guess=TCheck SCRF=Check GenChk RB3LYP/6-31G(d,p) Freq
 ----------------------------------------------------------------------

 Structure from the checkpoint file:  "B3LYP6-31Gdp.Frag_642.chk"
 --------
 Frag_642
 --------
 Charge =  0 Multiplicity = 1

                         Standard orientation:
 ---------------------------------------------------------------------
 Center     Atomic      Atomic             Coordinates (Angstroms)
 Number     Number       Type             X           Y           Z
 ---------------------------------------------------------------------
      1          6           0       -0.890634   -0.993216   -1.014934
      2          6           0       -0.338631   -0.010410    0.052215
      3          6           0       -1.283151    1.197804    0.194506
      4          7           0       -0.118612   -0.624427    1.359202
      5          6           0        1.006103    0.470871   -0.483224
      6          8           0        2.080257    0.107913   -0.057340
      7          1           0       -1.883298   -1.342183   -0.709242
      8          1           0       -0.233700   -1.862739   -1.116013
      9          1           0       -0.995246   -0.523254   -1.999497
     10          1           0       -2.266986    0.860274    0.535810
     11          1           0       -0.892836    1.898272    0.937055
     12          1           0       -1.419060    1.721595   -0.758438
     13          1           0       -0.817928   -1.338231    1.541870
     14          1           0        0.797862   -1.067372    1.366962
     15          1           0        0.937294    1.171031   -1.345582
 ---------------------------------------------------------------------

 SCF Done:  E(RB3LYP) =  -287.819150195     A.U. after    1 cycles

 The electronic state is 1-A.
 Alpha  occ. eigenvalues --  -19.15757 -14.30993 -10.27864 -10.23354 -10.19292
 Alpha  occ. eigenvalues --  -10.18346  -1.05336  -0.89229  -0.76927  -0.69859
 Alpha  occ. eigenvalues --   -0.64455  -0.55400  -0.50624  -0.46705  -0.44748
 Alpha  occ. eigenvalues --   -0.43297  -0.42392  -0.40471  -0.38429  -0.37662
 Alpha  occ. eigenvalues --   -0.36512  -0.35070  -0.25820  -0.23666
 Alpha virt. eigenvalues --   -0.02686   0.07423   0.11916   0.12799   0.13380
 Alpha virt. eigenvalues --    0.15675   0.16052   0.17546   0.18817   0.19365
 Alpha virt. eigenvalues --    0.20240   0.23624   0.24573   0.28367   0.33197

 Mulliken charges:
               1
     1  C   -0.322252
     2  C    0.079165
     3  C   -0.294730
     4  N   -0.596082
     5  C    0.319141
     6  O   -0.403864
     7  H    0.110970
     8  H    0.115177
     9  H    0.106311
    10  H    0.107785
    11  H    0.125883
    12  H    0.095524
    13  H    0.233758
    14  H    0.253693
    15  H    0.069521
 Sum of Mulliken charges =  -0.00000

 Dipole moment (field-independent basis, Debye):
    X=             -2.3648    Y=             -0.6312    Z=             -1.3949  Tot=              2.8171
 Quadrupole moment (field-independent basis, Debye-Ang):
   XX=            -41.9003   YY=            -34.3202   ZZ=            -38.7057
   XY=              0.5717   XZ=             -0.4442   YZ=             -2.0985

  Exact polarizability:  56.704  -0.814  49.085   1.660  -4.247  49.739
 Approx polarizability:  84.144  -2.855  65.862   5.343  -7.770  69.885

                      1                      2                      3
                      A                      A                      A
 Frequencies --    105.3877               207.1104               227.6573
 Red. masses --      3.2539                 1.1003                 1.0302
 Frc consts  --      0.0213                 0.0278                 0.0315
 IR Inten    --      6.4752                38.5043                 4.7121

                      4                      5                      6
                      A                      A                      A
 Frequencies --    260.6072               298.9855               321.4593
 Red. masses --      1.1560                 2.6745                 2.0876
 Frc consts  --      0.0463                 0.1409                 0.1271
 IR Inten    --      0.5572                 2.2782                 2.1362

                      7                      8                      9
                      A                      A                      A
 Frequencies --    353.2684               399.4518               448.4065
 Red. masses --      2.8518                 2.5150                 2.3950
 Frc consts  --      0.2097                 0.2364                 0.2837
 IR Inten    --      3.4704                 1.9335                 8.0774

                     10                     11                     12
                      A                      A                      A
 Frequencies --    612.3738               787.9445               865.2143
 Red. masses --      3.8432                 3.6967                 1.7133
 Frc consts  --      0.8491                 1.3522                 0.7557
 IR Inten    --      6.2430                67.2591                63.3441

                     13                     14                     15
                      A                      A                      A
 Frequencies --    887.1126               923.8985               957.8747
 Red. masses --      1.7040                 1.8237                 1.3174
 Frc consts  --      0.7901                 0.9172                 0.7122
 IR Inten    --     71.5958                 5.6168                 0.3386

                     16                     17                     18
                      A                      A                      A
 Frequencies --    997.5633              1048.7687              1134.9691
 Red. masses --      1.6484                 1.5030                 1.3915
 Frc consts  --      0.9665                 0.9741                 1.0561
 IR Inten    --      0.9931                 1.7043                 2.4366

                     19                     20                     21
                      A                      A                      A
 Frequencies --   1177.8373              1273.7634              1350.0798
 Red. masses --      2.8857                 3.0319                 1.7982
 Frc consts  --      2.3587                 2.8983                 1.9311
 IR Inten    --     20.0387                11.6281                 1.9268

                     22                     23                     24
                      A                      A                      A
 Frequencies --   1403.1006              1416.8073              1432.2966
 Red. masses --      1.2137                 1.2627                 1.2263
 Frc consts  --      1.4078                 1.4934                 1.4822
 IR Inten    --      3.3740                 7.7515                 0.4865

                     25                     26                     27
                      A                      A                      A
 Frequencies --   1493.3535              1497.9907              1515.7683
 Red. masses --      1.0491                 1.0480                 1.0581
 Frc consts  --      1.3784                 1.3856                 1.4323
 IR Inten    --      0.5741                 1.4056                 4.1734

                     28                     29                     30
                      A                      A                      A
 Frequencies --   1520.6705              1642.7853              1827.6141
 Red. masses --      1.0738                 1.1113                 9.4069
 Frc consts  --      1.4630                 1.7671                18.5126
 IR Inten    --      9.4367                48.3419               149.7959

                     31                     32                     33
                      A                      A                      A
 Frequencies --   2905.0691              3034.1989              3044.3106
 Red. masses --      1.0847                 1.0346                 1.0362
 Frc consts  --      5.3937                 5.6118                 5.6581
 IR Inten    --     95.6230                17.9707                20.9416

                     34                     35                     36
                      A                      A                      A
 Frequencies --   3104.3445              3114.2467              3121.3339
 Red. masses --      1.1021                 1.1015                 1.1033
 Frc consts  --      6.2577                 6.2942                 6.3335
 IR Inten    --     10.6290                39.0872                22.3356

                     37                     38                     39
                      A                      A                      A
 Frequencies --   3137.3292              3493.6538              3589.4521
 Red. masses --      1.1026                 1.0490                 1.0933
 Frc consts  --      6.3945                 7.5437                 8.2992
 IR Inten    --     17.6672                 6.1029                 4.1422

 - Thermochemistry -
 -------------------
 Temperature   298.150 Kelvin.  Pressure   1.00000 Atm.
 Atom     1 has atomic number  6 and mass  12.00000

 Molecular mass:    87.06841 amu.
 Principal axes and moments of inertia in atomic units:
                           1         2         3
     Eigenvalues --   392.09839 647.05124 649.11249
           X            0.99969   0.01488  -0.01972
           Y            0.01688   0.17123   0.98509
           Z           -0.01803   0.98512  -0.17092
 This molecule is an asymmetric top.
 Rotational symmetry number  1.
 Rotational temperatures (Kelvin)      0.22090     0.13386     0.13343
 Rotational constants (GHZ):           4.60278     2.78918     2.78032
 Zero-point vibrational energy     340541.3 (Joules/Mol)
                                   81.39132 (Kcal/Mol)
 Warning -- explicit consideration of  10 degrees of freedom as
           vibrations may cause significant error
 Vibrational temperatures:    151.63   297.99   327.55   374.96   430.17
          (Kelvin)            462.51   508.27   574.72   645.16   881.07
                             1133.67  1244.85  1276.36  1329.28  1378.17
                             1435.27  1508.94  1632.97  1694.64  1832.66
                             1942.46  2018.75  2038.47  2060.75  2148.60
                             2155.27  2180.85  2187.90  2363.60  2629.53
                             4179.74  4365.53  4380.08  4466.45  4480.70
                             4490.90  4513.91  5026.58  5164.41

 Zero-point correction=                           0.129705 (Hartree/Particle)
 Thermal correction to Energy=                    0.137170
 Thermal correction to Enthalpy=                  0.138114
 Thermal correction to Gibbs Free Energy=         0.099084
 Sum of electronic and zero-point Energies=           -287.689445
 Sum of electronic and thermal Energies=              -287.681980
 Sum of electronic and thermal Enthalpies=            -287.681036
 Sum of electronic and thermal Free Energies=         -287.720066

                     E (Thermal)             CV                S
                      KCal/Mol        Cal/Mol-Kelvin    Cal/Mol-Kelvin
 Total                   86.075             26.755             82.145
 Electronic               0.000              0.000              0.000
 Translational            0.889              2.981             39.305
 Rotational               0.889              2.981             26.601
 Vibrational             84.298             20.794             16.238
 Vibration     1          0.605              1.945              3.352
 Vibration     2          0.641              1.830              2.069
 Vibration     3          0.651              1.799              1.897
 Vibration     4          0.669              1.745              1.658
 Vibration     5          0.692              1.676              1.423
 Vibration     6          0.707              1.632              1.303
 Vibration     7          0.729              1.569              1.152
 Vibration     8          0.766              1.471              0.965
 Vibration     9          0.807              1.364              0.801
 Vibration    10          0.972              1.006              0.429

 Optimization completed.
    -- Stationary point found.
 Normal termination of Gaussian 09 at Thu Sep  8 15:07:14 2022.
