 Gaussian 09, Revision E.01,
 Gaussian 09:  ES64L-G09RevE.01 30-Nov-2015

 -------------------------
 #P OPT Freq B3LYP/6-31G**
 -------------------------

 --------
 Frag_253
 --------
 Symbolic Z-matrix:
 Charge =  0 Multiplicity = 1

 SCF Done:  E(RB3LYP) =  -258.253821434     A.U. after   14 cycles
 SCF Done:  E(RB3LYP) =  -258.256145121     A.U. after   13 cycles
 SCF Done:  E(RB3LYP) =  -258.260240743     A.U. after   12 cycles
 SCF Done:  E(RB3LYP) =  -258.260259654     A.U. after    9 cycles
 SCF Done:  E(RB3LYP) =  -258.260267589     A.U. after    9 cycles
 SCF Done:  E(RB3LYP) =  -258.260268487     A.U. after    9 cycles
 Optimization completed.
    -- Stationary point found.
 Normal termination of Gaussian 09 at Sat Aug 21 01:34:43 2021.

 ----------------------------------------------------------------------
 #P Geom=AllCheck Guess=TCheck SCRF=Check GenChk RB3LYP/6-31G(d,p) Freq
 ----------------------------------------------------------------------

 Structure from the checkpoint file:  "/public/home/users/caep010/.cache/gau_scr/Gau-4058.chk"
 --------
 Frag_253
 --------
 Charge =  0 Multiplicity = 1

                         Standard orientation:
 ---------------------------------------------------------------------
 Center     Atomic      Atomic             Coordinates (Angstroms)
 Number     Number       Type             X           Y           Z
 ---------------------------------------------------------------------
      1          6           0        1.061475   -0.307157   -0.000017
      2          7           0        0.653992    0.987161    0.000016
      3          7           0       -0.656409    0.957608   -0.000010
      4          7           0       -0.980538   -0.331805   -0.000001
      5          7           0        0.050871   -1.170251    0.000010
      6          1           0        2.097075   -0.609642   -0.000009
      7          1           0       -1.941343   -0.646409   -0.000001
 ---------------------------------------------------------------------

 SCF Done:  E(RB3LYP) =  -258.260268487     A.U. after    1 cycles

 The electronic state is 1-A.
 Alpha  occ. eigenvalues --  -14.47201 -14.42128 -14.39619 -14.37570 -10.25798
 Alpha  occ. eigenvalues --   -1.15849  -0.96030  -0.89309  -0.69381  -0.66416
 Alpha  occ. eigenvalues --   -0.58097  -0.50645  -0.47929  -0.39118  -0.33425
 Alpha  occ. eigenvalues --   -0.32838  -0.31063  -0.30055
 Alpha virt. eigenvalues --   -0.03525   0.02354   0.05901   0.13375   0.19853
 Alpha virt. eigenvalues --    0.21768   0.24998   0.29750   0.42169   0.53753
 Alpha virt. eigenvalues --    0.56753   0.58056   0.62408   0.63942   0.64609

 Mulliken charges:
               1
     1  C    0.264499
     2  N   -0.284236
     3  N   -0.054965
     4  N   -0.106878
     5  N   -0.272703
     6  H    0.141117
     7  H    0.313166
 Sum of Mulliken charges =   0.00000

 Dipole moment (field-independent basis, Debye):
    X=             -1.2219    Y=             -1.9103    Z=             -0.0000  Tot=              2.2677
 Quadrupole moment (field-independent basis, Debye-Ang):
   XX=            -20.6441   YY=            -34.0575   ZZ=            -28.0705
   XY=              0.7097   XZ=             -0.0000   YZ=              0.0000

  Exact polarizability:  40.265   0.007  34.503  -0.000  -0.000  15.529
 Approx polarizability:  69.523   1.410  67.485  -0.000  -0.000  23.942

                      1                      2                      3
                      A                      A                      A
 Frequencies --    593.9010               717.7666               740.6973
 Red. masses --      1.8673                 3.1951                 2.8821
 Frc consts  --      0.3880                 0.9698                 0.9316
 IR Inten    --     48.0976                44.0546                22.9922

                      4                      5                      6
                      A                      A                      A
 Frequencies --    893.7540              1009.7028              1040.1511
 Red. masses --      1.3599                 6.7129                 7.6838
 Frc consts  --      0.6400                 4.0323                 4.8980
 IR Inten    --     12.7737                18.9562                22.6160

                      7                      8                      9
                      A                      A                      A
 Frequencies --   1103.3433              1157.9860              1182.7460
 Red. masses --      3.4163                 2.0287                 4.1260
 Frc consts  --      2.4504                 1.6028                 3.4007
 IR Inten    --     17.6420                22.1173                11.4144

                     10                     11                     12
                      A                      A                      A
 Frequencies --   1257.1030              1324.3835              1399.9660
 Red. masses --      9.8936                 4.5533                 1.9283
 Frc consts  --      9.2118                 4.7054                 2.2267
 IR Inten    --      3.4519                 9.8790                 7.5518

                     13                     14                     15
                      A                      A                      A
 Frequencies --   1534.4140              3302.7688              3655.5392
 Red. masses --      2.7158                 1.0996                 1.0834
 Frc consts  --      3.7673                 7.0668                 8.5300
 IR Inten    --      2.3877                 0.0479                97.7210

 - Thermochemistry -
 -------------------
 Temperature   298.150 Kelvin.  Pressure   1.00000 Atm.
 Atom     1 has atomic number  6 and mass  12.00000

 Molecular mass:    70.02795 amu.
 Principal axes and moments of inertia in atomic units:
                           1         2         3
     Eigenvalues --   168.81394 175.38031 344.19425
           X            0.01471   0.99989  -0.00000
           Y            0.99989  -0.01471   0.00000
           Z           -0.00000   0.00000   1.00000
 This molecule is an asymmetric top.
 Rotational symmetry number  1.
 Rotational temperatures (Kelvin)      0.51307     0.49386     0.25164
 Rotational constants (GHZ):          10.69071    10.29044     5.24338
 Zero-point vibrational energy     125094.8 (Joules/Mol)
                                   29.89838 (Kcal/Mol)
 Warning -- explicit consideration of   1 degrees of freedom as
           vibrations may cause significant error
 Vibrational temperatures:    854.49  1032.70  1065.70  1285.91  1452.74
          (Kelvin)           1496.54  1587.46  1666.08  1701.71  1808.69
                             1905.49  2014.24  2207.68  4751.94  5259.50

 Zero-point correction=                           0.047646 (Hartree/Particle)
 Thermal correction to Energy=                    0.051065
 Thermal correction to Enthalpy=                  0.052009
 Thermal correction to Gibbs Free Energy=         0.021575
 Sum of electronic and zero-point Energies=           -258.212622
 Sum of electronic and thermal Energies=              -258.209204
 Sum of electronic and thermal Enthalpies=            -258.208259
 Sum of electronic and thermal Free Energies=         -258.238693

                     E (Thermal)             CV                S
                      KCal/Mol        Cal/Mol-Kelvin    Cal/Mol-Kelvin
 Total                   32.044             10.973             64.053
 Electronic               0.000              0.000              0.000
 Translational            0.889              2.981             38.656
 Rotational               0.889              2.981             23.837
 Vibrational             30.266              5.011              1.560
 Vibration     1          0.952              1.045              0.460

 Optimization completed.
    -- Stationary point found.
 Normal termination of Gaussian 09 at Sat Aug 21 01:34:49 2021.
