 Gaussian 09, Revision E.01,
 Gaussian 09:  ES64L-G09RevE.01 30-Nov-2015

 ----------------------------
 #P OPT Freq B3LYP/6-31G(d,p)
 ----------------------------

 ---------
 Frag_1155
 ---------
 Symbolic Z-matrix:
 Charge =  0 Multiplicity = 1

 SCF Done:  E(RB3LYP) =  -210.350030590     A.U. after   12 cycles
 SCF Done:  E(RB3LYP) =  -210.350061403     A.U. after    8 cycles
 SCF Done:  E(RB3LYP) =  -210.350064991     A.U. after    8 cycles
 SCF Done:  E(RB3LYP) =  -210.350065552     A.U. after    7 cycles
 Optimization completed.
    -- Stationary point found.
 Normal termination of Gaussian 09 at Thu Sep  8 14:50:25 2022.

 ----------------------------------------------------------------------
 #P Geom=AllCheck Guess=TCheck SCRF=Check GenChk RB3LYP/6-31G(d,p) Freq
 ----------------------------------------------------------------------

 Structure from the checkpoint file:  "B3LYP6-31Gdp.Frag_1155.chk"
 ---------
 Frag_1155
 ---------
 Charge =  0 Multiplicity = 1

                         Standard orientation:
 ---------------------------------------------------------------------
 Center     Atomic      Atomic             Coordinates (Angstroms)
 Number     Number       Type             X           Y           Z
 ---------------------------------------------------------------------
      1          6           0       -1.498936   -0.526481    0.102081
      2          6           0       -0.590799    0.639837   -0.294888
      3          7           0        0.760182    0.623009    0.277523
      4          8           0        1.385301   -0.632526   -0.092509
      5          1           0       -1.043777   -1.477746   -0.183593
      6          1           0       -2.473917   -0.446737   -0.390417
      7          1           0       -1.671070   -0.540582    1.184986
      8          1           0       -1.029950    1.596177    0.018529
      9          1           0       -0.476741    0.681753   -1.383748
     10          1           0        0.668992    0.535910    1.291984
     11          1           0        2.161194   -0.329755   -0.583489
 ---------------------------------------------------------------------

 SCF Done:  E(RB3LYP) =  -210.350065552     A.U. after    1 cycles

 The electronic state is 1-A.
 Alpha  occ. eigenvalues --  -19.16159 -14.36484 -10.20675 -10.17145  -1.04236
 Alpha  occ. eigenvalues --   -0.83413  -0.71695  -0.60936  -0.50517  -0.45763
 Alpha  occ. eigenvalues --   -0.44336  -0.41646  -0.38562  -0.36323  -0.34121
 Alpha  occ. eigenvalues --   -0.27918  -0.23462
 Alpha virt. eigenvalues --    0.08080   0.09509   0.13579   0.13731   0.15671
 Alpha virt. eigenvalues --    0.16981   0.17896   0.20348   0.22288   0.26520
 Alpha virt. eigenvalues --    0.52922   0.54745   0.55485   0.58045   0.65148

 Mulliken charges:
               1
     1  C   -0.325564
     2  C   -0.038389
     3  N   -0.294947
     4  O   -0.459611
     5  H    0.134119
     6  H    0.100962
     7  H    0.095262
     8  H    0.099763
     9  H    0.107510
    10  H    0.253618
    11  H    0.327277
 Sum of Mulliken charges =  -0.00000

 Dipole moment (field-independent basis, Debye):
    X=             -0.2659    Y=              0.4739    Z=              0.0030  Tot=              0.5434
 Quadrupole moment (field-independent basis, Debye-Ang):
   XX=            -23.0413   YY=            -27.8853   ZZ=            -23.3071
   XY=             -0.6583   XZ=             -1.3406   YZ=              0.6712

  Exact polarizability:  39.119  -2.105  31.887  -1.292   0.865  32.082
 Approx polarizability:  48.156  -4.442  44.178  -2.118   2.160  44.105

                      1                      2                      3
                      A                      A                      A
 Frequencies --    164.1071               241.2510               296.8053
 Red. masses --      2.1437                 1.2381                 1.4958
 Frc consts  --      0.0340                 0.0425                 0.0776
 IR Inten    --      0.3958                 0.7625                55.0253

                      4                      5                      6
                      A                      A                      A
 Frequencies --    367.8905               507.9952               784.5485
 Red. masses --      1.4492                 2.5271                 1.2609
 Frc consts  --      0.1156                 0.3842                 0.4573
 IR Inten    --     51.9325                 7.0435                 0.3152

                      7                      8                      9
                      A                      A                      A
 Frequencies --    841.5850               917.6608               996.7608
 Red. masses --      3.2091                 2.3801                 1.3025
 Frc consts  --      1.3391                 1.1809                 0.7624
 IR Inten    --     37.0206                27.6843                54.4673

                     10                     11                     12
                      A                      A                      A
 Frequencies --   1065.2662              1127.0552              1208.9584
 Red. masses --      3.3841                 1.8689                 1.6778
 Frc consts  --      2.2626                 1.3987                 1.4449
 IR Inten    --     30.0231                 5.7749                17.9925

                     13                     14                     15
                      A                      A                      A
 Frequencies --   1311.0833              1359.0394              1394.4255
 Red. masses --      1.1435                 1.2433                 1.2622
 Frc consts  --      1.1581                 1.3530                 1.4460
 IR Inten    --     19.7243                 9.4400                26.3949

                     16                     17                     18
                      A                      A                      A
 Frequencies --   1418.7217              1480.0016              1498.6366
 Red. masses --      1.2765                 1.0577                 1.0888
 Frc consts  --      1.5138                 1.3650                 1.4408
 IR Inten    --     12.3257                 0.8181                 1.3295

                     19                     20                     21
                      A                      A                      A
 Frequencies --   1506.3672              1523.3446              3039.3355
 Red. masses --      1.0553                 1.0602                 1.0542
 Frc consts  --      1.4109                 1.4495                 5.7374
 IR Inten    --      6.7016                 5.7236                39.0454

                     22                     23                     24
                      A                      A                      A
 Frequencies --   3041.6699              3085.1434              3108.8805
 Red. masses --      1.0471                 1.1009                 1.1016
 Frc consts  --      5.7075                 6.1737                 6.2732
 IR Inten    --     16.3098                12.8451                49.7688

                     25                     26                     27
                      A                      A                      A
 Frequencies --   3142.3561              3444.0880              3802.9397
 Red. masses --      1.1008                 1.0751                 1.0684
 Frc consts  --      6.4043                 7.5139                 9.1035
 IR Inten    --     20.5670                 3.1283                29.7391

 - Thermochemistry -
 -------------------
 Temperature   298.150 Kelvin.  Pressure   1.00000 Atm.
 Atom     1 has atomic number  6 and mass  12.00000

 Molecular mass:    61.05276 amu.
 Principal axes and moments of inertia in atomic units:
                           1         2         3
     Eigenvalues --   121.84010 336.38632 401.55322
           X            0.99977   0.02005  -0.00751
           Y           -0.02014   0.99972  -0.01267
           Z            0.00725   0.01282   0.99989
 This molecule is an asymmetric top.
 Rotational symmetry number  1.
 Rotational temperatures (Kelvin)      0.71088     0.25748     0.21570
 Rotational constants (GHZ):          14.81237     5.36509     4.49440
 Zero-point vibrational energy     255258.7 (Joules/Mol)
                                   61.00829 (Kcal/Mol)
 Warning -- explicit consideration of   5 degrees of freedom as
           vibrations may cause significant error
 Vibrational temperatures:    236.11   347.11   427.04   529.31   730.89
          (Kelvin)           1128.79  1210.85  1320.31  1434.11  1532.68
                             1621.58  1739.42  1886.35  1955.35  2006.26
                             2041.22  2129.39  2156.20  2167.32  2191.75
                             4372.92  4376.28  4438.83  4472.98  4521.14
                             4955.27  5471.58

 Zero-point correction=                           0.097223 (Hartree/Particle)
 Thermal correction to Energy=                    0.102517
 Thermal correction to Enthalpy=                  0.103461
 Thermal correction to Gibbs Free Energy=         0.069757
 Sum of electronic and zero-point Energies=           -210.252843
 Sum of electronic and thermal Energies=              -210.247549
 Sum of electronic and thermal Enthalpies=            -210.246605
 Sum of electronic and thermal Free Energies=         -210.280309

                     E (Thermal)             CV                S
                      KCal/Mol        Cal/Mol-Kelvin    Cal/Mol-Kelvin
 Total                   64.330             17.732             70.935
 Electronic               0.000              0.000              0.000
 Translational            0.889              2.981             38.247
 Rotational               0.889              2.981             24.313
 Vibrational             62.553             11.770              8.375
 Vibration     1          0.623              1.887              2.502
 Vibration     2          0.658              1.777              1.794
 Vibration     3          0.690              1.680              1.435
 Vibration     4          0.740              1.538              1.089
 Vibration     5          0.863              1.232              0.638

 Optimization completed.
    -- Stationary point found.
 Normal termination of Gaussian 09 at Thu Sep  8 14:50:32 2022.
