 Gaussian 09, Revision E.01,
 Gaussian 09:  ES64L-G09RevE.01 30-Nov-2015

 ----------------------------
 #P OPT Freq B3LYP/6-31G(d,p)
 ----------------------------

 ---------
 Frag_1065
 ---------
 Symbolic Z-matrix:
 Charge =  0 Multiplicity = 1

 SCF Done:  E(RB3LYP) =  -285.192558729     A.U. after   13 cycles
 SCF Done:  E(RB3LYP) =  -285.192592127     A.U. after    8 cycles
 SCF Done:  E(RB3LYP) =  -285.192596643     A.U. after    7 cycles
 SCF Done:  E(RB3LYP) =  -285.192597496     A.U. after    7 cycles
 Optimization completed.
    -- Stationary point found.
 Normal termination of Gaussian 09 at Thu Sep  8 14:48:10 2022.

 ----------------------------------------------------------------------
 #P Geom=AllCheck Guess=TCheck SCRF=Check GenChk RB3LYP/6-31G(d,p) Freq
 ----------------------------------------------------------------------

 Structure from the checkpoint file:  "B3LYP6-31Gdp.Frag_1065.chk"
 ---------
 Frag_1065
 ---------
 Charge =  0 Multiplicity = 1

                         Standard orientation:
 ---------------------------------------------------------------------
 Center     Atomic      Atomic             Coordinates (Angstroms)
 Number     Number       Type             X           Y           Z
 ---------------------------------------------------------------------
      1          6           0       -1.711120   -0.769134   -0.468141
      2          7           0       -0.673467    0.250571   -0.371660
      3          6           0       -0.947208    1.184195    0.720312
      4          6           0        0.665280   -0.327025   -0.333865
      5          7           0        0.966564   -1.043052    0.907204
      6          7           0        1.619304    0.762868   -0.555265
      7          1           0       -1.767744   -1.415410    0.423072
      8          1           0       -2.681806   -0.281708   -0.606290
      9          1           0       -1.528219   -1.405874   -1.340624
     10          1           0       -0.133551    1.908025    0.791817
     11          1           0       -1.065719    0.685124    1.698060
     12          1           0       -1.875831    1.723302    0.505227
     13          1           0        0.680845   -1.088792   -1.131009
     14          1           0        1.285211   -0.373221    1.604887
     15          1           0        1.724024   -1.705785    0.763517
     16          1           0        2.556968    0.384755   -0.663981
     17          1           0        1.377304    1.248664   -1.416468
 ---------------------------------------------------------------------

 SCF Done:  E(RB3LYP) =  -285.192597496     A.U. after    1 cycles

 The electronic state is 1-A.
 Alpha  occ. eigenvalues --  -14.31203 -14.31026 -14.30817 -10.25597 -10.18828
 Alpha  occ. eigenvalues --  -10.18513  -0.94243  -0.86277  -0.83128  -0.69025
 Alpha  occ. eigenvalues --   -0.65985  -0.56414  -0.50675  -0.48933  -0.46369
 Alpha  occ. eigenvalues --   -0.43843  -0.42597  -0.40892  -0.37950  -0.37099
 Alpha  occ. eigenvalues --   -0.35170  -0.34911  -0.24736  -0.23940  -0.20608
 Alpha virt. eigenvalues --    0.07181   0.11436   0.12344   0.13579   0.16095
 Alpha virt. eigenvalues --    0.16177   0.17394   0.17908   0.18751   0.19497
 Alpha virt. eigenvalues --    0.20064   0.22704   0.25882   0.26669   0.28962

 Mulliken charges:
               1
     1  C   -0.154824
     2  N   -0.398042
     3  C   -0.172212
     4  C    0.281804
     5  N   -0.581468
     6  N   -0.597459
     7  H    0.103107
     8  H    0.098121
     9  H    0.094071
    10  H    0.124273
    11  H    0.087084
    12  H    0.099708
    13  H    0.071799
    14  H    0.241171
    15  H    0.232611
    16  H    0.226813
    17  H    0.243444
 Sum of Mulliken charges =  -0.00000

 Dipole moment (field-independent basis, Debye):
    X=              1.5272    Y=             -0.5123    Z=             -0.7031  Tot=              1.7576
 Quadrupole moment (field-independent basis, Debye-Ang):
   XX=            -33.4822   YY=            -39.9474   ZZ=            -37.9972
   XY=             -2.5435   XZ=             -1.0734   YZ=              1.1340

  Exact polarizability:  60.664  -1.261  53.955  -0.230   0.580  50.634
 Approx polarizability:  75.957  -1.981  73.673   0.160  -0.240  71.223

                      1                      2                      3
                      A                      A                      A
 Frequencies --    115.8057               216.4218               242.0301
 Red. masses --      2.9641                 1.4409                 1.0496
 Frc consts  --      0.0234                 0.0398                 0.0362
 IR Inten    --      2.4169                 7.6702                 8.8326

                      4                      5                      6
                      A                      A                      A
 Frequencies --    262.7532               280.6691               309.4516
 Red. masses --      1.3090                 1.3214                 1.7572
 Frc consts  --      0.0532                 0.0613                 0.0991
 IR Inten    --     15.5201                 9.8956                 7.9293

                      7                      8                      9
                      A                      A                      A
 Frequencies --    328.3204               392.6932               460.3971
 Red. masses --      1.4950                 2.1655                 2.2784
 Frc consts  --      0.0950                 0.1968                 0.2845
 IR Inten    --     36.3446                 8.9216                24.1886

                     10                     11                     12
                      A                      A                      A
 Frequencies --    538.0020               617.7494               787.0997
 Red. masses --      3.3411                 2.8987                 2.2401
 Frc consts  --      0.5698                 0.6518                 0.8177
 IR Inten    --     11.4136                21.8772                44.4710

                     13                     14                     15
                      A                      A                      A
 Frequencies --    842.7482               892.9001               974.3336
 Red. masses --      1.8385                 1.4340                 2.1468
 Frc consts  --      0.7693                 0.6736                 1.2008
 IR Inten    --    129.8203                99.5109                15.3354

                     16                     17                     18
                      A                      A                      A
 Frequencies --   1025.2294              1069.9094              1094.8607
 Red. masses --      1.9430                 1.5478                 2.9254
 Frc consts  --      1.2033                 1.0439                 2.0661
 IR Inten    --     55.8467                23.2633                82.8092

                     19                     20                     21
                      A                      A                      A
 Frequencies --   1122.7159              1168.5521              1198.3660
 Red. masses --      1.2788                 1.5481                 1.5329
 Frc consts  --      0.9497                 1.2455                 1.2970
 IR Inten    --      4.1326                15.0673                11.3009

                     22                     23                     24
                      A                      A                      A
 Frequencies --   1263.5042              1278.1728              1327.3725
 Red. masses --      1.5931                 2.0517                 2.3347
 Frc consts  --      1.4985                 1.9749                 2.4236
 IR Inten    --     15.2090                12.7117                42.3939

                     25                     26                     27
                      A                      A                      A
 Frequencies --   1391.8600              1441.0629              1448.1286
 Red. masses --      1.3331                 1.1603                 1.2374
 Frc consts  --      1.5216                 1.4196                 1.5289
 IR Inten    --     40.2808                 3.2463                18.1476

                     28                     29                     30
                      A                      A                      A
 Frequencies --   1485.0085              1493.6307              1513.7103
 Red. masses --      1.2198                 1.0461                 1.0666
 Frc consts  --      1.5848                 1.3750                 1.4399
 IR Inten    --     19.5698                10.6550                 4.3177

                     31                     32                     33
                      A                      A                      A
 Frequencies --   1522.1232              1537.4002              1636.9132
 Red. masses --      1.0520                 1.0556                 1.1059
 Frc consts  --      1.4360                 1.4700                 1.7459
 IR Inten    --      2.2157                12.5442                39.4066

                     34                     35                     36
                      A                      A                      A
 Frequencies --   1662.0164              2964.7136              2971.8141
 Red. masses --      1.1008                 1.0573                 1.0813
 Frc consts  --      1.7916                 5.4756                 5.6264
 IR Inten    --     28.4510                75.0171                51.8953

                     37                     38                     39
                      A                      A                      A
 Frequencies --   2987.1074              3069.6286              3076.8942
 Red. masses --      1.0527                 1.0842                 1.0796
 Frc consts  --      5.5343                 6.0191                 6.0219
 IR Inten    --     79.4428                39.5998                41.5481

                     40                     41                     42
                      A                      A                      A
 Frequencies --   3107.3263              3144.8859              3487.1613
 Red. masses --      1.1029                 1.0987                 1.0493
 Frc consts  --      6.2743                 6.4024                 7.5181
 IR Inten    --     39.2866                13.1267                 1.0016

                     43                     44                     45
                      A                      A                      A
 Frequencies --   3489.5295              3579.6315              3583.7538
 Red. masses --      1.0488                 1.0930                 1.0933
 Frc consts  --      7.5242                 8.2515                 8.2729
 IR Inten    --      0.4961                 1.1203                 0.0372

 - Thermochemistry -
 -------------------
 Temperature   298.150 Kelvin.  Pressure   1.00000 Atm.
 Atom     1 has atomic number  6 and mass  12.00000

 Molecular mass:    89.09530 amu.
 Principal axes and moments of inertia in atomic units:
                           1         2         3
     Eigenvalues --   384.73838 640.25468 733.24826
           X            0.99994  -0.00245  -0.01023
           Y            0.00334   0.99608   0.08845
           Z            0.00998  -0.08848   0.99603
 This molecule is an asymmetric top.
 Rotational symmetry number  1.
 Rotational temperatures (Kelvin)      0.22512     0.13528     0.11812
 Rotational constants (GHZ):           4.69083     2.81879     2.46130
 Zero-point vibrational energy     409148.9 (Joules/Mol)
                                   97.78894 (Kcal/Mol)
 Warning -- explicit consideration of  11 degrees of freedom as
           vibrations may cause significant error
 Vibrational temperatures:    166.62   311.38   348.23   378.04   403.82
          (Kelvin)            445.23   472.38   565.00   662.41   774.06
                              888.80  1132.46  1212.53  1284.68  1401.85
                             1475.07  1539.36  1575.26  1615.34  1681.28
                             1724.18  1817.90  1839.00  1909.79  2002.57
                             2073.37  2083.53  2136.59  2149.00  2177.89
                             2189.99  2211.97  2355.15  2391.27  4265.56
                             4275.77  4297.78  4416.51  4426.96  4470.74
                             4524.78  5017.24  5020.65  5150.28  5156.22

 Zero-point correction=                           0.155837 (Hartree/Particle)
 Thermal correction to Energy=                    0.163510
 Thermal correction to Enthalpy=                  0.164454
 Thermal correction to Gibbs Free Energy=         0.125126
 Sum of electronic and zero-point Energies=           -285.036761
 Sum of electronic and thermal Energies=              -285.029088
 Sum of electronic and thermal Enthalpies=            -285.028143
 Sum of electronic and thermal Free Energies=         -285.067471

                     E (Thermal)             CV                S
                      KCal/Mol        Cal/Mol-Kelvin    Cal/Mol-Kelvin
 Total                  102.604             28.208             82.772
 Electronic               0.000              0.000              0.000
 Translational            0.889              2.981             39.374
 Rotational               0.889              2.981             26.693
 Vibrational            100.827             22.246             16.705
 Vibration     1          0.608              1.936              3.169
 Vibration     2          0.645              1.816              1.989
 Vibration     3          0.658              1.776              1.788
 Vibration     4          0.670              1.741              1.643
 Vibration     5          0.680              1.709              1.530
 Vibration     6          0.699              1.656              1.365
 Vibration     7          0.712              1.619              1.268
 Vibration     8          0.760              1.486              0.990
 Vibration     9          0.818              1.338              0.765
 Vibration    10          0.893              1.166              0.570
 Vibration    11          0.978              0.994              0.420

 Optimization completed.
    -- Stationary point found.
 Normal termination of Gaussian 09 at Thu Sep  8 14:48:25 2022.
