 Gaussian 09, Revision E.01,
 Gaussian 09:  ES64L-G09RevE.01 30-Nov-2015

 ----------------------------
 #P OPT Freq B3LYP/6-31G(d,p)
 ----------------------------

 ---------
 Frag_1105
 ---------
 Symbolic Z-matrix:
 Charge =  0 Multiplicity = 1

 SCF Done:  E(RB3LYP) =  -132.759077680     A.U. after   13 cycles
 SCF Done:  E(RB3LYP) =  -132.759146247     A.U. after    8 cycles
 Optimization completed.
    -- Stationary point found.
 Normal termination of Gaussian 09 at Thu Sep  8 14:46:37 2022.

 ----------------------------------------------------------------------
 #P Geom=AllCheck Guess=TCheck SCRF=Check GenChk RB3LYP/6-31G(d,p) Freq
 ----------------------------------------------------------------------

 Structure from the checkpoint file:  "B3LYP6-31Gdp.Frag_1105.chk"
 ---------
 Frag_1105
 ---------
 Charge =  0 Multiplicity = 1

                         Standard orientation:
 ---------------------------------------------------------------------
 Center     Atomic      Atomic             Coordinates (Angstroms)
 Number     Number       Type             X           Y           Z
 ---------------------------------------------------------------------
      1          6           0        1.180263    0.000014    0.000010
      2          6           0       -0.279931   -0.000060   -0.000048
      3          7           0       -1.440149    0.000027    0.000021
      4          1           0        1.559738   -0.888511   -0.512152
      5          1           0        1.559672    0.887862   -0.513373
      6          1           0        1.559641    0.000733    1.025606
 ---------------------------------------------------------------------

 SCF Done:  E(RB3LYP) =  -132.759146247     A.U. after    1 cycles

 The electronic state is 1-A.
 Alpha  occ. eigenvalues --  -14.33296 -10.24076 -10.23150  -0.90246  -0.77698
 Alpha  occ. eigenvalues --   -0.51667  -0.46414  -0.46414  -0.35810  -0.32613
 Alpha  occ. eigenvalues --   -0.32613
 Alpha virt. eigenvalues --    0.03684   0.03685   0.08401   0.16038   0.16039
 Alpha virt. eigenvalues --    0.18439   0.28373   0.52507   0.52507   0.57745
 Alpha virt. eigenvalues --    0.61863   0.61863   0.68065   0.78197   0.79622

 Mulliken charges:
               1
     1  C   -0.376872
     2  C    0.329395
     3  N   -0.457044
     4  H    0.168168
     5  H    0.168176
     6  H    0.168177
 Sum of Mulliken charges =  -0.00000

 Dipole moment (field-independent basis, Debye):
    X=              3.8279    Y=             -0.0000    Z=             -0.0000  Tot=              3.8279
 Quadrupole moment (field-independent basis, Debye-Ang):
   XX=            -20.3240   YY=            -17.2404   ZZ=            -17.2405
   XY=              0.0001   XZ=              0.0001   YZ=             -0.0000

  Exact polarizability:  34.370  -0.001  17.618  -0.001   0.000  17.618
 Approx polarizability:  57.505  -0.002  23.336  -0.002   0.000  23.336

                      1                      2                      3
                      A                      A                      A
 Frequencies --    386.1723               386.2192               934.9907
 Red. masses --      3.7949                 3.7949                 4.5135
 Frc consts  --      0.3334                 0.3335                 2.3248
 IR Inten    --      0.5266                 0.5271                 1.7261

                      4                      5                      6
                      A                      A                      A
 Frequencies --   1063.3367              1063.3627              1421.8562
 Red. masses --      1.4450                 1.4450                 1.2374
 Frc consts  --      0.9626                 0.9627                 1.4739
 IR Inten    --      3.1429                 3.1455                 2.2487

                      7                      8                      9
                      A                      A                      A
 Frequencies --   1485.0516              1485.1091              2380.2340
 Red. masses --      1.0390                 1.0390                12.5601
 Frc consts  --      1.3501                 1.3502                41.9259
 IR Inten    --      9.8606                 9.8543                 7.7109

                     10                     11                     12
                      A                      A                      A
 Frequencies --   3061.9078              3138.7011              3138.7255
 Red. masses --      1.0341                 1.1028                 1.1028
 Frc consts  --      5.7123                 6.4011                 6.4011
 IR Inten    --      3.0032                 1.6900                 1.6888

 - Thermochemistry -
 -------------------
 Temperature   298.150 Kelvin.  Pressure   1.00000 Atm.
 Atom     1 has atomic number  6 and mass  12.00000

 Molecular mass:    41.02655 amu.
 Principal axes and moments of inertia in atomic units:
                           1         2         3
     Eigenvalues --    11.35657 196.83006 196.83016
           X            1.00000   0.00000   0.00000
           Y           -0.00000   1.00000  -0.00071
           Z           -0.00000   0.00071   1.00000
 This molecule is an asymmetric top.
 Rotational symmetry number  1.
 Rotational temperatures (Kelvin)      7.62676     0.44004     0.44004
 Rotational constants (GHZ):         158.91608     9.16903     9.16903
 Zero-point vibrational energy     119301.6 (Joules/Mol)
                                   28.51376 (Kcal/Mol)
 Warning -- explicit consideration of   2 degrees of freedom as
           vibrations may cause significant error
 Vibrational temperatures:    555.62   555.68  1345.24  1529.90  1529.94
          (Kelvin)           2045.73  2136.66  2136.74  3424.62  4405.40
                             4515.89  4515.92

 Zero-point correction=                           0.045440 (Hartree/Particle)
 Thermal correction to Energy=                    0.049040
 Thermal correction to Enthalpy=                  0.049985
 Thermal correction to Gibbs Free Energy=         0.021422
 Sum of electronic and zero-point Energies=           -132.713707
 Sum of electronic and thermal Energies=              -132.710106
 Sum of electronic and thermal Enthalpies=            -132.709162
 Sum of electronic and thermal Free Energies=         -132.737724

                     E (Thermal)             CV                S
                      KCal/Mol        Cal/Mol-Kelvin    Cal/Mol-Kelvin
 Total                   30.773             10.300             60.114
 Electronic               0.000              0.000              0.000
 Translational            0.889              2.981             37.062
 Rotational               0.889              2.981             20.714
 Vibrational             28.996              4.338              2.338
 Vibration     1          0.755              1.500              1.015
 Vibration     2          0.755              1.500              1.015

 Optimization completed.
    -- Stationary point found.
 Normal termination of Gaussian 09 at Thu Sep  8 14:46:43 2022.
