 Gaussian 09, Revision E.01,
 Gaussian 09:  ES64L-G09RevE.01 30-Nov-2015

 ----------------------------
 #P OPT Freq B3LYP/6-31G(d,p)
 ----------------------------

 --------
 Frag_499
 --------
 Symbolic Z-matrix:
 Charge =  0 Multiplicity = 1

 SCF Done:  E(RB3LYP) =  -387.538537703     A.U. after   12 cycles
 SCF Done:  E(RB3LYP) =  -387.538574409     A.U. after   10 cycles
 SCF Done:  E(RB3LYP) =  -387.538504663     A.U. after   10 cycles
 SCF Done:  E(RB3LYP) =  -387.538597044     A.U. after   10 cycles
 SCF Done:  E(RB3LYP) =  -387.538597771     A.U. after    7 cycles
 SCF Done:  E(RB3LYP) =  -387.538597950     A.U. after    7 cycles
 SCF Done:  E(RB3LYP) =  -387.538598005     A.U. after    6 cycles
 Optimization completed.
    -- Stationary point found.
 Normal termination of Gaussian 09 at Thu Sep  8 15:02:01 2022.

 ----------------------------------------------------------------------
 #P Geom=AllCheck Guess=TCheck SCRF=Check GenChk RB3LYP/6-31G(d,p) Freq
 ----------------------------------------------------------------------

 Structure from the checkpoint file:  "B3LYP6-31Gdp.Frag_499.chk"
 --------
 Frag_499
 --------
 Charge =  0 Multiplicity = 1

                         Standard orientation:
 ---------------------------------------------------------------------
 Center     Atomic      Atomic             Coordinates (Angstroms)
 Number     Number       Type             X           Y           Z
 ---------------------------------------------------------------------
      1          6           0        1.414313    1.363961   -0.054211
      2          6           0        0.780040   -0.028062    0.027456
      3          6           0        1.337158   -0.801332    1.227335
      4          8           0        1.195346   -0.680873   -1.199488
      5          6           0       -0.792820    0.048446   -0.010169
      6          6           0       -1.380679    0.973381    1.059401
      7          6           0       -1.440517   -1.346254    0.098971
      8          8           0       -1.157747    0.619491   -1.269940
      9          1           0        2.483046    1.259357   -0.258322
     10          1           0        1.293735    1.911726    0.883761
     11          1           0        0.956374    1.943027   -0.858543
     12          1           0        0.996236   -1.842044    1.236519
     13          1           0        2.430415   -0.805276    1.186538
     14          1           0        1.035012   -0.345050    2.174455
     15          1           0        1.047853   -1.630572   -1.095482
     16          1           0       -1.140552    0.629490    2.069829
     17          1           0       -1.017672    1.995503    0.936322
     18          1           0       -2.469747    0.994216    0.958578
     19          1           0       -2.510250   -1.249325   -0.102554
     20          1           0       -1.034251   -2.039585   -0.646350
     21          1           0       -1.317463   -1.794902    1.089572
     22          1           0       -0.558486    0.203645   -1.911601
 ---------------------------------------------------------------------

 SCF Done:  E(RB3LYP) =  -387.538598005     A.U. after    1 cycles

 The electronic state is 1-A.
 Alpha  occ. eigenvalues --  -19.15317 -19.12532 -10.24412 -10.23643 -10.18357
 Alpha  occ. eigenvalues --  -10.17512 -10.17101 -10.16907  -1.03170  -0.99577
 Alpha  occ. eigenvalues --   -0.79394  -0.74579  -0.69884  -0.68142  -0.61130
 Alpha  occ. eigenvalues --   -0.55224  -0.51610  -0.47140  -0.45447  -0.44746
 Alpha  occ. eigenvalues --   -0.43109  -0.40092  -0.39614  -0.38489  -0.37911
 Alpha  occ. eigenvalues --   -0.37296  -0.36307  -0.36227  -0.34683  -0.32361
 Alpha  occ. eigenvalues --   -0.31324  -0.28187  -0.25098
 Alpha virt. eigenvalues --    0.05538   0.10052   0.11802   0.12754   0.13637
 Alpha virt. eigenvalues --    0.14421   0.14805   0.15499   0.16395   0.17288
 Alpha virt. eigenvalues --    0.19376   0.20543   0.21059   0.21868   0.23281

 Mulliken charges:
               1
     1  C   -0.306399
     2  C    0.241629
     3  C   -0.330631
     4  O   -0.565702
     5  C    0.280238
     6  C   -0.310961
     7  C   -0.323651
     8  O   -0.564685
     9  H    0.108136
    10  H    0.100797
    11  H    0.123024
    12  H    0.094954
    13  H    0.115230
    14  H    0.110761
    15  H    0.305389
    16  H    0.093869
    17  H    0.115143
    18  H    0.112151
    19  H    0.119237
    20  H    0.075059
    21  H    0.098114
    22  H    0.308300
 Sum of Mulliken charges =   0.00000

 Dipole moment (field-independent basis, Debye):
    X=              0.7164    Y=             -1.6821    Z=              1.5184  Tot=              2.3766
 Quadrupole moment (field-independent basis, Debye-Ang):
   XX=            -53.8380   YY=            -48.8971   ZZ=            -51.5841
   XY=              0.8276   XZ=             -0.3841   YZ=              2.2744

  Exact polarizability:  73.849   0.769  71.331  -0.500   0.562  68.352
 Approx polarizability:  97.735  -1.622  98.406  -1.307   0.466 100.656

                      1                      2                      3
                      A                      A                      A
 Frequencies --     97.4659               187.0241               232.6933
 Red. masses --      2.7986                 1.0469                 1.2054
 Frc consts  --      0.0157                 0.0216                 0.0385
 IR Inten    --      1.4283                 0.1366                 1.1647

                      4                      5                      6
                      A                      A                      A
 Frequencies --    247.9308               264.6211               277.6845
 Red. masses --      1.4322                 1.1591                 2.4381
 Frc consts  --      0.0519                 0.0478                 0.1108
 IR Inten    --      0.3191                 0.8519                 0.6143

                      7                      8                      9
                      A                      A                      A
 Frequencies --    291.8896               319.3939               357.7259
 Red. masses --      1.5606                 1.2105                 2.5768
 Frc consts  --      0.0783                 0.0728                 0.1943
 IR Inten    --      1.6649                39.4300                16.7791

                     10                     11                     12
                      A                      A                      A
 Frequencies --    361.6477               370.8637               388.2201
 Red. masses --      3.7837                 1.7636                 2.4305
 Frc consts  --      0.2916                 0.1429                 0.2158
 IR Inten    --      9.2493                14.8437                 0.8416

                     13                     14                     15
                      A                      A                      A
 Frequencies --    419.3229               490.3430               515.8216
 Red. masses --      2.9254                 2.5099                 3.0976
 Frc consts  --      0.3031                 0.3556                 0.4856
 IR Inten    --      7.7450                 8.0042                 3.9246

                     16                     17                     18
                      A                      A                      A
 Frequencies --    539.2037               593.4728               663.9479
 Red. masses --      2.3143                 1.2540                 3.2194
 Frc consts  --      0.3964                 0.2602                 0.8362
 IR Inten    --     15.0290               149.1065                 4.3275

                     19                     20                     21
                      A                      A                      A
 Frequencies --    839.9010               887.8779               930.0800
 Red. masses --      3.0273                 2.1001                 1.5049
 Frc consts  --      1.2582                 0.9754                 0.7670
 IR Inten    --      5.5422                 9.9567                 0.6517

                     22                     23                     24
                      A                      A                      A
 Frequencies --    942.0660               961.8829               969.8955
 Red. masses --      1.5174                 2.0602                 2.1600
 Frc consts  --      0.7935                 1.1231                 1.1972
 IR Inten    --      2.0233                22.4198                35.8447

                     25                     26                     27
                      A                      A                      A
 Frequencies --   1011.5531              1022.5977              1105.7898
 Red. masses --      1.2955                 1.2966                 1.7079
 Frc consts  --      0.7810                 0.7989                 1.2304
 IR Inten    --      1.3389                 3.5756                60.2448

                     28                     29                     30
                      A                      A                      A
 Frequencies --   1144.5276              1194.8019              1213.7512
 Red. masses --      1.6690                 2.2502                 2.5084
 Frc consts  --      1.2881                 1.8926                 2.1772
 IR Inten    --     19.8731                56.4191                52.1791

                     31                     32                     33
                      A                      A                      A
 Frequencies --   1226.9987              1268.7671              1353.0139
 Red. masses --      2.5779                 2.8508                 1.6510
 Frc consts  --      2.2866                 2.7038                 1.7808
 IR Inten    --     38.5446                 5.3126                34.9365

                     34                     35                     36
                      A                      A                      A
 Frequencies --   1391.9080              1408.7890              1417.1347
 Red. masses --      1.3483                 1.3203                 1.3976
 Frc consts  --      1.5391                 1.5439                 1.6537
 IR Inten    --     55.1948                21.9202                16.3779

                     37                     38                     39
                      A                      A                      A
 Frequencies --   1428.6748              1435.2742              1488.4128
 Red. masses --      1.3579                 1.2501                 1.0485
 Frc consts  --      1.6330                 1.5173                 1.3686
 IR Inten    --     37.3192                 4.3677                 0.1142

                     40                     41                     42
                      A                      A                      A
 Frequencies --   1496.9385              1500.5769              1505.8292
 Red. masses --      1.0555                 1.0481                 1.0514
 Frc consts  --      1.3936                 1.3905                 1.4047
 IR Inten    --      2.7260                 0.3491                 1.1679

                     43                     44                     45
                      A                      A                      A
 Frequencies --   1515.6489              1516.9990              1526.8022
 Red. masses --      1.0694                 1.0562                 1.0529
 Frc consts  --      1.4474                 1.4320                 1.4461
 IR Inten    --      5.1878                 6.8306                 6.5640

                     46                     47                     48
                      A                      A                      A
 Frequencies --   1529.2409              3041.1712              3048.7783
 Red. masses --      1.0588                 1.0378                 1.0362
 Frc consts  --      1.4589                 5.6554                 5.6748
 IR Inten    --      1.4380                17.4571                20.7644

                     49                     50                     51
                      A                      A                      A
 Frequencies --   3058.3786              3066.7195              3108.9261
 Red. masses --      1.0365                 1.0359                 1.0998
 Frc consts  --      5.7122                 5.7400                 6.2630
 IR Inten    --     11.3601                11.3413                34.1837

                     52                     53                     54
                      A                      A                      A
 Frequencies --   3117.3313              3124.3904              3129.4503
 Red. masses --      1.1007                 1.1026                 1.1022
 Frc consts  --      6.3024                 6.3416                 6.3598
 IR Inten    --     23.7014                21.6086                 6.0367

                     55                     56                     57
                      A                      A                      A
 Frequencies --   3135.5474              3139.4420              3147.8394
 Red. masses --      1.1014                 1.1028                 1.1015
 Frc consts  --      6.3798                 6.4037                 6.4308
 IR Inten    --     30.4436                37.9032                19.4194

                     58                     59                     60
                      A                      A                      A
 Frequencies --   3155.2368              3733.6900              3806.0437
 Red. masses --      1.1025                 1.0647                 1.0661
 Frc consts  --      6.4670                 8.7453                 9.0993
 IR Inten    --     11.9373                42.8846                 9.2975

 - Thermochemistry -
 -------------------
 Temperature   298.150 Kelvin.  Pressure   1.00000 Atm.
 Atom     1 has atomic number  6 and mass  12.00000

 Molecular mass:   118.09938 amu.
 Principal axes and moments of inertia in atomic units:
                           1         2         3
     Eigenvalues --   747.044881037.891451055.53778
           X            0.99888   0.04728   0.00369
           Y           -0.04734   0.98940   0.13727
           Z            0.00284  -0.13729   0.99053
 This molecule is an asymmetric top.
 Rotational symmetry number  1.
 Warning -- assumption of classical behavior for rotation
           may cause significant error
 Rotational temperatures (Kelvin)      0.11594     0.08345     0.08206
 Rotational constants (GHZ):           2.41584     1.73885     1.70978
 Zero-point vibrational energy     518389.5 (Joules/Mol)
                                  123.89805 (Kcal/Mol)
 Warning -- explicit consideration of  17 degrees of freedom as
           vibrations may cause significant error
 Vibrational temperatures:    140.23   269.09   334.79   356.72   380.73
          (Kelvin)            399.53   419.96   459.54   514.69   520.33
                              533.59   558.56   603.31   705.49   742.15
                              775.79   853.87   955.27  1208.43  1277.46
                             1338.18  1355.42  1383.93  1395.46  1455.40
                             1471.29  1590.98  1646.72  1719.05  1746.32
                             1765.38  1825.47  1946.68  2002.64  2026.93
                             2038.94  2055.54  2065.04  2141.49  2153.76
                             2158.99  2166.55  2180.68  2182.62  2196.73
                             2200.23  4375.56  4386.51  4400.32  4412.32
                             4473.05  4485.14  4495.30  4502.58  4511.35
                             4516.95  4529.03  4539.68  5371.94  5476.04

 Zero-point correction=                           0.197444 (Hartree/Particle)
 Thermal correction to Energy=                    0.207484
 Thermal correction to Enthalpy=                  0.208428
 Thermal correction to Gibbs Free Energy=         0.164217
 Sum of electronic and zero-point Energies=           -387.341154
 Sum of electronic and thermal Energies=              -387.331114
 Sum of electronic and thermal Enthalpies=            -387.330170
 Sum of electronic and thermal Free Energies=         -387.374381

                     E (Thermal)             CV                S
                      KCal/Mol        Cal/Mol-Kelvin    Cal/Mol-Kelvin
 Total                  130.198             39.307             93.049
 Electronic               0.000              0.000              0.000
 Translational            0.889              2.981             40.214
 Rotational               0.889              2.981             28.195
 Vibrational            128.420             33.346             24.640
 Vibration     1          0.603              1.951              3.504
 Vibration     2          0.632              1.858              2.257
 Vibration     3          0.653              1.791              1.858
 Vibration     4          0.662              1.766              1.745
 Vibration     5          0.671              1.738              1.631
 Vibration     6          0.679              1.715              1.548
 Vibration     7          0.687              1.689              1.463
 Vibration     8          0.705              1.636              1.313
 Vibration     9          0.733              1.559              1.132
 Vibration    10          0.736              1.551              1.115
 Vibration    11          0.743              1.532              1.076
 Vibration    12          0.756              1.495              1.007
 Vibration    13          0.782              1.428              0.894
 Vibration    14          0.846              1.271              0.683
 Vibration    15          0.871              1.215              0.620
 Vibration    16          0.894              1.163              0.567
 Vibration    17          0.951              1.046              0.461

 Optimization completed.
    -- Stationary point found.
 Normal termination of Gaussian 09 at Thu Sep  8 15:02:27 2022.
