 Gaussian 09, Revision D.01,
 Gaussian 09:  ES64L-G09RevD.01 24-Apr-2013

 --------------------------------
 #P OPT=calcfc Freq B3LYP/6-31G**
 --------------------------------

 --------
 Frag_109
 --------
 Symbolic Z-matrix:
 Charge =  0 Multiplicity = 1

 SCF Done:  E(RB3LYP) =  -248.493833753     A.U. after   14 cycles
 SCF Done:  E(RB3LYP) =  -248.495099637     A.U. after   12 cycles
 SCF Done:  E(RB3LYP) =  -248.495392826     A.U. after   13 cycles
 SCF Done:  E(RB3LYP) =  -248.496783238     A.U. after   12 cycles
 SCF Done:  E(RB3LYP) =  -248.496616040     A.U. after   13 cycles
 SCF Done:  E(RB3LYP) =  -248.496875932     A.U. after   10 cycles
 SCF Done:  E(RB3LYP) =  -248.493026352     A.U. after   13 cycles
 SCF Done:  E(RB3LYP) =  -248.496943875     A.U. after    8 cycles
 SCF Done:  E(RB3LYP) =  -248.496737631     A.U. after   12 cycles
 SCF Done:  E(RB3LYP) =  -248.496997919     A.U. after   10 cycles
 SCF Done:  E(RB3LYP) =  -248.497099960     A.U. after   11 cycles
 SCF Done:  E(RB3LYP) =  -248.497158054     A.U. after   10 cycles
 SCF Done:  E(RB3LYP) =  -248.497183542     A.U. after   10 cycles
 SCF Done:  E(RB3LYP) =  -248.497184355     A.U. after    8 cycles
 SCF Done:  E(RB3LYP) =  -248.497184406     A.U. after    7 cycles
 Optimization completed.
    -- Stationary point found.
 Normal termination of Gaussian 09 at Fri Jul 23 12:02:24 2021.

 ----------------------------------------------------------------------
 #P Geom=AllCheck Guess=TCheck SCRF=Check GenChk RB3LYP/6-31G(d,p) Freq
 ----------------------------------------------------------------------

 Structure from the checkpoint file:  "/vol2/users/liuj201281/HOFBenchmark/IsodesmicSplit/Sample60/Ring26/Running/Gau-244673.chk"
 --------
 Frag_109
 --------
 Charge =  0 Multiplicity = 1

                         Standard orientation:
 ---------------------------------------------------------------------
 Center     Atomic      Atomic             Coordinates (Angstroms)
 Number     Number       Type             X           Y           Z
 ---------------------------------------------------------------------
      1          6           0        2.041789   -0.066202   -0.018406
      2          6           0        0.678834   -0.698019    0.051744
      3          6           0       -0.492163   -0.034971    0.002715
      4          7           0       -1.753538   -0.618239   -0.106365
      5          8           0       -0.627530    1.328041   -0.015974
      6          1           0        2.686027   -0.591543   -0.733977
      7          1           0        2.007296    0.977315   -0.358810
      8          1           0        2.570641   -0.073005    0.945281
      9          1           0        0.633041   -1.781110    0.118228
     10          1           0       -1.752344   -1.613462    0.071201
     11          1           0       -2.456059   -0.138096    0.444361
     12          1           0        0.235648    1.718398    0.169747
 ---------------------------------------------------------------------

 SCF Done:  E(RB3LYP) =  -248.497184406     A.U. after    1 cycles

 The electronic state is 1-A.
 Alpha  occ. eigenvalues --  -19.17059 -14.33314 -10.26208 -10.18125 -10.15447
 Alpha  occ. eigenvalues --   -1.05704  -0.89458  -0.75649  -0.66303  -0.59780
 Alpha  occ. eigenvalues --   -0.50313  -0.48444  -0.46142  -0.41342  -0.38991
 Alpha  occ. eigenvalues --   -0.37884  -0.37396  -0.35134  -0.28238  -0.18538
 Alpha virt. eigenvalues --    0.06045   0.07682   0.09840   0.12594   0.15108
 Alpha virt. eigenvalues --    0.17052   0.19277   0.20309   0.22367   0.28441
 Alpha virt. eigenvalues --    0.35506   0.44493   0.54695   0.55804   0.56398

 Mulliken charges:
               1
     1  C   -0.358693
     2  C   -0.149078
     3  C    0.459674
     4  N   -0.615940
     5  O   -0.540154
     6  H    0.115540
     7  H    0.080621
     8  H    0.110788
     9  H    0.059579
    10  H    0.256454
    11  H    0.261507
    12  H    0.319701
 Sum of Mulliken charges =   0.00000

 Dipole moment (field-independent basis, Debye):
    X=              0.2616    Y=             -0.3816    Z=              1.3740  Tot=              1.4498
 Quadrupole moment (field-independent basis, Debye-Ang):
   XX=            -28.2209   YY=            -27.5056   ZZ=            -32.9486
   XY=              3.7229   XZ=             -2.9236   YZ=              0.0733

  Exact polarizability:  61.612  -2.338  43.154  -0.216   0.308  25.376
 Approx polarizability:  85.697  -9.597  62.854   1.394   0.248  35.245

                      1                      2                      3
                      A                      A                      A
 Frequencies --     95.3219               177.2395               272.1816
 Red. masses --      1.0914                 1.7948                 2.4928
 Frc consts  --      0.0058                 0.0332                 0.1088
 IR Inten    --      0.6390                 8.7275                 5.3204

                      4                      5                      6
                      A                      A                      A
 Frequencies --    298.5941               397.7951               475.2146
 Red. masses --      1.3924                 1.1305                 2.9610
 Frc consts  --      0.0731                 0.1054                 0.3940
 IR Inten    --     48.6351                99.5981                 7.7797

                      7                      8                      9
                      A                      A                      A
 Frequencies --    580.4681               610.9450               695.4851
 Red. masses --      3.2691                 2.3170                 1.4864
 Frc consts  --      0.6490                 0.5095                 0.4236
 IR Inten    --     28.7148                71.7269               110.9862

                     10                     11                     12
                      A                      A                      A
 Frequencies --    751.2268               863.1654              1021.3096
 Red. masses --      1.4828                 2.8417                 1.8863
 Frc consts  --      0.4930                 1.2474                 1.1592
 IR Inten    --    156.6809                 2.9247                50.0237

                     13                     14                     15
                      A                      A                      A
 Frequencies --   1054.1983              1095.8178              1150.6061
 Red. masses --      1.3737                 1.9960                 1.5002
 Frc consts  --      0.8995                 1.4122                 1.1702
 IR Inten    --      0.4946                 0.9409                62.9614

                     16                     17                     18
                      A                      A                      A
 Frequencies --   1213.9918              1358.3169              1418.8576
 Red. masses --      1.3922                 1.5512                 1.6056
 Frc consts  --      1.2089                 1.6862                 1.9044
 IR Inten    --     97.7755                61.3360                29.6051

                     19                     20                     21
                      A                      A                      A
 Frequencies --   1458.6271              1493.7083              1519.9452
 Red. masses --      1.7269                 1.0453                 1.0630
 Frc consts  --      2.1648                 1.3741                 1.4469
 IR Inten    --     24.3557                 3.3779                 2.1486

                     22                     23                     24
                      A                      A                      A
 Frequencies --   1641.4767              1771.1435              3006.1068
 Red. masses --      1.1696                 5.9218                 1.0393
 Frc consts  --      1.8568                10.9449                 5.5334
 IR Inten    --     57.6162               256.4540                58.9161

                     25                     26                     27
                      A                      A                      A
 Frequencies --   3054.0160              3075.0056              3182.1516
 Red. masses --      1.0990                 1.0985                 1.0888
 Frc consts  --      6.0392                 6.1200                 6.4958
 IR Inten    --     42.0199                36.9537                19.5942

                     28                     29                     30
                      A                      A                      A
 Frequencies --   3548.7859              3666.8887              3839.5414
 Red. masses --      1.0490                 1.0960                 1.0652
 Frc consts  --      7.7839                 8.6824                 9.2523
 IR Inten    --      7.3178                 9.9444                28.8651

 - Thermochemistry -
 -------------------
 Temperature   298.150 Kelvin.  Pressure   1.00000 Atm.
 Atom     1 has atomic number  6 and mass  12.00000

 Molecular mass:    73.05276 amu.
 Principal axes and moments of inertia in atomic units:
                           1         2         3
     Eigenvalues --   183.94315 490.39785 660.05586
           X            0.99952   0.02936  -0.00994
           Y           -0.02939   0.99956  -0.00249
           Z            0.00986   0.00278   0.99995
 This molecule is an asymmetric top.
 Rotational symmetry number  1.
 Rotational temperatures (Kelvin)      0.47087     0.17662     0.13122
 Rotational constants (GHZ):           9.81141     3.68016     2.73422
 Zero-point vibrational energy     267892.5 (Joules/Mol)
                                   64.02785 (Kcal/Mol)
 Warning -- explicit consideration of   8 degrees of freedom as
           vibrations may cause significant error
 Vibrational temperatures:    137.15   255.01   391.61   429.61   572.34
          (Kelvin)            683.73   835.16   879.01  1000.65  1080.85
                             1241.90  1469.43  1516.75  1576.64  1655.46
                             1746.66  1954.31  2041.42  2098.64  2149.11
                             2186.86  2361.72  2548.28  4325.11  4394.04
                             4424.24  4578.40  5105.91  5275.83  5524.24

 Zero-point correction=                           0.102035 (Hartree/Particle)
 Thermal correction to Energy=                    0.108397
 Thermal correction to Enthalpy=                  0.109341
 Thermal correction to Gibbs Free Energy=         0.072748
 Sum of electronic and zero-point Energies=           -248.395150
 Sum of electronic and thermal Energies=              -248.388787
 Sum of electronic and thermal Enthalpies=            -248.387843
 Sum of electronic and thermal Free Energies=         -248.424437

                     E (Thermal)             CV                S
                      KCal/Mol        Cal/Mol-Kelvin    Cal/Mol-Kelvin
 Total                   68.020             22.095             77.018
 Electronic               0.000              0.000              0.000
 Translational            0.889              2.981             38.782
 Rotational               0.889              2.981             25.591
 Vibrational             66.243             16.134             12.645
 Vibration     1          0.603              1.953              3.548
 Vibration     2          0.628              1.870              2.357
 Vibration     3          0.675              1.725              1.582
 Vibration     4          0.692              1.676              1.425
 Vibration     5          0.764              1.475              0.971
 Vibration     6          0.832              1.305              0.723
 Vibration     7          0.937              1.074              0.484
 Vibration     8          0.970              1.009              0.431

 Optimization completed.
    -- Stationary point found.
 Normal termination of Gaussian 09 at Fri Jul 23 12:02:39 2021.
