 Gaussian 09, Revision E.01,
 Gaussian 09:  ES64L-G09RevE.01 30-Nov-2015

 -------------------------
 #P OPT Freq B3LYP/6-31G**
 -------------------------

 --------
 Frag_199
 --------
 Symbolic Z-matrix:
 Charge =  0 Multiplicity = 1

 SCF Done:  E(RB3LYP) =  -195.126918392     A.U. after   13 cycles
 SCF Done:  E(RB3LYP) =  -195.148515220     A.U. after   12 cycles
 SCF Done:  E(RB3LYP) =  -195.154755388     A.U. after   12 cycles
 SCF Done:  E(RB3LYP) =  -195.155247041     A.U. after   11 cycles
 SCF Done:  E(RB3LYP) =  -195.155765122     A.U. after   12 cycles
 SCF Done:  E(RB3LYP) =  -195.155849029     A.U. after   11 cycles
 SCF Done:  E(RB3LYP) =  -195.155938787     A.U. after   12 cycles
 SCF Done:  E(RB3LYP) =  -195.086371595     A.U. after   15 cycles
 SCF Done:  E(RB3LYP) =  -195.156081030     A.U. after   12 cycles
 SCF Done:  E(RB3LYP) =  -195.156295131     A.U. after   13 cycles
 SCF Done:  E(RB3LYP) =  -195.278640536     A.U. after   10 cycles
 SCF Done:  E(RB3LYP) =  -195.282028256     A.U. after   10 cycles
 SCF Done:  E(RB3LYP) =  -195.283077017     A.U. after   10 cycles
 SCF Done:  E(RB3LYP) =  -195.283336206     A.U. after   10 cycles
 SCF Done:  E(RB3LYP) =  -195.283412208     A.U. after    9 cycles
 SCF Done:  E(RB3LYP) =  -195.283426915     A.U. after    8 cycles
 SCF Done:  E(RB3LYP) =  -195.283433869     A.U. after    7 cycles
 SCF Done:  E(RB3LYP) =  -195.283441715     A.U. after    7 cycles
 SCF Done:  E(RB3LYP) =  -195.283436831     A.U. after    7 cycles
 Optimization completed.
    -- Stationary point found.
 Normal termination of Gaussian 09 at Sat Aug 21 01:37:18 2021.

 ----------------------------------------------------------------------
 #P Geom=AllCheck Guess=TCheck SCRF=Check GenChk RB3LYP/6-31G(d,p) Freq
 ----------------------------------------------------------------------

 Structure from the checkpoint file:  "/public/home/users/caep010/.cache/gau_scr/Gau-169126.chk"
 --------
 Frag_199
 --------
 Charge =  0 Multiplicity = 1

                         Standard orientation:
 ---------------------------------------------------------------------
 Center     Atomic      Atomic             Coordinates (Angstroms)
 Number     Number       Type             X           Y           Z
 ---------------------------------------------------------------------
      1          6           0       -1.272230    0.511371    0.568774
      2          6           0       -1.272196   -0.511285   -0.568908
      3          6           0        0.000018    0.000154   -0.000008
      4          6           0        1.272411    0.568966   -0.510979
      5          6           0        1.272051   -0.569070    0.511066
      6          1           0       -1.576026    1.528461    0.333606
      7          1           0       -1.576816    0.169843    1.555030
      8          1           0       -1.577391   -0.170490   -1.555232
      9          1           0       -1.575188   -1.528585   -0.333560
     10          1           0        1.576201    1.555363   -0.168940
     11          1           0        1.577004    0.335090   -1.528107
     12          1           0        1.575628   -0.335162    1.528482
     13          1           0        1.576264   -1.555337    0.169054
 ---------------------------------------------------------------------

 SCF Done:  E(RB3LYP) =  -195.283436831     A.U. after    1 cycles

 The electronic state is 1-A.
 Alpha  occ. eigenvalues --  -10.19387 -10.18356 -10.18354 -10.18334 -10.18334
 Alpha  occ. eigenvalues --   -0.87244  -0.78941  -0.59657  -0.59652  -0.53506
 Alpha  occ. eigenvalues --   -0.48047  -0.46282  -0.46280  -0.36612  -0.35333
 Alpha  occ. eigenvalues --   -0.34240  -0.28031  -0.28028  -0.26557
 Alpha virt. eigenvalues --    0.10440   0.10448   0.12067   0.12405   0.15765
 Alpha virt. eigenvalues --    0.15772   0.20540   0.20591   0.20596   0.22161
 Alpha virt. eigenvalues --    0.24043   0.28996   0.29008   0.32828   0.47047

 Mulliken charges:
               1
     1  C   -0.231730
     2  C   -0.231747
     3  C    0.062587
     4  C   -0.231746
     5  C   -0.231713
     6  H    0.108078
     7  H    0.108038
     8  H    0.108024
     9  H    0.108044
    10  H    0.108018
    11  H    0.108061
    12  H    0.108051
    13  H    0.108034
 Sum of Mulliken charges =   0.00000

 Dipole moment (field-independent basis, Debye):
    X=             -0.0001    Y=             -0.0001    Z=              0.0001  Tot=              0.0002
 Quadrupole moment (field-independent basis, Debye-Ang):
   XX=            -32.2006   YY=            -30.3939   ZZ=            -30.3930
   XY=             -0.0019   XZ=             -0.0010   YZ=             -0.0016

  Exact polarizability:  54.222  -0.001  47.098  -0.001  -0.001  47.089
 Approx polarizability:  69.633  -0.001  66.039  -0.003   0.000  66.028

                      1                      2                      3
                      A                      A                      A
 Frequencies --    290.0411               303.9417               303.9790
 Red. masses --      1.7590                 2.3983                 2.3993
 Frc consts  --      0.0872                 0.1305                 0.1306
 IR Inten    --      0.0000                 0.2362                 0.2341

                      4                      5                      6
                      A                      A                      A
 Frequencies --    607.0022               791.0842               791.1684
 Red. masses --      3.6673                 1.0336                 1.0336
 Frc consts  --      0.7961                 0.3811                 0.3812
 IR Inten    --      0.0000                 0.3227                 0.3183

                      7                      8                      9
                      A                      A                      A
 Frequencies --    836.8872               892.4942               892.5668
 Red. masses --      1.1047                 2.1657                 2.1670
 Frc consts  --      0.4559                 1.0164                 1.0172
 IR Inten    --      0.0001                 4.5680                 4.5599

                     10                     11                     12
                      A                      A                      A
 Frequencies --    907.4331              1021.9881              1026.7705
 Red. masses --      4.7116                 1.1834                 1.1762
 Frc consts  --      2.2859                 0.7282                 0.7306
 IR Inten    --     16.6399                 8.0187                 0.0029

                     13                     14                     15
                      A                      A                      A
 Frequencies --   1059.2987              1079.7187              1079.8751
 Red. masses --      1.5161                 1.4319                 1.4318
 Frc consts  --      1.0023                 0.9835                 0.9838
 IR Inten    --      0.0001                 1.5063                 1.4951

                     16                     17                     18
                      A                      A                      A
 Frequencies --   1090.1071              1176.1313              1186.6972
 Red. masses --      2.4074                 1.2467                 1.3366
 Frc consts  --      1.6855                 1.0161                 1.1090
 IR Inten    --      0.0000                 0.0000                 0.0050

                     19                     20                     21
                      A                      A                      A
 Frequencies --   1187.0604              1187.1770              1443.3610
 Red. masses --      2.0840                 2.0876                 1.2687
 Frc consts  --      1.7302                 1.7335                 1.5573
 IR Inten    --      2.4027                 2.4280                 0.3026

                     22                     23                     24
                      A                      A                      A
 Frequencies --   1476.8200              1476.9267              1508.7098
 Red. masses --      1.0903                 1.0903                 1.1769
 Frc consts  --      1.4011                 1.4013                 1.5783
 IR Inten    --      0.2502                 0.2505                 0.0000

                     25                     26                     27
                      A                      A                      A
 Frequencies --   1588.3672              3123.5663              3123.6523
 Red. masses --      4.0797                 1.0499                 1.0499
 Frc consts  --      6.0643                 6.0354                 6.0356
 IR Inten    --      1.3318                26.0537                26.0344

                     28                     29                     30
                      A                      A                      A
 Frequencies --   3126.0025              3127.3589              3200.5217
 Red. masses --      1.0580                 1.0571                 1.1202
 Frc consts  --      6.0916                 6.0912                 6.7608
 IR Inten    --     39.9781                 0.0410                 0.0012

                     31                     32                     33
                      A                      A                      A
 Frequencies --   3201.3176              3213.4314              3213.6486
 Red. masses --      1.1183                 1.1163                 1.1163
 Frc consts  --      6.7527                 6.7915                 6.7926
 IR Inten    --      0.0011                26.7389                26.7103

 - Thermochemistry -
 -------------------
 Temperature   298.150 Kelvin.  Pressure   1.00000 Atm.
 Atom     1 has atomic number  6 and mass  12.00000

 Molecular mass:    68.06260 amu.
 Principal axes and moments of inertia in atomic units:
                           1         2         3
     Eigenvalues --   170.74600 434.31953 434.38424
           X            1.00000   0.00000  -0.00001
           Y           -0.00000   0.99850  -0.05480
           Z            0.00001   0.05480   0.99850
 This molecule is an asymmetric top.
 Rotational symmetry number  1.
 Rotational temperatures (Kelvin)      0.50727     0.19942     0.19939
 Rotational constants (GHZ):          10.56974     4.15533     4.15471
 Zero-point vibrational energy     302267.1 (Joules/Mol)
                                   72.24356 (Kcal/Mol)
 Warning -- explicit consideration of   4 degrees of freedom as
           vibrations may cause significant error
 Vibrational temperatures:    417.30   437.30   437.36   873.34  1138.19
          (Kelvin)           1138.31  1204.09  1284.10  1284.20  1305.59
                             1470.41  1477.29  1524.09  1553.47  1553.70
                             1568.42  1692.19  1707.39  1707.91  1708.08
                             2076.67  2124.81  2124.97  2170.69  2285.30
                             4494.11  4494.23  4497.61  4499.57  4604.83
                             4605.98  4623.41  4623.72

 Zero-point correction=                           0.115127 (Hartree/Particle)
 Thermal correction to Energy=                    0.120046
 Thermal correction to Enthalpy=                  0.120990
 Thermal correction to Gibbs Free Energy=         0.087748
 Sum of electronic and zero-point Energies=           -195.168309
 Sum of electronic and thermal Energies=              -195.163391
 Sum of electronic and thermal Enthalpies=            -195.162446
 Sum of electronic and thermal Free Energies=         -195.195689

                     E (Thermal)             CV                S
                      KCal/Mol        Cal/Mol-Kelvin    Cal/Mol-Kelvin
 Total                   75.330             18.583             69.965
 Electronic               0.000              0.000              0.000
 Translational            0.889              2.981             38.571
 Rotational               0.889              2.981             24.980
 Vibrational             73.553             12.622              6.414
 Vibration     1          0.686              1.692              1.474
 Vibration     2          0.695              1.666              1.395
 Vibration     3          0.695              1.666              1.395
 Vibration     4          0.966              1.017              0.438

 Normal termination of Gaussian 09 at Sat Aug 21 01:37:28 2021.
