 Gaussian 09, Revision E.01,
 Gaussian 09:  ES64L-G09RevE.01 30-Nov-2015

 ----------------------------
 #P OPT Freq B3LYP/6-31G(d,p)
 ----------------------------

 --------
 Frag_597
 --------
 Symbolic Z-matrix:
 Charge =  0 Multiplicity = 1

 SCF Done:  E(RB3LYP) =  -209.182037654     A.U. after   13 cycles
 SCF Done:  E(RB3LYP) =  -209.182084372     A.U. after    9 cycles
 SCF Done:  E(RB3LYP) =  -209.182088603     A.U. after    8 cycles
 SCF Done:  E(RB3LYP) =  -209.182088871     A.U. after    7 cycles
 Optimization completed.
    -- Stationary point found.
 Normal termination of Gaussian 09 at Thu Sep  8 14:58:45 2022.

 ----------------------------------------------------------------------
 #P Geom=AllCheck Guess=TCheck SCRF=Check GenChk RB3LYP/6-31G(d,p) Freq
 ----------------------------------------------------------------------

 Structure from the checkpoint file:  "B3LYP6-31Gdp.Frag_597.chk"
 --------
 Frag_597
 --------
 Charge =  0 Multiplicity = 1

                         Standard orientation:
 ---------------------------------------------------------------------
 Center     Atomic      Atomic             Coordinates (Angstroms)
 Number     Number       Type             X           Y           Z
 ---------------------------------------------------------------------
      1          6           0        1.376105   -0.446374    0.000002
      2          8           0        0.541450    0.720364    0.000021
      3          6           0       -0.782705    0.492087   -0.000065
      4          7           0       -1.292201   -0.670672   -0.000004
      5          1           0        2.400928   -0.074418    0.000079
      6          1           0        1.186575   -1.056749    0.887056
      7          1           0        1.186667   -1.056644   -0.887143
      8          1           0       -1.311163    1.450770    0.000103
      9          1           0       -2.309603   -0.605441    0.000138
 ---------------------------------------------------------------------

 SCF Done:  E(RB3LYP) =  -209.182088871     A.U. after    1 cycles

 The electronic state is 1-A.
 Alpha  occ. eigenvalues --  -19.18498 -14.30918 -10.27702 -10.23247  -1.07489
 Alpha  occ. eigenvalues --   -0.88471  -0.72227  -0.58356  -0.53000  -0.47920
 Alpha  occ. eigenvalues --   -0.46408  -0.41805  -0.36031  -0.34761  -0.27482
 Alpha  occ. eigenvalues --   -0.26619
 Alpha virt. eigenvalues --    0.02718   0.10105   0.12228   0.13554   0.16099
 Alpha virt. eigenvalues --    0.17474   0.17966   0.28048   0.36595   0.52481
 Alpha virt. eigenvalues --    0.52958   0.54591   0.56213   0.57527   0.64330

 Mulliken charges:
               1
     1  C   -0.073509
     2  O   -0.433941
     3  C    0.335829
     4  N   -0.531648
     5  H    0.115758
     6  H    0.128785
     7  H    0.128782
     8  H    0.095066
     9  H    0.234878
 Sum of Mulliken charges =  -0.00000

 Dipole moment (field-independent basis, Debye):
    X=             -0.2178    Y=              0.6060    Z=              0.0002  Tot=              0.6439
 Quadrupole moment (field-independent basis, Debye-Ang):
   XX=            -18.6299   YY=            -25.8773   ZZ=            -24.5778
   XY=             -3.2376   XZ=             -0.0006   YZ=             -0.0001

  Exact polarizability:  41.412   1.798  32.168  -0.001  -0.000  20.023
 Approx polarizability:  53.088   8.954  51.711  -0.001  -0.001  27.037

                      1                      2                      3
                      A                      A                      A
 Frequencies --    171.3046               310.2741               318.0390
 Red. masses --      1.0664                 2.3685                 3.2646
 Frc consts  --      0.0184                 0.1343                 0.1946
 IR Inten    --      0.0982                53.3321                15.4535

                      4                      5                      6
                      A                      A                      A
 Frequencies --    727.4307               833.8438               941.2717
 Red. masses --      3.5555                 1.3153                 4.1280
 Frc consts  --      1.1085                 0.5388                 2.1549
 IR Inten    --      5.1324                37.3233                52.6802

                      7                      8                      9
                      A                      A                      A
 Frequencies --   1041.5134              1093.6827              1180.4593
 Red. masses --      1.3460                 1.6675                 1.2777
 Frc consts  --      0.8602                 1.1752                 1.0490
 IR Inten    --      2.8472               133.7357                 0.7683

                     10                     11                     12
                      A                      A                      A
 Frequencies --   1221.2795              1319.6040              1415.7625
 Red. masses --      1.4971                 2.1731                 1.3646
 Frc consts  --      1.3156                 2.2295                 1.6116
 IR Inten    --     27.7569               129.7134                23.5486

                     13                     14                     15
                      A                      A                      A
 Frequencies --   1478.1894              1491.5989              1511.0103
 Red. masses --      1.2199                 1.0467                 1.0473
 Frc consts  --      1.5705                 1.3721                 1.4088
 IR Inten    --      8.1972                 6.0271                11.3885

                     16                     17                     18
                      A                      A                      A
 Frequencies --   1730.6371              3058.7038              3103.8969
 Red. masses --      5.7372                 1.0297                 1.0912
 Frc consts  --     10.1243                 5.6760                 6.1941
 IR Inten    --    218.4930                32.2221                43.0194

                     19                     20                     21
                      A                      A                      A
 Frequencies --   3133.5045              3167.7470              3520.0716
 Red. masses --      1.1064                 1.1071                 1.0765
 Frc consts  --      6.4006                 6.5454                 7.8586
 IR Inten    --     24.1537                20.6190                 0.8994

 - Thermochemistry -
 -------------------
 Temperature   298.150 Kelvin.  Pressure   1.00000 Atm.
 Atom     1 has atomic number  6 and mass  12.00000

 Molecular mass:    59.03711 amu.
 Principal axes and moments of inertia in atomic units:
                           1         2         3
     Eigenvalues --    92.82240 270.23260 351.72612
           X            0.99793  -0.06438  -0.00001
           Y            0.06438   0.99793   0.00000
           Z            0.00001  -0.00000   1.00000
 This molecule is an asymmetric top.
 Rotational symmetry number  1.
 Rotational temperatures (Kelvin)      0.93311     0.32052     0.24625
 Rotational constants (GHZ):          19.44295     6.67847     5.13110
 Zero-point vibrational energy     196007.1 (Joules/Mol)
                                   46.84682 (Kcal/Mol)
 Warning -- explicit consideration of   3 degrees of freedom as
           vibrations may cause significant error
 Vibrational temperatures:    246.47   446.41   457.59  1046.61  1199.71
          (Kelvin)           1354.28  1498.50  1573.56  1698.42  1757.15
                             1898.61  2036.96  2126.78  2146.08  2174.00
                             2490.00  4400.79  4465.81  4508.41  4557.68
                             5064.59

 Zero-point correction=                           0.074655 (Hartree/Particle)
 Thermal correction to Energy=                    0.079243
 Thermal correction to Enthalpy=                  0.080187
 Thermal correction to Gibbs Free Energy=         0.047960
 Sum of electronic and zero-point Energies=           -209.107434
 Sum of electronic and thermal Energies=              -209.102846
 Sum of electronic and thermal Enthalpies=            -209.101902
 Sum of electronic and thermal Free Energies=         -209.134129

                     E (Thermal)             CV                S
                      KCal/Mol        Cal/Mol-Kelvin    Cal/Mol-Kelvin
 Total                   49.725             14.484             67.826
 Electronic               0.000              0.000              0.000
 Translational            0.889              2.981             38.147
 Rotational               0.889              2.981             23.693
 Vibrational             47.948              8.522              5.986
 Vibration     1          0.626              1.878              2.421
 Vibration     2          0.699              1.654              1.361
 Vibration     3          0.704              1.639              1.320

 Optimization completed.
    -- Stationary point found.
 Normal termination of Gaussian 09 at Thu Sep  8 14:58:51 2022.
