 Gaussian 09, Revision E.01,
 Gaussian 09:  ES64L-G09RevE.01 30-Nov-2015

 --------------------------------
 #P OPT=calcfc Freq B3LYP/6-31G**
 --------------------------------

 --------
 Frag_312
 --------
 Symbolic Z-matrix:
 Charge =  0 Multiplicity = 1

 SCF Done:  E(RB3LYP) =  -221.306730844     A.U. after   13 cycles
 SCF Done:  E(RB3LYP) =  -221.327190356     A.U. after   14 cycles
 SCF Done:  E(RB3LYP) =  -221.322196756     A.U. after   14 cycles
 SCF Done:  E(RB3LYP) =  -221.331399449     A.U. after   12 cycles
 SCF Done:  E(RB3LYP) =  -221.332553379     A.U. after   13 cycles
 SCF Done:  E(RB3LYP) =  -221.334733829     A.U. after   12 cycles
 SCF Done:  E(RB3LYP) =  -221.334801511     A.U. after   12 cycles
 SCF Done:  E(RB3LYP) =  -221.334857784     A.U. after   12 cycles
 SCF Done:  E(RB3LYP) =  -221.335019423     A.U. after   11 cycles
 SCF Done:  E(RB3LYP) =  -221.335037081     A.U. after    9 cycles
 SCF Done:  E(RB3LYP) =  -221.335043450     A.U. after    9 cycles
 SCF Done:  E(RB3LYP) =  -221.335044432     A.U. after    8 cycles
 Optimization completed.
    -- Stationary point found.
 Normal termination of Gaussian 09 at Fri Sep 10 18:56:10 2021.

 ----------------------------------------------------------------------
 #P Geom=AllCheck Guess=TCheck SCRF=Check GenChk RB3LYP/6-31G(d,p) Freq
 ----------------------------------------------------------------------

 Structure from the checkpoint file:  "/public/home/users/caep010/.cache/gau_scr/Gau-101769.chk"
 --------
 Frag_312
 --------
 Charge =  0 Multiplicity = 1

                         Standard orientation:
 ---------------------------------------------------------------------
 Center     Atomic      Atomic             Coordinates (Angstroms)
 Number     Number       Type             X           Y           Z
 ---------------------------------------------------------------------
      1          7           0        1.244659    0.516640    0.075888
      2          7           0        0.624808   -0.736193    0.019588
      3          7           0       -0.624742   -0.736214   -0.019626
      4          7           0       -1.244798    0.516614   -0.075922
      5          1           0        2.230292    0.368683   -0.106786
      6          1           0        0.842767    1.168237   -0.602918
      7          1           0       -0.842307    1.168586    0.602321
      8          1           0       -2.230239    0.368566    0.107886
 ---------------------------------------------------------------------

 SCF Done:  E(RB3LYP) =  -221.335044432     A.U. after    1 cycles

 The electronic state is 1-A.
 Alpha  occ. eigenvalues --  -14.39392 -14.39344 -14.37119 -14.37119  -1.07449
 Alpha  occ. eigenvalues --   -0.92521  -0.84199  -0.61970  -0.55945  -0.53492
 Alpha  occ. eigenvalues --   -0.48990  -0.42949  -0.35010  -0.31597  -0.27583
 Alpha  occ. eigenvalues --   -0.23083
 Alpha virt. eigenvalues --   -0.00446   0.06558   0.11279   0.13551   0.14421
 Alpha virt. eigenvalues --    0.17609   0.26414   0.40189   0.57956   0.62855
 Alpha virt. eigenvalues --    0.64764   0.67034   0.69468   0.69908   0.71120

 Mulliken charges:
               1
     1  N   -0.466441
     2  N   -0.083153
     3  N   -0.083116
     4  N   -0.466436
     5  H    0.280126
     6  H    0.269465
     7  H    0.269435
     8  H    0.280121
 Sum of Mulliken charges =  -0.00000

 Dipole moment (field-independent basis, Debye):
    X=              0.0013    Y=              2.8081    Z=              0.0007  Tot=              2.8081
 Quadrupole moment (field-independent basis, Debye-Ang):
   XX=            -17.3517   YY=            -25.8090   ZZ=            -24.5551
   XY=              0.0013   XZ=             -3.1080   YZ=             -0.0004

  Exact polarizability:  43.880  -0.000  27.711  -0.469  -0.000  15.985
 Approx polarizability:  72.291  -0.002  43.903   1.822  -0.001  22.824

                      1                      2                      3
                      A                      A                      A
 Frequencies --    290.9578               385.5103               587.2284
 Red. masses --      1.1225                 3.5322                 1.7543
 Frc consts  --      0.0560                 0.3093                 0.3564
 IR Inten    --      4.7504                 0.0205                23.6470

                      4                      5                      6
                      A                      A                      A
 Frequencies --    645.8264               731.8848               773.6169
 Red. masses --      1.8024                 2.5126                 1.7413
 Frc consts  --      0.4429                 0.7930                 0.6140
 IR Inten    --      1.0777               172.8612               171.6706

                      7                      8                      9
                      A                      A                      A
 Frequencies --    864.5087              1045.2482              1075.2737
 Red. masses --      2.2432                 2.0722                 2.6512
 Frc consts  --      0.9878                 1.3339                 1.8061
 IR Inten    --    137.7408                29.1164                54.2606

                     10                     11                     12
                      A                      A                      A
 Frequencies --   1255.5437              1355.6905              1608.1357
 Red. masses --      1.3378                 1.5076                 4.2260
 Frc consts  --      1.2425                 1.6325                 6.4391
 IR Inten    --      5.1578                15.9338                39.7348

                     13                     14                     15
                      A                      A                      A
 Frequencies --   1618.6885              1671.7591              3419.0040
 Red. masses --      1.1018                 1.2161                 1.0542
 Frc consts  --      1.7008                 2.0025                 7.2605
 IR Inten    --     59.7560                 7.5815                 4.2706

                     16                     17                     18
                      A                      A                      A
 Frequencies --   3431.8977              3612.9155              3615.4335
 Red. masses --      1.0541                 1.0888                 1.0902
 Frc consts  --      7.3151                 8.3739                 8.3959
 IR Inten    --      0.9528                36.9903                 2.2202

 - Thermochemistry -
 -------------------
 Temperature   298.150 Kelvin.  Pressure   1.00000 Atm.
 Atom     1 has atomic number  7 and mass  14.00307

 Molecular mass:    60.04360 amu.
 Principal axes and moments of inertia in atomic units:
                           1         2         3
     Eigenvalues --    94.34098 238.21680 326.17679
           X            0.99974   0.00001  -0.02285
           Y           -0.00001   1.00000  -0.00000
           Z            0.02285   0.00000   0.99974
 This molecule is an asymmetric top.
 Rotational symmetry number  1.
 Rotational temperatures (Kelvin)      0.91809     0.36359     0.26554
 Rotational constants (GHZ):          19.12998     7.57604     5.53302
 Zero-point vibrational energy     167412.1 (Joules/Mol)
                                   40.01246 (Kcal/Mol)
 Warning -- explicit consideration of   3 degrees of freedom as
           vibrations may cause significant error
 Vibrational temperatures:    418.62   554.66   844.89   929.20  1053.02
          (Kelvin)           1113.06  1243.83  1503.88  1547.08  1806.45
                             1950.53  2313.75  2328.93  2405.29  4919.18
                             4937.73  5198.17  5201.80

 Zero-point correction=                           0.063764 (Hartree/Particle)
 Thermal correction to Energy=                    0.067993
 Thermal correction to Enthalpy=                  0.068937
 Thermal correction to Gibbs Free Energy=         0.037614
 Sum of electronic and zero-point Energies=           -221.271281
 Sum of electronic and thermal Energies=              -221.267051
 Sum of electronic and thermal Enthalpies=            -221.266107
 Sum of electronic and thermal Free Energies=         -221.297430

                     E (Thermal)             CV                S
                      KCal/Mol        Cal/Mol-Kelvin    Cal/Mol-Kelvin
 Total                   42.666             14.231             65.925
 Electronic               0.000              0.000              0.000
 Translational            0.889              2.981             38.198
 Rotational               0.889              2.981             23.509
 Vibrational             40.889              8.269              4.218
 Vibration     1          0.687              1.691              1.468
 Vibration     2          0.754              1.501              1.017
 Vibration     3          0.944              1.059              0.472

 Optimization completed.
    -- Stationary point found.
 Normal termination of Gaussian 09 at Fri Sep 10 18:56:15 2021.
