 Gaussian 09, Revision E.01,
 Gaussian 09:  ES64L-G09RevE.01 30-Nov-2015

 ----------------------------
 #P OPT Freq B3LYP/6-31G(d,p)
 ----------------------------

 --------
 Frag_957
 --------
 Symbolic Z-matrix:
 Charge =  0 Multiplicity = 1

 SCF Done:  E(RB3LYP) =  -284.393133703     A.U. after   14 cycles
 SCF Done:  E(RB3LYP) =  -284.393194561     A.U. after   10 cycles
 SCF Done:  E(RB3LYP) =  -284.393197185     A.U. after    9 cycles
 SCF Done:  E(RB3LYP) =  -284.393198025     A.U. after    8 cycles
 Optimization completed.
    -- Stationary point found.
 Normal termination of Gaussian 09 at Thu Sep  8 15:14:58 2022.

 ----------------------------------------------------------------------
 #P Geom=AllCheck Guess=TCheck SCRF=Check GenChk RB3LYP/6-31G(d,p) Freq
 ----------------------------------------------------------------------

 Structure from the checkpoint file:  "B3LYP6-31Gdp.Frag_957.chk"
 --------
 Frag_957
 --------
 Charge =  0 Multiplicity = 1

                         Standard orientation:
 ---------------------------------------------------------------------
 Center     Atomic      Atomic             Coordinates (Angstroms)
 Number     Number       Type             X           Y           Z
 ---------------------------------------------------------------------
      1          6           0        1.822441   -0.019804   -0.153581
      2          7           0        0.802873   -0.710757    0.149205
      3          6           0       -0.454988   -0.004331    0.403460
      4          8           0       -1.470674   -0.719072   -0.253611
      5          8           0       -0.517487    1.328379   -0.010011
      6          1           0        2.766221   -0.531394   -0.347953
      7          1           0        1.805344    1.072839   -0.226554
      8          1           0       -0.602315    0.008557    1.492715
      9          1           0       -1.112722   -1.605533   -0.408659
     10          1           0       -0.776068    1.301186   -0.944280
 ---------------------------------------------------------------------

 SCF Done:  E(RB3LYP) =  -284.393198025     A.U. after    1 cycles

 The electronic state is 1-A.
 Alpha  occ. eigenvalues --  -19.16062 -19.15724 -14.34356 -10.31259 -10.23874
 Alpha  occ. eigenvalues --   -1.08000  -1.00292  -0.91675  -0.69213  -0.60467
 Alpha  occ. eigenvalues --   -0.54163  -0.51900  -0.49219  -0.45040  -0.38489
 Alpha  occ. eigenvalues --   -0.36775  -0.32631  -0.32365  -0.29425  -0.26429
 Alpha virt. eigenvalues --   -0.02256   0.08880   0.10608   0.13278   0.14885
 Alpha virt. eigenvalues --    0.17494   0.21374   0.23477   0.27110   0.31529
 Alpha virt. eigenvalues --    0.51106   0.53854   0.56524   0.62835   0.63617

 Mulliken charges:
               1
     1  C   -0.023292
     2  N   -0.384298
     3  C    0.493492
     4  O   -0.542750
     5  O   -0.514019
     6  H    0.113309
     7  H    0.119214
     8  H    0.109729
     9  H    0.318919
    10  H    0.309694
 Sum of Mulliken charges =  -0.00000

 Dipole moment (field-independent basis, Debye):
    X=              1.4499    Y=             -0.2244    Z=             -1.0417  Tot=              1.7993
 Quadrupole moment (field-independent basis, Debye-Ang):
   XX=            -29.1868   YY=            -29.7906   ZZ=            -27.2179
   XY=              1.6293   XZ=             -0.2104   YZ=             -1.0906

  Exact polarizability:  44.165   2.767  34.461  -2.654  -1.086  25.847
 Approx polarizability:  60.490   7.649  51.126  -4.242  -2.295  36.578

                      1                      2                      3
                      A                      A                      A
 Frequencies --    146.9427               317.9137               326.6695
 Red. masses --      3.9273                 1.1292                 3.1793
 Frc consts  --      0.0500                 0.0672                 0.1999
 IR Inten    --      5.4676                47.3101                12.0773

                      4                      5                      6
                      A                      A                      A
 Frequencies --    352.5169               491.5198               545.1526
 Red. masses --      1.2739                 2.3752                 2.9713
 Frc consts  --      0.0933                 0.3381                 0.5203
 IR Inten    --    129.6520                45.9717                15.5625

                      7                      8                      9
                      A                      A                      A
 Frequencies --    610.2063               768.1596               930.3452
 Red. masses --      2.5150                 1.9578                 2.8325
 Frc consts  --      0.5518                 0.6807                 1.4445
 IR Inten    --     12.3505                 5.5744                41.9750

                     10                     11                     12
                      A                      A                      A
 Frequencies --   1036.0358              1094.8783              1113.0153
 Red. masses --      3.3783                 1.3501                 3.8913
 Frc consts  --      2.1365                 0.9536                 2.8402
 IR Inten    --    147.9615                14.9693               185.6719

                     13                     14                     15
                      A                      A                      A
 Frequencies --   1230.2736              1275.9839              1325.2498
 Red. masses --      1.5113                 1.2022                 1.3304
 Frc consts  --      1.3477                 1.1533                 1.3766
 IR Inten    --     22.7523                43.0388                 8.0164

                     16                     17                     18
                      A                      A                      A
 Frequencies --   1393.1510              1444.6124              1492.3377
 Red. masses --      1.4055                 1.2762                 1.1504
 Frc consts  --      1.6072                 1.5692                 1.5095
 IR Inten    --    172.8497                70.6623                31.6620

                     19                     20                     21
                      A                      A                      A
 Frequencies --   1748.0508              3034.1388              3067.8663
 Red. masses --      6.5954                 1.0841                 1.0570
 Frc consts  --     11.8741                 5.8803                 5.8612
 IR Inten    --     35.7643                56.7761                21.6359

                     22                     23                     24
                      A                      A                      A
 Frequencies --   3169.0575              3778.7995              3796.4972
 Red. masses --      1.1157                 1.0649                 1.0651
 Frc consts  --      6.6017                 8.9588                 9.0449
 IR Inten    --     22.4363                32.5295                40.1164

 - Thermochemistry -
 -------------------
 Temperature   298.150 Kelvin.  Pressure   1.00000 Atm.
 Atom     1 has atomic number  6 and mass  12.00000

 Molecular mass:    75.03203 amu.
 Principal axes and moments of inertia in atomic units:
                           1         2         3
     Eigenvalues --   201.20811 394.55495 545.47656
           X            0.99968   0.02259  -0.01145
           Y           -0.02276   0.99963  -0.01484
           Z            0.01111   0.01510   0.99982
 This molecule is an asymmetric top.
 Rotational symmetry number  1.
 Rotational temperatures (Kelvin)      0.43047     0.21952     0.15879
 Rotational constants (GHZ):           8.96953     4.57412     3.30856
 Zero-point vibrational energy     206292.3 (Joules/Mol)
                                   49.30504 (Kcal/Mol)
 Warning -- explicit consideration of   7 degrees of freedom as
           vibrations may cause significant error
 Vibrational temperatures:    211.42   457.41   470.00   507.19   707.19
          (Kelvin)            784.35   877.95  1105.21  1338.56  1490.62
                             1575.28  1601.38  1770.09  1835.85  1906.74
                             2004.43  2078.47  2147.14  2515.05  4365.44
                             4413.97  4559.56  5436.84  5462.31

 Zero-point correction=                           0.078573 (Hartree/Particle)
 Thermal correction to Energy=                    0.084051
 Thermal correction to Enthalpy=                  0.084996
 Thermal correction to Gibbs Free Energy=         0.050326
 Sum of electronic and zero-point Energies=           -284.314625
 Sum of electronic and thermal Energies=              -284.309147
 Sum of electronic and thermal Enthalpies=            -284.308202
 Sum of electronic and thermal Free Energies=         -284.342872

                     E (Thermal)             CV                S
                      KCal/Mol        Cal/Mol-Kelvin    Cal/Mol-Kelvin
 Total                   52.743             18.975             72.969
 Electronic               0.000              0.000              0.000
 Translational            0.889              2.981             38.862
 Rotational               0.889              2.981             25.274
 Vibrational             50.966             13.014              8.833
 Vibration     1          0.617              1.906              2.711
 Vibration     2          0.704              1.639              1.321
 Vibration     3          0.710              1.622              1.277
 Vibration     4          0.729              1.570              1.155
 Vibration     5          0.847              1.269              0.680
 Vibration     6          0.900              1.150              0.554
 Vibration     7          0.969              1.010              0.432

 Normal termination of Gaussian 09 at Thu Sep  8 15:15:06 2022.
