 Gaussian 09, Revision E.01,
 Gaussian 09:  ES64L-G09RevE.01 30-Nov-2015

 --------------------------------
 #P OPT=calcfc Freq B3LYP/6-31G**
 --------------------------------

 --------
 Frag_395
 --------
 Symbolic Z-matrix:
 Charge =  0 Multiplicity = 1

 SCF Done:  E(RB3LYP) =  -308.889716837     A.U. after   12 cycles
 SCF Done:  E(RB3LYP) =  -308.895242447     A.U. after   13 cycles
 SCF Done:  E(RB3LYP) =  -308.895644755     A.U. after   13 cycles
 SCF Done:  E(RB3LYP) =  -308.895655386     A.U. after   13 cycles
 SCF Done:  E(RB3LYP) =  -308.896011659     A.U. after   10 cycles
 SCF Done:  E(RB3LYP) =  -308.896056292     A.U. after   10 cycles
 SCF Done:  E(RB3LYP) =  -308.896061680     A.U. after    9 cycles
 SCF Done:  E(RB3LYP) =  -308.896062673     A.U. after    7 cycles
 SCF Done:  E(RB3LYP) =  -308.896063045     A.U. after    8 cycles
 SCF Done:  E(RB3LYP) =  -308.896064155     A.U. after   10 cycles
 SCF Done:  E(RB3LYP) =  -308.896206371     A.U. after   12 cycles
 SCF Done:  E(RB3LYP) =  -308.897299374     A.U. after   13 cycles
 SCF Done:  E(RB3LYP) =  -308.896743122     A.U. after   13 cycles
 SCF Done:  E(RB3LYP) =  -308.897641301     A.U. after   10 cycles
 SCF Done:  E(RB3LYP) =  -308.897666802     A.U. after    9 cycles
 SCF Done:  E(RB3LYP) =  -308.897680004     A.U. after    9 cycles
 SCF Done:  E(RB3LYP) =  -308.897683996     A.U. after    9 cycles
 SCF Done:  E(RB3LYP) =  -308.897684534     A.U. after    7 cycles
 Optimization completed.
    -- Stationary point found.
 Normal termination of Gaussian 09 at Fri Sep 10 19:31:49 2021.

 ----------------------------------------------------------------------
 #P Geom=AllCheck Guess=TCheck SCRF=Check GenChk RB3LYP/6-31G(d,p) Freq
 ----------------------------------------------------------------------

 Structure from the checkpoint file:  "/public/home/users/caep010/.cache/gau_scr/Gau-4720.chk"
 --------
 Frag_395
 --------
 Charge =  0 Multiplicity = 1

                         Standard orientation:
 ---------------------------------------------------------------------
 Center     Atomic      Atomic             Coordinates (Angstroms)
 Number     Number       Type             X           Y           Z
 ---------------------------------------------------------------------
      1          6           0       -2.014193   -0.140718   -0.088354
      2          8           0       -0.759934   -0.617189   -0.535163
      3          6           0        0.400808    0.001674    0.023947
      4          6           0        1.553629   -0.914846   -0.366626
      5          6           0        0.575519    1.426031   -0.518820
      6          8           0        0.356754    0.010215    1.441931
      7          1           0       -2.124817   -0.240959    0.999164
      8          1           0       -2.770379   -0.763043   -0.572033
      9          1           0       -2.202454    0.906108   -0.371185
     10          1           0        1.399841   -1.893959    0.092104
     11          1           0        1.587886   -1.035524   -1.451771
     12          1           0        2.502808   -0.502504   -0.016394
     13          1           0       -0.253402    2.075257   -0.214304
     14          1           0        1.503552    1.863126   -0.140425
     15          1           0        0.608766    1.415786   -1.611066
     16          1           0       -0.120937    0.798660    1.730883
 ---------------------------------------------------------------------

 SCF Done:  E(RB3LYP) =  -308.897684534     A.U. after    1 cycles

 The electronic state is 1-A.
 Alpha  occ. eigenvalues --  -19.14815 -19.13917 -10.28521 -10.22397 -10.18149
 Alpha  occ. eigenvalues --  -10.16805  -1.05442  -0.99163  -0.77060  -0.70214
 Alpha  occ. eigenvalues --   -0.67247  -0.57729  -0.51941  -0.47449  -0.46415
 Alpha  occ. eigenvalues --   -0.43983  -0.41690  -0.40163  -0.38127  -0.36991
 Alpha  occ. eigenvalues --   -0.36541  -0.33505  -0.32289  -0.28198  -0.25389
 Alpha virt. eigenvalues --    0.06582   0.11016   0.12018   0.13851   0.15468
 Alpha virt. eigenvalues --    0.16112   0.16422   0.18066   0.18732   0.20218
 Alpha virt. eigenvalues --    0.21725   0.23096   0.24314   0.26026   0.29273

 Mulliken charges:
               1
     1  C   -0.075432
     2  O   -0.485086
     3  C    0.471021
     4  C   -0.306654
     5  C   -0.334915
     6  O   -0.534477
     7  H    0.096434
     8  H    0.117469
     9  H    0.083015
    10  H    0.124885
    11  H    0.110434
    12  H    0.104059
    13  H    0.091827
    14  H    0.114629
    15  H    0.120611
    16  H    0.302178
 Sum of Mulliken charges =  -0.00000

 Dipole moment (field-independent basis, Debye):
    X=             -0.6146    Y=              2.0035    Z=              0.0016  Tot=              2.0956
 Quadrupole moment (field-independent basis, Debye-Ang):
   XX=            -35.0261   YY=            -37.3144   ZZ=            -39.0909
   XY=             -0.7639   XZ=             -2.2297   YZ=              1.6469

  Exact polarizability:  56.732  -0.778  49.021  -0.801   0.741  47.245
 Approx polarizability:  70.044  -1.256  65.672   0.266   2.508  67.702

                      1                      2                      3
                      A                      A                      A
 Frequencies --     65.8315               187.2769               215.4563
 Red. masses --      1.7254                 1.2908                 1.0438
 Frc consts  --      0.0044                 0.0267                 0.0285
 IR Inten    --      2.8787                 7.6605                 0.3545

                      4                      5                      6
                      A                      A                      A
 Frequencies --    264.2656               279.0743               329.6866
 Red. masses --      1.0946                 2.9245                 1.4009
 Frc consts  --      0.0450                 0.1342                 0.0897
 IR Inten    --      1.8006                 6.6544                78.4433

                      7                      8                      9
                      A                      A                      A
 Frequencies --    346.4664               387.5188               428.9311
 Red. masses --      1.8889                 2.3137                 2.4667
 Frc consts  --      0.1336                 0.2047                 0.2674
 IR Inten    --      9.9262                10.7880                 1.3869

                     10                     11                     12
                      A                      A                      A
 Frequencies --    507.2688               570.3983               753.0736
 Red. masses --      3.4695                 3.6223                 4.2853
 Frc consts  --      0.5260                 0.6944                 1.4319
 IR Inten    --      9.8986                 5.2984                 5.6316

                     13                     14                     15
                      A                      A                      A
 Frequencies --    872.2775               931.6557               976.8803
 Red. masses --      2.6332                 1.4875                 2.1369
 Frc consts  --      1.1804                 0.7607                 1.2015
 IR Inten    --     63.3799                 0.4608                30.3420

                     16                     17                     18
                      A                      A                      A
 Frequencies --   1015.0650              1109.4339              1140.4422
 Red. masses --      1.3012                 3.1864                 1.9709
 Frc consts  --      0.7899                 2.3108                 1.5103
 IR Inten    --      5.9974                90.8532                80.3218

                     19                     20                     21
                      A                      A                      A
 Frequencies --   1177.6284              1198.0226              1221.8236
 Red. masses --      1.3181                 1.9920                 1.5820
 Frc consts  --      1.0770                 1.6845                 1.3915
 IR Inten    --      4.6104                71.3743                63.2728

                     22                     23                     24
                      A                      A                      A
 Frequencies --   1247.3449              1377.1137              1420.4447
 Red. masses --      2.9156                 1.4145                 1.3832
 Frc consts  --      2.6727                 1.5805                 1.6443
 IR Inten    --    118.4358                27.4681                33.8850

                     25                     26                     27
                      A                      A                      A
 Frequencies --   1433.5002              1479.8378              1492.9524
 Red. masses --      1.4988                 1.1404                 1.0583
 Frc consts  --      1.8147                 1.4714                 1.3899
 IR Inten    --     27.1657                 0.6101                 0.7161

                     28                     29                     30
                      A                      A                      A
 Frequencies --   1496.1600              1504.4236              1514.1571
 Red. masses --      1.0609                 1.0547                 1.0609
 Frc consts  --      1.3993                 1.4064                 1.4330
 IR Inten    --      1.0600                 3.5825                 0.1506

                     31                     32                     33
                      A                      A                      A
 Frequencies --   1520.7988              1528.3686              2995.4894
 Red. masses --      1.0620                 1.0551                 1.0414
 Frc consts  --      1.4471                 1.4522                 5.5053
 IR Inten    --      1.0801                10.4420                54.7088

                     34                     35                     36
                      A                      A                      A
 Frequencies --   3048.6612              3058.6800              3068.3703
 Red. masses --      1.0413                 1.0943                 1.0348
 Frc consts  --      5.7023                 6.0320                 5.7402
 IR Inten    --     15.5339                60.0844                 7.8798

                     37                     38                     39
                      A                      A                      A
 Frequencies --   3118.3789              3130.1596              3141.8276
 Red. masses --      1.0983                 1.0978                 1.1039
 Frc consts  --      6.2925                 6.3374                 6.4199
 IR Inten    --     29.4679                25.0117                 5.1146

                     40                     41                     42
                      A                      A                      A
 Frequencies --   3151.4839              3154.0797              3813.4537
 Red. masses --      1.1039                 1.1035                 1.0663
 Frc consts  --      6.4596                 6.4680                 9.1359
 IR Inten    --     30.8303                17.0868                 9.9158

 - Thermochemistry -
 -------------------
 Temperature   298.150 Kelvin.  Pressure   1.00000 Atm.
 Atom     1 has atomic number  6 and mass  12.00000

 Molecular mass:    90.06808 amu.
 Principal axes and moments of inertia in atomic units:
                           1         2         3
     Eigenvalues --   391.01619 634.40012 654.76841
           X            0.99864  -0.03034  -0.04246
           Y            0.02758   0.99756  -0.06410
           Z            0.04430   0.06284   0.99704
 This molecule is an asymmetric top.
 Rotational symmetry number  1.
 Rotational temperatures (Kelvin)      0.22151     0.13653     0.13228
 Rotational constants (GHZ):           4.61552     2.84480     2.75630
 Zero-point vibrational energy     368893.4 (Joules/Mol)
                                   88.16764 (Kcal/Mol)
 Warning -- explicit consideration of  11 degrees of freedom as
           vibrations may cause significant error
 Vibrational temperatures:     94.72   269.45   309.99   380.22   401.53
          (Kelvin)            474.34   498.49   557.55   617.14   729.85
                              820.67  1083.50  1255.01  1340.44  1405.51
                             1460.45  1596.23  1640.84  1694.34  1723.69
                             1757.93  1794.65  1981.36  2043.70  2062.48
                             2129.15  2148.02  2152.64  2164.53  2178.53
                             2188.09  2198.98  4309.84  4386.34  4400.75
                             4414.70  4486.65  4503.60  4520.38  4534.28
                             4538.01  5486.70

 Zero-point correction=                           0.140504 (Hartree/Particle)
 Thermal correction to Energy=                    0.148361
 Thermal correction to Enthalpy=                  0.149305
 Thermal correction to Gibbs Free Energy=         0.109263
 Sum of electronic and zero-point Energies=           -308.757180
 Sum of electronic and thermal Energies=              -308.749324
 Sum of electronic and thermal Enthalpies=            -308.748380
 Sum of electronic and thermal Free Energies=         -308.788422

                     E (Thermal)             CV                S
                      KCal/Mol        Cal/Mol-Kelvin    Cal/Mol-Kelvin
 Total                   93.098             28.119             84.275
 Electronic               0.000              0.000              0.000
 Translational            0.889              2.981             39.406
 Rotational               0.889              2.981             26.588
 Vibrational             91.320             22.157             18.281
 Vibration     1          0.597              1.971              4.274
 Vibration     2          0.632              1.857              2.255
 Vibration     3          0.645              1.817              1.997
 Vibration     4          0.671              1.738              1.633
 Vibration     5          0.679              1.712              1.539
 Vibration     6          0.712              1.616              1.262
 Vibration     7          0.724              1.582              1.182
 Vibration     8          0.756              1.497              1.010
 Vibration     9          0.790              1.407              0.862
 Vibration    10          0.862              1.234              0.640
 Vibration    11          0.926              1.095              0.503

 Normal termination of Gaussian 09 at Fri Sep 10 19:32:02 2021.
