 Gaussian 09, Revision E.01,
 Gaussian 09:  ES64L-G09RevE.01 30-Nov-2015

 --------------------------------
 #P OPT=calcfc Freq B3LYP/6-31G**
 --------------------------------

 --------
 Frag_118
 --------
 Symbolic Z-matrix:
 Charge =  0 Multiplicity = 1

 SCF Done:  E(RB3LYP) =  -248.505115379     A.U. after   14 cycles
 SCF Done:  E(RB3LYP) =  -248.516719015     A.U. after   13 cycles
 SCF Done:  E(RB3LYP) =  -248.519014471     A.U. after   13 cycles
 SCF Done:  E(RB3LYP) =  -248.519280737     A.U. after   13 cycles
 SCF Done:  E(RB3LYP) =  -248.520417063     A.U. after   12 cycles
 SCF Done:  E(RB3LYP) =  -248.520953374     A.U. after   12 cycles
 SCF Done:  E(RB3LYP) =  -248.521407839     A.U. after   11 cycles
 SCF Done:  E(RB3LYP) =  -248.521547703     A.U. after   12 cycles
 SCF Done:  E(RB3LYP) =  -248.521633195     A.U. after   12 cycles
 SCF Done:  E(RB3LYP) =  -248.521660657     A.U. after   10 cycles
 SCF Done:  E(RB3LYP) =  -248.521661066     A.U. after    8 cycles
 Optimization completed.
    -- Stationary point found.
 Normal termination of Gaussian 09 at Sat Aug 21 02:18:46 2021.

 ----------------------------------------------------------------------
 #P Geom=AllCheck Guess=TCheck SCRF=Check GenChk RB3LYP/6-31G(d,p) Freq
 ----------------------------------------------------------------------

 Structure from the checkpoint file:  "/public/home/users/caep010/.cache/gau_scr/Gau-11221.chk"
 --------
 Frag_118
 --------
 Charge =  0 Multiplicity = 1

                         Standard orientation:
 ---------------------------------------------------------------------
 Center     Atomic      Atomic             Coordinates (Angstroms)
 Number     Number       Type             X           Y           Z
 ---------------------------------------------------------------------
      1          6           0        0.408320    1.432836    0.000099
      2          7           0        0.348721   -0.018706   -0.000188
      3          6           0        1.597613   -0.752735   -0.000087
      4          6           0       -0.860955   -0.652757    0.000108
      5          8           0       -1.950657   -0.104032   -0.000122
      6          1           0        0.933970    1.801079   -0.889619
      7          1           0       -0.614288    1.809909    0.000626
      8          1           0        0.934838    1.800292    0.889591
      9          1           0        2.196871   -0.516276   -0.888792
     10          1           0        1.392876   -1.826425    0.001068
     11          1           0        2.197105   -0.514623    0.887970
     12          1           0       -0.747034   -1.754822    0.000723
 ---------------------------------------------------------------------

 SCF Done:  E(RB3LYP) =  -248.521661066     A.U. after    1 cycles

 The electronic state is 1-A.
 Alpha  occ. eigenvalues --  -19.11140 -14.37024 -10.27907 -10.23213 -10.21795
 Alpha  occ. eigenvalues --   -1.02765  -0.93831  -0.73461  -0.70179  -0.56973
 Alpha  occ. eigenvalues --   -0.51492  -0.47848  -0.46557  -0.41214  -0.41107
 Alpha  occ. eigenvalues --   -0.40121  -0.38696  -0.37234  -0.25089  -0.24196
 Alpha virt. eigenvalues --    0.03143   0.08462   0.11620   0.13661   0.14935
 Alpha virt. eigenvalues --    0.15413   0.15456   0.17033   0.20339   0.23427
 Alpha virt. eigenvalues --    0.28924   0.36989   0.47693   0.47850   0.50459

 Mulliken charges:
               1
     1  C   -0.181878
     2  N   -0.387371
     3  C   -0.172770
     4  C    0.410374
     5  O   -0.478846
     6  H    0.114456
     7  H    0.159103
     8  H    0.114433
     9  H    0.119921
    10  H    0.122637
    11  H    0.119889
    12  H    0.060052
 Sum of Mulliken charges =   0.00000

 Dipole moment (field-independent basis, Debye):
    X=              3.8151    Y=             -0.3408    Z=              0.0010  Tot=              3.8303
 Quadrupole moment (field-independent basis, Debye-Ang):
   XX=            -36.1896   YY=            -27.3698   ZZ=            -30.7421
   XY=             -0.1488   XZ=             -0.0008   YZ=             -0.0006

  Exact polarizability:  53.525   1.082  44.821  -0.002  -0.004  30.009
 Approx polarizability:  82.148  -0.161  58.149  -0.001  -0.006  41.423

                      1                      2                      3
                      A                      A                      A
 Frequencies --    122.3039               178.9874               232.2415
 Red. masses --      1.5954                 1.1218                 1.4633
 Frc consts  --      0.0141                 0.0212                 0.0465
 IR Inten    --      0.0288                 0.1673                 1.7238

                      4                      5                      6
                      A                      A                      A
 Frequencies --    323.8225               338.2338               393.0510
 Red. masses --      3.8681                 2.3608                 2.3884
 Frc consts  --      0.2390                 0.1591                 0.2174
 IR Inten    --     12.1244                16.8863                 1.5635

                      7                      8                      9
                      A                      A                      A
 Frequencies --    662.1125               879.9838              1019.8244
 Red. masses --      5.1371                 3.8659                 1.6018
 Frc consts  --      1.3269                 1.7638                 0.9815
 IR Inten    --      7.4226                 1.6607                 0.4333

                     10                     11                     12
                      A                      A                      A
 Frequencies --   1086.6447              1103.7780              1133.8016
 Red. masses --      1.3562                 1.7598                 1.2209
 Frc consts  --      0.9435                 1.2632                 0.9247
 IR Inten    --      2.5865               114.1701                 0.0538

                     13                     14                     15
                      A                      A                      A
 Frequencies --   1181.7771              1288.8381              1423.2073
 Red. masses --      1.3643                 4.4296                 1.7701
 Frc consts  --      1.1226                 4.3352                 2.1124
 IR Inten    --      2.0406                37.6867                78.2833

                     16                     17                     18
                      A                      A                      A
 Frequencies --   1440.9264              1447.3399              1480.1015
 Red. masses --      1.2453                 1.5037                 1.1950
 Frc consts  --      1.5234                 1.8559                 1.5424
 IR Inten    --     11.4884                14.9826                 7.3257

                     19                     20                     21
                      A                      A                      A
 Frequencies --   1489.5957              1513.0265              1517.4700
 Red. masses --      1.0408                 1.0433                 1.0661
 Frc consts  --      1.3607                 1.4072                 1.4465
 IR Inten    --      3.7106                13.5542                15.1314

                     22                     23                     24
                      A                      A                      A
 Frequencies --   1552.8647              1800.2088              2954.3373
 Red. masses --      1.1971                 8.2110                 1.0845
 Frc consts  --      1.7007                15.6781                 5.5772
 IR Inten    --     16.7048               394.1230                95.4677

                     25                     26                     27
                      A                      A                      A
 Frequencies --   3018.4306              3028.6001              3069.0079
 Red. masses --      1.0361                 1.0378                 1.1047
 Frc consts  --      5.5616                 5.6086                 6.1305
 IR Inten    --     46.9637                57.5244                48.3330

                     28                     29                     30
                      A                      A                      A
 Frequencies --   3078.8218              3128.3312              3169.6635
 Red. masses --      1.1049                 1.0993                 1.0979
 Frc consts  --      6.1708                 6.3385                 6.4987
 IR Inten    --     25.6217                17.5062                 1.0329

 - Thermochemistry -
 -------------------
 Temperature   298.150 Kelvin.  Pressure   1.00000 Atm.
 Atom     1 has atomic number  6 and mass  12.00000

 Molecular mass:    73.05276 amu.
 Principal axes and moments of inertia in atomic units:
                           1         2         3
     Eigenvalues --   202.55423 432.63655 612.43614
           X            0.99984  -0.01810  -0.00000
           Y            0.01810   0.99984  -0.00002
           Z            0.00000   0.00002   1.00000
 This molecule is an asymmetric top.
 Rotational symmetry number  1.
 Rotational temperatures (Kelvin)      0.42761     0.20020     0.14143
 Rotational constants (GHZ):           8.90992     4.17150     2.94682
 Zero-point vibrational energy     269502.7 (Joules/Mol)
                                   64.41269 (Kcal/Mol)
 Warning -- explicit consideration of   6 degrees of freedom as
           vibrations may cause significant error
 Vibrational temperatures:    175.97   257.52   334.14   465.91   486.64
          (Kelvin)            565.51   952.63  1266.10  1467.30  1563.44
                             1588.09  1631.29  1700.31  1854.35  2047.68
                             2073.17  2082.40  2129.53  2143.19  2176.90
                             2183.30  2234.22  2590.10  4250.63  4342.84
                             4357.47  4415.61  4429.73  4500.97  4560.43

 Zero-point correction=                           0.102648 (Hartree/Particle)
 Thermal correction to Energy=                    0.108730
 Thermal correction to Enthalpy=                  0.109674
 Thermal correction to Gibbs Free Energy=         0.073570
 Sum of electronic and zero-point Energies=           -248.419013
 Sum of electronic and thermal Energies=              -248.412932
 Sum of electronic and thermal Enthalpies=            -248.411987
 Sum of electronic and thermal Free Energies=         -248.448091

                     E (Thermal)             CV                S
                      KCal/Mol        Cal/Mol-Kelvin    Cal/Mol-Kelvin
 Total                   68.229             19.911             75.986
 Electronic               0.000              0.000              0.000
 Translational            0.889              2.981             38.782
 Rotational               0.889              2.981             25.487
 Vibrational             66.451             13.949             11.716
 Vibration     1          0.610              1.931              3.064
 Vibration     2          0.629              1.868              2.339
 Vibration     3          0.653              1.792              1.862
 Vibration     4          0.708              1.628              1.291
 Vibration     5          0.719              1.599              1.220
 Vibration     6          0.760              1.485              0.989

 Optimization completed.
    -- Stationary point found.
 Normal termination of Gaussian 09 at Sat Aug 21 02:18:55 2021.
