 Gaussian 09, Revision E.01,
 Gaussian 09:  ES64L-G09RevE.01 30-Nov-2015

 -------------------------
 #P OPT Freq B3LYP/6-31G**
 -------------------------

 --------
 Frag_275
 --------
 Symbolic Z-matrix:
 Charge =  0 Multiplicity = 1

 SCF Done:  E(RB3LYP) =  -249.708218050     A.U. after   12 cycles
 SCF Done:  E(RB3LYP) =  -249.712775340     A.U. after   11 cycles
 SCF Done:  E(RB3LYP) =  -249.713038684     A.U. after   10 cycles
 SCF Done:  E(RB3LYP) =  -249.713094204     A.U. after   10 cycles
 SCF Done:  E(RB3LYP) =  -249.713110639     A.U. after   10 cycles
 SCF Done:  E(RB3LYP) =  -249.713119248     A.U. after    9 cycles
 SCF Done:  E(RB3LYP) =  -249.713124770     A.U. after    9 cycles
 SCF Done:  E(RB3LYP) =  -249.713125597     A.U. after    7 cycles
 Optimization completed.
    -- Stationary point found.
 Normal termination of Gaussian 09 at Sat Aug 21 01:36:04 2021.

 ----------------------------------------------------------------------
 #P Geom=AllCheck Guess=TCheck SCRF=Check GenChk RB3LYP/6-31G(d,p) Freq
 ----------------------------------------------------------------------

 Structure from the checkpoint file:  "/public/home/users/caep010/.cache/gau_scr/Gau-13229.chk"
 --------
 Frag_275
 --------
 Charge =  0 Multiplicity = 1

                         Standard orientation:
 ---------------------------------------------------------------------
 Center     Atomic      Atomic             Coordinates (Angstroms)
 Number     Number       Type             X           Y           Z
 ---------------------------------------------------------------------
      1          6           0        0.794108    1.377581    0.126670
      2          6           0        0.486732   -0.043846   -0.335280
      3          8           0        1.581589   -0.930796   -0.097311
      4          6           0       -0.796002   -0.612776    0.290853
      5          7           0       -1.971843    0.174490   -0.094606
      6          1           0       -0.053796    2.036511   -0.075234
      7          1           0        0.978139    1.395513    1.209566
      8          1           0        1.684831    1.762887   -0.377523
      9          1           0        0.365575   -0.047303   -1.427206
     10          1           0        1.795346   -0.873634    0.844441
     11          1           0       -0.701842   -0.563566    1.384866
     12          1           0       -0.848476   -1.680957    0.023056
     13          1           0       -2.783247   -0.128732    0.437402
     14          1           0       -2.195366   -0.001535   -1.072093
 ---------------------------------------------------------------------

 SCF Done:  E(RB3LYP) =  -249.713125597     A.U. after    1 cycles

 The electronic state is 1-A.
 Alpha  occ. eigenvalues --  -19.13607 -14.31519 -10.22784 -10.20355 -10.16718
 Alpha  occ. eigenvalues --   -1.00956  -0.87907  -0.74503  -0.66554  -0.59139
 Alpha  occ. eigenvalues --   -0.49538  -0.47027  -0.45390  -0.42683  -0.41301
 Alpha  occ. eigenvalues --   -0.37982  -0.35929  -0.35308  -0.31126  -0.26421
 Alpha  occ. eigenvalues --   -0.23517
 Alpha virt. eigenvalues --    0.07730   0.08177   0.12210   0.14416   0.15887
 Alpha virt. eigenvalues --    0.16829   0.17501   0.18976   0.19559   0.23373
 Alpha virt. eigenvalues --    0.24824   0.26689   0.28009   0.51563   0.53212

 Mulliken charges:
               1
     1  C   -0.320202
     2  C    0.175582
     3  O   -0.544835
     4  C   -0.067123
     5  N   -0.603464
     6  H    0.129168
     7  H    0.083446
     8  H    0.108788
     9  H    0.090802
    10  H    0.295850
    11  H    0.084639
    12  H    0.088908
    13  H    0.240407
    14  H    0.238033
 Sum of Mulliken charges =  -0.00000

 Dipole moment (field-independent basis, Debye):
    X=             -1.3149    Y=             -0.2876    Z=              0.8323  Tot=              1.5826
 Quadrupole moment (field-independent basis, Debye-Ang):
   XX=            -30.5270   YY=            -34.9758   ZZ=            -29.0755
   XY=              3.9504   XZ=              3.3001   YZ=             -1.6395

  Exact polarizability:  47.833  -0.073  41.549   1.458  -1.020  42.459
 Approx polarizability:  59.684  -3.172  54.127   1.866  -1.079  61.352

                      1                      2                      3
                      A                      A                      A
 Frequencies --    129.5817               227.5408               247.2772
 Red. masses --      2.3094                 1.1316                 1.3279
 Frc consts  --      0.0228                 0.0345                 0.0478
 IR Inten    --      7.3201                31.3107                15.1136

                      4                      5                      6
                      A                      A                      A
 Frequencies --    267.7126               301.2343               403.0142
 Red. masses --      1.5404                 1.1718                 3.1922
 Frc consts  --      0.0650                 0.0626                 0.3055
 IR Inten    --      4.2310                98.1599                23.6779

                      7                      8                      9
                      A                      A                      A
 Frequencies --    448.9831               498.9282               813.9495
 Red. masses --      2.2792                 3.2209                 1.8543
 Frc consts  --      0.2707                 0.4724                 0.7238
 IR Inten    --      3.8834                 4.3818                71.7689

                     10                     11                     12
                      A                      A                      A
 Frequencies --    869.4386               918.2144               968.5345
 Red. masses --      1.5075                 1.4289                 1.6830
 Frc consts  --      0.6714                 0.7098                 0.9302
 IR Inten    --     46.3026                 7.2650                28.6800

                     13                     14                     15
                      A                      A                      A
 Frequencies --   1039.5427              1079.5101              1110.2928
 Red. masses --      1.5723                 2.8354                 1.4392
 Frc consts  --      1.0011                 1.9468                 1.0453
 IR Inten    --     45.8856                43.5925                52.0017

                     16                     17                     18
                      A                      A                      A
 Frequencies --   1146.8519              1206.0604              1304.7731
 Red. masses --      2.3107                 1.5983                 1.2495
 Frc consts  --      1.7906                 1.3698                 1.2533
 IR Inten    --      6.5877                 8.9770                 2.7637

                     19                     20                     21
                      A                      A                      A
 Frequencies --   1326.8394              1375.2159              1411.1609
 Red. masses --      1.4054                 1.3015                 1.2583
 Frc consts  --      1.4578                 1.4502                 1.4763
 IR Inten    --      7.3651                 6.1963                13.5184

                     22                     23                     24
                      A                      A                      A
 Frequencies --   1422.7003              1435.2606              1501.7900
 Red. masses --      1.3417                 1.3784                 1.0581
 Frc consts  --      1.6000                 1.6730                 1.4060
 IR Inten    --     42.1844                11.9223                 5.0412

                     25                     26                     27
                      A                      A                      A
 Frequencies --   1512.9125              1524.4981              1668.5710
 Red. masses --      1.0570                 1.0837                 1.0900
 Frc consts  --      1.4255                 1.4839                 1.7879
 IR Inten    --      4.8368                 2.3200                26.2381

                     28                     29                     30
                      A                      A                      A
 Frequencies --   2978.2667              3026.6514              3030.5278
 Red. masses --      1.0666                 1.0717                 1.0625
 Frc consts  --      5.5742                 5.7845                 5.7493
 IR Inten    --     74.5222                 3.7014                 6.1842

                     31                     32                     33
                      A                      A                      A
 Frequencies --   3049.0310              3108.8845              3146.2554
 Red. masses --      1.0901                 1.0923                 1.1026
 Frc consts  --      5.9711                 6.2200                 6.4307
 IR Inten    --     84.7301                37.0760                13.8096

                     34                     35                     36
                      A                      A                      A
 Frequencies --   3489.5222              3574.6850              3793.2627
 Red. masses --      1.0503                 1.0920                 1.0659
 Frc consts  --      7.5351                 8.2217                 9.0366
 IR Inten    --      1.0812                 0.0572                 7.4487

 - Thermochemistry -
 -------------------
 Temperature   298.150 Kelvin.  Pressure   1.00000 Atm.
 Atom     1 has atomic number  6 and mass  12.00000

 Molecular mass:    75.06841 amu.
 Principal axes and moments of inertia in atomic units:
                           1         2         3
     Eigenvalues --   231.99105 515.32692 672.52759
           X            0.99811   0.06007   0.01293
           Y           -0.05990   0.99812  -0.01319
           Z           -0.01370   0.01239   0.99983
 This molecule is an asymmetric top.
 Rotational symmetry number  1.
 Rotational temperatures (Kelvin)      0.37335     0.16808     0.12879
 Rotational constants (GHZ):           7.77936     3.50213     2.68352
 Zero-point vibrational energy     331111.2 (Joules/Mol)
                                   79.13748 (Kcal/Mol)
 Warning -- explicit consideration of   8 degrees of freedom as
           vibrations may cause significant error
 Vibrational temperatures:    186.44   327.38   355.78   385.18   433.41
          (Kelvin)            579.85   645.99   717.85  1171.09  1250.93
                             1321.10  1393.50  1495.67  1553.17  1597.46
                             1650.06  1735.25  1877.28  1909.02  1978.63
                             2030.34  2046.95  2065.02  2160.74  2176.74
                             2193.41  2400.70  4285.06  4354.67  4360.25
                             4386.87  4472.99  4526.75  5020.64  5143.17
                             5457.65

 Zero-point correction=                           0.126114 (Hartree/Particle)
 Thermal correction to Energy=                    0.132724
 Thermal correction to Enthalpy=                  0.133668
 Thermal correction to Gibbs Free Energy=         0.096687
 Sum of electronic and zero-point Energies=           -249.587012
 Sum of electronic and thermal Energies=              -249.580401
 Sum of electronic and thermal Enthalpies=            -249.579457
 Sum of electronic and thermal Free Energies=         -249.616438

                     E (Thermal)             CV                S
                      KCal/Mol        Cal/Mol-Kelvin    Cal/Mol-Kelvin
 Total                   83.286             23.289             77.833
 Electronic               0.000              0.000              0.000
 Translational            0.889              2.981             38.863
 Rotational               0.889              2.981             25.889
 Vibrational             81.508             17.328             13.081
 Vibration     1          0.612              1.924              2.952
 Vibration     2          0.651              1.799              1.898
 Vibration     3          0.661              1.767              1.750
 Vibration     4          0.673              1.732              1.611
 Vibration     5          0.693              1.671              1.410
 Vibration     6          0.768              1.464              0.952
 Vibration     7          0.808              1.363              0.799
 Vibration     8          0.854              1.252              0.661

 Normal termination of Gaussian 09 at Sat Aug 21 01:36:14 2021.
