 Gaussian 09, Revision E.01,
 Gaussian 09:  ES64L-G09RevE.01 30-Nov-2015

 -------------------------
 #P OPT Freq B3LYP/6-31G**
 -------------------------

 --------
 Frag_155
 --------
 Symbolic Z-matrix:
 Charge =  0 Multiplicity = 1

 SCF Done:  E(RB3LYP) =  -309.590695867     A.U. after   11 cycles
 SCF Done:  E(RB3LYP) =  -309.595792951     A.U. after   11 cycles
 SCF Done:  E(RB3LYP) =  -309.596151808     A.U. after   11 cycles
 SCF Done:  E(RB3LYP) =  -309.595822449     A.U. after   11 cycles
 SCF Done:  E(RB3LYP) =  -309.596287803     A.U. after   10 cycles
 SCF Done:  E(RB3LYP) =  -309.596259037     A.U. after    7 cycles
 Optimization completed.
    -- Stationary point found.
 Normal termination of Gaussian 09 at Sat Aug 21 01:39:50 2021.

 ----------------------------------------------------------------------
 #P Geom=AllCheck Guess=TCheck SCRF=Check GenChk RB3LYP/6-31G(d,p) Freq
 ----------------------------------------------------------------------

 Structure from the checkpoint file:  "/public/home/users/caep010/.cache/gau_scr/Gau-137215.chk"
 --------
 Frag_155
 --------
 Charge =  0 Multiplicity = 1

                         Standard orientation:
 ---------------------------------------------------------------------
 Center     Atomic      Atomic             Coordinates (Angstroms)
 Number     Number       Type             X           Y           Z
 ---------------------------------------------------------------------
      1          6           0       -0.812877   -1.502846    0.370797
      2          6           0        0.523372   -1.626587    0.370478
      3          6           0        1.502845   -0.812877   -0.370799
      4          6           0        1.626588    0.523371   -0.370476
      5          6           0        0.812877    1.502845    0.370798
      6          6           0       -0.523371    1.626588    0.370476
      7          6           0       -1.502846    0.812877   -0.370797
      8          6           0       -1.626587   -0.523372   -0.370477
      9          1           0       -1.385055   -2.251017    0.921193
     10          1           0        0.948646   -2.467109    0.920698
     11          1           0        2.251015   -1.385055   -0.921196
     12          1           0        2.467111    0.948645   -0.920695
     13          1           0        1.385055    2.251018    0.921192
     14          1           0       -0.948644    2.467114    0.920692
     15          1           0       -2.251020    1.385055   -0.921189
     16          1           0       -2.467112   -0.948645   -0.920694
 ---------------------------------------------------------------------

 SCF Done:  E(RB3LYP) =  -309.596259037     A.U. after    1 cycles

 The electronic state is 1-A.
 Alpha  occ. eigenvalues --  -10.19014 -10.19002 -10.19002 -10.18984 -10.18934
 Alpha  occ. eigenvalues --  -10.18914 -10.18914 -10.18902  -0.82775  -0.77468
 Alpha  occ. eigenvalues --   -0.77468  -0.69229  -0.65497  -0.56101  -0.56101
 Alpha  occ. eigenvalues --   -0.50084  -0.45069  -0.44970  -0.44970  -0.44253
 Alpha  occ. eigenvalues --   -0.41690  -0.35695  -0.35695  -0.32873  -0.30747
 Alpha  occ. eigenvalues --   -0.26633  -0.26633  -0.20407
 Alpha virt. eigenvalues --   -0.04636   0.03353   0.03353   0.09728   0.09775
 Alpha virt. eigenvalues --    0.13127   0.13127   0.15781   0.18877   0.18877
 Alpha virt. eigenvalues --    0.18962   0.19393   0.22017   0.33036   0.33036

 Mulliken charges:
               1
     1  C   -0.089129
     2  C   -0.089187
     3  C   -0.089128
     4  C   -0.089189
     5  C   -0.089129
     6  C   -0.089188
     7  C   -0.089129
     8  C   -0.089188
     9  H    0.089153
    10  H    0.089164
    11  H    0.089153
    12  H    0.089164
    13  H    0.089153
    14  H    0.089164
    15  H    0.089153
    16  H    0.089164
 Sum of Mulliken charges =  -0.00000

 Dipole moment (field-independent basis, Debye):
    X=              0.0000    Y=             -0.0000    Z=              0.0000  Tot=              0.0000
 Quadrupole moment (field-independent basis, Debye-Ang):
   XX=            -43.2691   YY=            -43.2691   ZZ=            -48.4938
   XY=             -0.0000   XZ=             -0.0000   YZ=              0.0000

  Exact polarizability:  94.776  -0.000  94.776   0.000   0.000  44.952
 Approx polarizability: 157.778  -0.000 157.778   0.000   0.000  65.448

                      1                      2                      3
                      A                      A                      A
 Frequencies --    174.2446               230.4537               259.7156
 Red. masses --      2.7372                 3.6323                 5.2639
 Frc consts  --      0.0490                 0.1137                 0.2092
 IR Inten    --      0.0000                 0.0000                 0.0000

                      4                      5                      6
                      A                      A                      A
 Frequencies --    290.3602               358.0549               358.0549
 Red. masses --      3.7899                 2.2723                 2.2723
 Frc consts  --      0.1883                 0.1716                 0.1716
 IR Inten    --      1.1452                 0.7090                 0.7090

                      7                      8                      9
                      A                      A                      A
 Frequencies --    649.8011               649.8011               668.4697
 Red. masses --      2.3303                 2.3303                 3.7251
 Frc consts  --      0.5797                 0.5797                 0.9807
 IR Inten    --     17.2990                17.2990                 0.0011

                     10                     11                     12
                      A                      A                      A
 Frequencies --    685.3390               781.8780               815.6757
 Red. masses --      1.2359                 2.0254                 2.4642
 Frc consts  --      0.3420                 0.7295                 0.9660
 IR Inten    --     72.8626                 0.0000                14.2544

                     13                     14                     15
                      A                      A                      A
 Frequencies --    815.6757               892.5555               939.2773
 Red. masses --      2.4642                 2.5891                 4.0829
 Frc consts  --      0.9660                 1.2153                 2.1223
 IR Inten    --     14.2544                 0.0000                 0.0000

                     16                     17                     18
                      A                      A                      A
 Frequencies --    962.1679               962.1680               979.0456
 Red. masses --      2.5220                 2.5220                 1.3469
 Frc consts  --      1.3756                 1.3756                 0.7606
 IR Inten    --      1.3390                 1.3390                 0.0001

                     19                     20                     21
                      A                      A                      A
 Frequencies --    998.7502               998.7503              1007.8597
 Red. masses --      1.2940                 1.2940                 1.3677
 Frc consts  --      0.7605                 0.7605                 0.8186
 IR Inten    --      0.4960                 0.4960                 0.0000

                     22                     23                     24
                      A                      A                      A
 Frequencies --   1051.5568              1245.5204              1247.8239
 Red. masses --      1.7928                 1.1361                 1.0236
 Frc consts  --      1.1680                 1.0384                 0.9391
 IR Inten    --      0.0000                 0.4382                 0.0000

                     25                     26                     27
                      A                      A                      A
 Frequencies --   1261.4193              1261.4195              1389.6419
 Red. masses --      1.0748                 1.0748                 1.2276
 Frc consts  --      1.0076                 1.0076                 1.3967
 IR Inten    --      0.9148                 0.9148                 0.0000

                     28                     29                     30
                      A                      A                      A
 Frequencies --   1439.3182              1439.3184              1479.2354
 Red. masses --      1.4362                 1.4362                 1.8362
 Frc consts  --      1.7529                 1.7529                 2.3672
 IR Inten    --      0.0005                 0.0005                 0.0000

                     31                     32                     33
                      A                      A                      A
 Frequencies --   1711.8879              1711.8880              1717.6881
 Red. masses --      7.2569                 7.2569                 4.9063
 Frc consts  --     12.5300                12.5300                 8.5289
 IR Inten    --      1.5803                 1.5803                 0.5594

                     34                     35                     36
                      A                      A                      A
 Frequencies --   1735.8677              3117.4957              3121.0613
 Red. masses --     10.9595                 1.0807                 1.0820
 Frc consts  --     19.4569                 6.1884                 6.2096
 IR Inten    --      0.0000                 0.0000                 1.2373

                     37                     38                     39
                      A                      A                      A
 Frequencies --   3121.0615              3126.6623              3137.4690
 Red. masses --      1.0820                 1.0829                 1.0918
 Frc consts  --      6.2096                 6.2375                 6.3321
 IR Inten    --      1.2372                 0.0002                42.5310

                     40                     41                     42
                      A                      A                      A
 Frequencies --   3144.7110              3144.7112              3151.7375
 Red. masses --      1.0938                 1.0938                 1.0950
 Frc consts  --      6.3728                 6.3728                 6.4085
 IR Inten    --     81.4658                81.4659                 0.0000

 - Thermochemistry -
 -------------------
 Temperature   298.150 Kelvin.  Pressure   1.00000 Atm.
 Atom     1 has atomic number  6 and mass  12.00000

 Molecular mass:   104.06260 amu.
 Principal axes and moments of inertia in atomic units:
                           1         2         3
     Eigenvalues --   672.52102 672.521111202.01458
           X            0.99971  -0.02398  -0.00000
           Y            0.02398   0.99971  -0.00000
           Z            0.00000   0.00000   1.00000
 This molecule is an asymmetric top.
 Rotational symmetry number  1.
 Warning -- assumption of classical behavior for rotation
           may cause significant error
 Rotational temperatures (Kelvin)      0.12879     0.12879     0.07206
 Rotational constants (GHZ):           2.68355     2.68355     1.50143
 Zero-point vibrational energy     348326.2 (Joules/Mol)
                                   83.25196 (Kcal/Mol)
 Warning -- explicit consideration of   6 degrees of freedom as
           vibrations may cause significant error
 Vibrational temperatures:    250.70   331.57   373.67   417.76   515.16
          (Kelvin)            515.16   934.92   934.92   961.78   986.05
                             1124.95  1173.57  1173.57  1284.19  1351.41
                             1384.34  1384.34  1408.63  1436.98  1436.98
                             1450.08  1512.95  1792.02  1795.34  1814.90
                             1814.90  1999.38  2070.86  2070.86  2128.29
                             2463.02  2463.02  2471.37  2497.52  4485.38
                             4490.51  4490.51  4498.56  4514.11  4524.53
                             4524.53  4534.64

 Zero-point correction=                           0.132670 (Hartree/Particle)
 Thermal correction to Energy=                    0.139430
 Thermal correction to Enthalpy=                  0.140374
 Thermal correction to Gibbs Free Energy=         0.102145
 Sum of electronic and zero-point Energies=           -309.463589
 Sum of electronic and thermal Energies=              -309.456829
 Sum of electronic and thermal Enthalpies=            -309.455885
 Sum of electronic and thermal Free Energies=         -309.494114

                     E (Thermal)             CV                S
                      KCal/Mol        Cal/Mol-Kelvin    Cal/Mol-Kelvin
 Total                   87.494             26.574             80.461
 Electronic               0.000              0.000              0.000
 Translational            0.889              2.981             39.837
 Rotational               0.889              2.981             27.788
 Vibrational             85.716             20.612             12.837
 Vibration     1          0.627              1.874              2.389
 Vibration     2          0.652              1.794              1.875
 Vibration     3          0.668              1.746              1.664
 Vibration     4          0.686              1.692              1.472
 Vibration     5          0.733              1.559              1.131
 Vibration     6          0.733              1.559              1.131

 Optimization completed.
    -- Stationary point found.
 Normal termination of Gaussian 09 at Sat Aug 21 01:40:07 2021.
