 Gaussian 09, Revision E.01,
 Gaussian 09:  ES64L-G09RevE.01 30-Nov-2015

 ----------------------------
 #P OPT Freq B3LYP/6-31G(d,p)
 ----------------------------

 --------
 Frag_914
 --------
 Symbolic Z-matrix:
 Charge =  0 Multiplicity = 1

 SCF Done:  E(RB3LYP) =  -305.072818863     A.U. after   13 cycles
 SCF Done:  E(RB3LYP) =  -305.072849665     A.U. after   10 cycles
 SCF Done:  E(RB3LYP) =  -305.072864706     A.U. after   10 cycles
 SCF Done:  E(RB3LYP) =  -305.072878290     A.U. after    8 cycles
 SCF Done:  E(RB3LYP) =  -305.072881890     A.U. after    8 cycles
 SCF Done:  E(RB3LYP) =  -305.072882900     A.U. after    8 cycles
 SCF Done:  E(RB3LYP) =  -305.072883204     A.U. after    7 cycles
 SCF Done:  E(RB3LYP) =  -305.072883337     A.U. after    7 cycles
 Optimization completed.
    -- Stationary point found.
 Normal termination of Gaussian 09 at Thu Sep  8 15:05:50 2022.

 ----------------------------------------------------------------------
 #P Geom=AllCheck Guess=TCheck SCRF=Check GenChk RB3LYP/6-31G(d,p) Freq
 ----------------------------------------------------------------------

 Structure from the checkpoint file:  "B3LYP6-31Gdp.Frag_914.chk"
 --------
 Frag_914
 --------
 Charge =  0 Multiplicity = 1

                         Standard orientation:
 ---------------------------------------------------------------------
 Center     Atomic      Atomic             Coordinates (Angstroms)
 Number     Number       Type             X           Y           Z
 ---------------------------------------------------------------------
      1          6           0        1.621019    1.068557    0.040959
      2          6           0        0.693788   -0.089166   -0.326343
      3          7           0        1.334119   -1.363652    0.006741
      4          6           0       -0.704313    0.067237    0.310661
      5          7           0       -1.540557   -1.060971   -0.055881
      6          8           0       -1.215389    1.333797   -0.115876
      7          1           0        2.593985    0.931499   -0.438105
      8          1           0        1.195594    2.024830   -0.267030
      9          1           0        1.782238    1.104487    1.126688
     10          1           0        0.535721   -0.074221   -1.415705
     11          1           0        0.634536   -2.099584   -0.078157
     12          1           0        1.605343   -1.351204    0.989809
     13          1           0       -0.597912    0.047540    1.407530
     14          1           0       -2.403778   -1.075572    0.480888
     15          1           0       -1.795498   -0.981344   -1.038779
     16          1           0       -2.045015    1.495786    0.352186
 ---------------------------------------------------------------------

 SCF Done:  E(RB3LYP) =  -305.072883337     A.U. after    1 cycles

 The electronic state is 1-A.
 Alpha  occ. eigenvalues --  -19.14442 -14.32439 -14.29600 -10.25592 -10.20289
 Alpha  occ. eigenvalues --  -10.16281  -1.02330  -0.88937  -0.85845  -0.72740
 Alpha  occ. eigenvalues --   -0.65544  -0.57533  -0.52564  -0.49278  -0.46667
 Alpha  occ. eigenvalues --   -0.44979  -0.42047  -0.40490  -0.37262  -0.35552
 Alpha  occ. eigenvalues --   -0.33627  -0.32892  -0.29398  -0.25027  -0.22382
 Alpha virt. eigenvalues --    0.06243   0.09781   0.10329   0.12688   0.15232
 Alpha virt. eigenvalues --    0.16757   0.17586   0.18729   0.18976   0.20334
 Alpha virt. eigenvalues --    0.22672   0.25753   0.26916   0.28742   0.29435

 Mulliken charges:
               1
     1  C   -0.312413
     2  C    0.058652
     3  N   -0.590767
     4  C    0.245100
     5  N   -0.594376
     6  O   -0.534247
     7  H    0.114195
     8  H    0.124993
     9  H    0.084776
    10  H    0.093608
    11  H    0.246803
    12  H    0.221803
    13  H    0.071897
    14  H    0.234127
    15  H    0.243598
    16  H    0.292251
 Sum of Mulliken charges =  -0.00000

 Dipole moment (field-independent basis, Debye):
    X=             -2.8702    Y=              0.2429    Z=              1.5150  Tot=              3.2546
 Quadrupole moment (field-independent basis, Debye-Ang):
   XX=            -33.8964   YY=            -41.3641   ZZ=            -35.7172
   XY=              1.5508   XZ=              0.3553   YZ=              0.2816

  Exact polarizability:  55.435   0.811  51.356   0.458  -0.057  46.086
 Approx polarizability:  68.558  -0.667  69.110   0.760  -0.615  67.990

                      1                      2                      3
                      A                      A                      A
 Frequencies --    100.3105               226.5800               247.6846
 Red. masses --      3.6403                 1.1500                 2.6118
 Frc consts  --      0.0216                 0.0348                 0.0944
 IR Inten    --      1.4447                 0.5907                 7.3039

                      4                      5                      6
                      A                      A                      A
 Frequencies --    279.8219               288.3170               325.0648
 Red. masses --      1.0512                 1.1247                 1.1838
 Frc consts  --      0.0485                 0.0551                 0.0737
 IR Inten    --     89.6452                 6.9216                61.6101

                      7                      8                      9
                      A                      A                      A
 Frequencies --    357.9718               406.3827               457.4590
 Red. masses --      2.9495                 2.0350                 2.9024
 Frc consts  --      0.2227                 0.1980                 0.3579
 IR Inten    --     11.1983                35.9618                19.3696

                     10                     11                     12
                      A                      A                      A
 Frequencies --    491.4550               563.2389               832.2447
 Red. masses --      3.1369                 2.8477                 1.9313
 Frc consts  --      0.4464                 0.5323                 0.7882
 IR Inten    --     31.7057                16.1225                45.2292

                     13                     14                     15
                      A                      A                      A
 Frequencies --    839.4088               925.9775               949.6244
 Red. masses --      1.7925                 1.7773                 1.5943
 Frc consts  --      0.7441                 0.8979                 0.8471
 IR Inten    --    102.1250               104.2245                57.2594

                     16                     17                     18
                      A                      A                      A
 Frequencies --   1017.0284              1033.8647              1064.6154
 Red. masses --      1.5107                 2.9188                 1.4887
 Frc consts  --      0.9207                 1.8382                 0.9941
 IR Inten    --     24.6769               170.9682                30.8474

                     19                     20                     21
                      A                      A                      A
 Frequencies --   1096.7661              1159.5815              1220.5172
 Red. masses --      1.8537                 2.0467                 1.6992
 Frc consts  --      1.3138                 1.6214                 1.4914
 IR Inten    --     17.3744                 9.7177                19.4307

                     22                     23                     24
                      A                      A                      A
 Frequencies --   1229.1970              1292.2752              1369.4264
 Red. masses --      1.2902                 1.5450                 1.2726
 Frc consts  --      1.1486                 1.5201                 1.4061
 IR Inten    --     48.0595                 1.4185                 2.5443

                     25                     26                     27
                      A                      A                      A
 Frequencies --   1391.5333              1398.2541              1425.6620
 Red. masses --      1.2347                 1.2320                 1.4204
 Frc consts  --      1.4087                 1.4192                 1.7009
 IR Inten    --      1.0290                 7.1614                 9.8749

                     28                     29                     30
                      A                      A                      A
 Frequencies --   1454.3352              1508.6409              1512.3058
 Red. masses --      1.5920                 1.0462                 1.0572
 Frc consts  --      1.9839                 1.4029                 1.4246
 IR Inten    --     16.7208                 6.7844                 1.2164

                     31                     32                     33
                      A                      A                      A
 Frequencies --   1667.5123              1677.3308              2990.6032
 Red. masses --      1.0985                 1.0904                 1.0827
 Frc consts  --      1.7996                 1.8075                 5.7055
 IR Inten    --     26.4501                25.1760                23.8363

                     34                     35                     36
                      A                      A                      A
 Frequencies --   3011.3455              3035.8890              3113.9329
 Red. masses --      1.0844                 1.0475                 1.0908
 Frc consts  --      5.7938                 5.6883                 6.2316
 IR Inten    --     50.1343                47.5701                30.7665

                     37                     38                     39
                      A                      A                      A
 Frequencies --   3158.4896              3464.4154              3488.7392
 Red. masses --      1.1020                 1.0498                 1.0489
 Frc consts  --      6.4772                 7.4236                 7.5216
 IR Inten    --     13.8546                 4.5185                 0.3864

                     40                     41                     42
                      A                      A                      A
 Frequencies --   3550.3147              3578.6401              3808.3331
 Red. masses --      1.0907                 1.0932                 1.0666
 Frc consts  --      8.1000                 8.2489                 9.1141
 IR Inten    --      2.6827                 0.8767                 7.9429

 - Thermochemistry -
 -------------------
 Temperature   298.150 Kelvin.  Pressure   1.00000 Atm.
 Atom     1 has atomic number  6 and mass  12.00000

 Molecular mass:    90.07931 amu.
 Principal axes and moments of inertia in atomic units:
                           1         2         3
     Eigenvalues --   397.62437 587.31836 908.52863
           X            0.99640   0.08465   0.00359
           Y           -0.08466   0.99640   0.00372
           Z           -0.00326  -0.00401   0.99999
 This molecule is an asymmetric top.
 Rotational symmetry number  1.
 Rotational temperatures (Kelvin)      0.21783     0.14747     0.09533
 Rotational constants (GHZ):           4.53881     3.07285     1.98644
 Zero-point vibrational energy     376890.0 (Joules/Mol)
                                   90.07888 (Kcal/Mol)
 Warning -- explicit consideration of  11 degrees of freedom as
           vibrations may cause significant error
 Vibrational temperatures:    144.32   326.00   356.36   402.60   414.82
          (Kelvin)            467.70   515.04   584.69   658.18   707.09
                              810.37  1197.41  1207.72  1332.27  1366.30
                             1463.28  1487.50  1531.74  1578.00  1668.38
                             1756.05  1768.54  1859.29  1970.30  2002.10
                             2011.77  2051.21  2092.46  2170.60  2175.87
                             2399.18  2413.30  4302.81  4332.65  4367.96
                             4480.25  4544.36  4984.51  5019.51  5108.10
                             5148.86  5479.34

 Zero-point correction=                           0.143550 (Hartree/Particle)
 Thermal correction to Energy=                    0.151186
 Thermal correction to Enthalpy=                  0.152130
 Thermal correction to Gibbs Free Energy=         0.112750
 Sum of electronic and zero-point Energies=           -304.929334
 Sum of electronic and thermal Energies=              -304.921697
 Sum of electronic and thermal Enthalpies=            -304.920753
 Sum of electronic and thermal Free Energies=         -304.960134

                     E (Thermal)             CV                S
                      KCal/Mol        Cal/Mol-Kelvin    Cal/Mol-Kelvin
 Total                   94.871             28.139             82.883
 Electronic               0.000              0.000              0.000
 Translational            0.889              2.981             39.407
 Rotational               0.889              2.981             26.853
 Vibrational             93.093             22.177             16.623
 Vibration     1          0.604              1.949              3.448
 Vibration     2          0.650              1.801              1.906
 Vibration     3          0.661              1.767              1.747
 Vibration     4          0.680              1.711              1.535
 Vibration     5          0.685              1.695              1.484
 Vibration     6          0.709              1.625              1.285
 Vibration     7          0.733              1.559              1.131
 Vibration     8          0.771              1.456              0.939
 Vibration     9          0.816              1.344              0.774
 Vibration    10          0.847              1.269              0.680
 Vibration    11          0.919              1.111              0.517

 Optimization completed.
    -- Stationary point found.
 Normal termination of Gaussian 09 at Thu Sep  8 15:06:03 2022.
