 Gaussian 09, Revision E.01,
 Gaussian 09:  ES64L-G09RevE.01 30-Nov-2015

 ----------------------------
 #P OPT Freq B3LYP/6-31G(d,p)
 ----------------------------

 ---------
 Frag_1080
 ---------
 Symbolic Z-matrix:
 Charge =  0 Multiplicity = 1

 SCF Done:  E(RB3LYP) =  -324.949063916     A.U. after   13 cycles
 SCF Done:  E(RB3LYP) =  -324.949117869     A.U. after   10 cycles
 SCF Done:  E(RB3LYP) =  -324.949122885     A.U. after    9 cycles
 SCF Done:  E(RB3LYP) =  -324.949126729     A.U. after    8 cycles
 SCF Done:  E(RB3LYP) =  -324.949127772     A.U. after    7 cycles
 SCF Done:  E(RB3LYP) =  -324.949128159     A.U. after    7 cycles
 SCF Done:  E(RB3LYP) =  -324.949128522     A.U. after    7 cycles
 SCF Done:  E(RB3LYP) =  -324.949128799     A.U. after    7 cycles
 SCF Done:  E(RB3LYP) =  -324.949128962     A.U. after    7 cycles
 Optimization completed.
    -- Stationary point found.
 Normal termination of Gaussian 09 at Thu Sep  8 14:52:37 2022.

 ----------------------------------------------------------------------
 #P Geom=AllCheck Guess=TCheck SCRF=Check GenChk RB3LYP/6-31G(d,p) Freq
 ----------------------------------------------------------------------

 Structure from the checkpoint file:  "B3LYP6-31Gdp.Frag_1080.chk"
 ---------
 Frag_1080
 ---------
 Charge =  0 Multiplicity = 1

                         Standard orientation:
 ---------------------------------------------------------------------
 Center     Atomic      Atomic             Coordinates (Angstroms)
 Number     Number       Type             X           Y           Z
 ---------------------------------------------------------------------
      1          6           0        2.130671    0.048084    0.073307
      2          6           0        0.877377   -0.629562   -0.480491
      3          6           0       -0.438053    0.016172   -0.003482
      4          7           0       -0.515088    1.388671   -0.429590
      5          8           0       -0.537128    0.048418    1.396947
      6          8           0       -1.552743   -0.793566   -0.426696
      7          1           0        2.189752    1.087335   -0.258238
      8          1           0        2.104189    0.049337    1.166011
      9          1           0        3.034068   -0.476907   -0.252657
     10          1           0        0.897556   -0.620625   -1.580946
     11          1           0        0.845893   -1.683188   -0.177727
     12          1           0       -1.386300    1.782417   -0.083052
     13          1           0       -0.525541    1.441702   -1.444252
     14          1           0       -0.893307   -0.813861    1.650734
     15          1           0       -1.361702   -1.133892   -1.310748
 ---------------------------------------------------------------------

 SCF Done:  E(RB3LYP) =  -324.949128962     A.U. after    1 cycles

 The electronic state is 1-A.
 Alpha  occ. eigenvalues --  -19.14757 -19.14437 -14.31440 -10.30885 -10.18617
 Alpha  occ. eigenvalues --  -10.16703  -1.06554  -0.98681  -0.87434  -0.76339
 Alpha  occ. eigenvalues --   -0.64839  -0.59801  -0.53765  -0.50719  -0.46954
 Alpha  occ. eigenvalues --   -0.43421  -0.41670  -0.40883  -0.37787  -0.35354
 Alpha  occ. eigenvalues --   -0.34039  -0.33899  -0.30784  -0.27357  -0.24442
 Alpha virt. eigenvalues --    0.05785   0.10069   0.12106   0.13762   0.13982
 Alpha virt. eigenvalues --    0.16555   0.17568   0.17906   0.19561   0.22385
 Alpha virt. eigenvalues --    0.24750   0.26896   0.27391   0.30590   0.53308

 Mulliken charges:
               1
     1  C   -0.307817
     2  C   -0.201456
     3  C    0.564052
     4  N   -0.560658
     5  O   -0.531093
     6  O   -0.563375
     7  H    0.123209
     8  H    0.123005
     9  H    0.091492
    10  H    0.074233
    11  H    0.095853
    12  H    0.251016
    13  H    0.229956
    14  H    0.314404
    15  H    0.297179
 Sum of Mulliken charges =  -0.00000

 Dipole moment (field-independent basis, Debye):
    X=             -0.2106    Y=             -1.3608    Z=             -2.1555  Tot=              2.5578
 Quadrupole moment (field-independent basis, Debye-Ang):
   XX=            -38.5665   YY=            -36.3437   ZZ=            -33.5698
   XY=             -1.9105   XZ=              0.8016   YZ=             -2.1573

  Exact polarizability:  47.916  -0.239  45.997  -0.553  -0.323  46.561
 Approx polarizability:  59.215   1.472  63.276  -1.851   0.263  66.960

                      1                      2                      3
                      A                      A                      A
 Frequencies --    119.6325               193.4177               218.2745
 Red. masses --      1.9564                 1.0914                 1.1597
 Frc consts  --      0.0165                 0.0241                 0.0326
 IR Inten    --      1.5401                65.0111                 1.1720

                      4                      5                      6
                      A                      A                      A
 Frequencies --    243.6562               282.7098               328.0904
 Red. masses --      3.5003                 1.1318                 1.0731
 Frc consts  --      0.1224                 0.0533                 0.0681
 IR Inten    --      8.2100                23.9823               146.7801

                      7                      8                      9
                      A                      A                      A
 Frequencies --    367.3969               422.7743               497.8701
 Red. masses --      3.0016                 3.1740                 2.7340
 Frc consts  --      0.2387                 0.3343                 0.3993
 IR Inten    --      8.8362                17.1516                 9.1517

                     10                     11                     12
                      A                      A                      A
 Frequencies --    523.1491               580.1787               780.4367
 Red. masses --      3.1083                 3.8693                 3.7000
 Frc consts  --      0.5012                 0.7674                 1.3278
 IR Inten    --      7.4185                35.1794                 8.3847

                     13                     14                     15
                      A                      A                      A
 Frequencies --    806.8261               849.0738               972.4874
 Red. masses --      1.2631                 1.5883                 2.5883
 Frc consts  --      0.4845                 0.6746                 1.4422
 IR Inten    --      3.5107               121.7241               126.7372

                     16                     17                     18
                      A                      A                      A
 Frequencies --    980.9750              1042.1105              1054.7832
 Red. masses --      2.3876                 2.2030                 1.4832
 Frc consts  --      1.3537                 1.4096                 0.9723
 IR Inten    --     65.2137                50.7522                31.2192

                     19                     20                     21
                      A                      A                      A
 Frequencies --   1109.1539              1196.0802              1211.9781
 Red. masses --      1.8627                 1.1991                 2.1362
 Frc consts  --      1.3501                 1.0107                 1.8488
 IR Inten    --     52.1801                22.9920               159.7956

                     22                     23                     24
                      A                      A                      A
 Frequencies --   1287.6824              1377.1785              1392.9885
 Red. masses --      1.2087                 1.4868                 1.8429
 Frc consts  --      1.1808                 1.6614                 2.1069
 IR Inten    --     32.9834                 8.2890                78.4155

                     25                     26                     27
                      A                      A                      A
 Frequencies --   1420.9109              1439.8390              1497.2936
 Red. masses --      1.4749                 1.6927                 1.0776
 Frc consts  --      1.7544                 2.0675                 1.4234
 IR Inten    --     25.6468                73.2389                 1.0416

                     28                     29                     30
                      A                      A                      A
 Frequencies --   1504.6088              1527.0959              1653.3854
 Red. masses --      1.0418                 1.0620                 1.1145
 Frc consts  --      1.3896                 1.4591                 1.7950
 IR Inten    --      2.1576                 9.7738                38.7439

                     31                     32                     33
                      A                      A                      A
 Frequencies --   3009.5874              3057.8316              3069.2689
 Red. masses --      1.0671                 1.0371                 1.0954
 Frc consts  --      5.6947                 5.7136                 6.0796
 IR Inten    --     38.2829                27.2274                26.3704

                     34                     35                     36
                      A                      A                      A
 Frequencies --   3129.8263              3146.3930              3507.1212
 Red. masses --      1.1008                 1.1029                 1.0490
 Frc consts  --      6.3535                 6.4330                 7.6017
 IR Inten    --     25.2632                21.7139                 1.6046

                     37                     38                     39
                      A                      A                      A
 Frequencies --   3601.5116              3816.1535              3824.7251
 Red. masses --      1.0935                 1.0665                 1.0648
 Frc consts  --      8.3564                 9.1508                 9.1777
 IR Inten    --      1.4571                17.0005                34.0637

 - Thermochemistry -
 -------------------
 Temperature   298.150 Kelvin.  Pressure   1.00000 Atm.
 Atom     1 has atomic number  6 and mass  12.00000

 Molecular mass:    91.06333 amu.
 Principal axes and moments of inertia in atomic units:
                           1         2         3
     Eigenvalues --   371.05922 669.95228 684.52439
           X            0.99972  -0.02043   0.01167
           Y            0.02254   0.97362  -0.22706
           Z           -0.00672   0.22726   0.97381
 This molecule is an asymmetric top.
 Rotational symmetry number  1.
 Rotational temperatures (Kelvin)      0.23342     0.12928     0.12653
 Rotational constants (GHZ):           4.86376     2.69384     2.63649
 Zero-point vibrational energy     341201.6 (Joules/Mol)
                                   81.54914 (Kcal/Mol)
 Warning -- explicit consideration of  11 degrees of freedom as
           vibrations may cause significant error
 Vibrational temperatures:    172.12   278.28   314.05   350.57   406.76
          (Kelvin)            472.05   528.60   608.28   716.32   752.69
                              834.75  1122.87  1160.84  1221.63  1399.19
                             1411.40  1499.36  1517.60  1595.82  1720.89
                             1743.76  1852.69  1981.45  2004.20  2044.37
                             2071.60  2154.27  2164.79  2197.15  2378.85
                             4330.12  4399.53  4415.99  4503.12  4526.95
                             5045.96  5181.77  5490.59  5502.92

 Zero-point correction=                           0.129957 (Hartree/Particle)
 Thermal correction to Energy=                    0.137632
 Thermal correction to Enthalpy=                  0.138576
 Thermal correction to Gibbs Free Energy=         0.099201
 Sum of electronic and zero-point Energies=           -324.819172
 Sum of electronic and thermal Energies=              -324.811497
 Sum of electronic and thermal Enthalpies=            -324.810553
 Sum of electronic and thermal Free Energies=         -324.849928

                     E (Thermal)             CV                S
                      KCal/Mol        Cal/Mol-Kelvin    Cal/Mol-Kelvin
 Total                   86.365             28.007             82.871
 Electronic               0.000              0.000              0.000
 Translational            0.889              2.981             39.439
 Rotational               0.889              2.981             26.634
 Vibrational             84.588             22.045             16.798
 Vibration     1          0.609              1.933              3.106
 Vibration     2          0.635              1.849              2.195
 Vibration     3          0.646              1.813              1.973
 Vibration     4          0.659              1.773              1.776
 Vibration     5          0.682              1.706              1.517
 Vibration     6          0.711              1.619              1.269
 Vibration     7          0.740              1.539              1.091
 Vibration     8          0.785              1.421              0.883
 Vibration     9          0.853              1.255              0.663
 Vibration    10          0.878              1.199              0.603
 Vibration    11          0.937              1.074              0.485

 Normal termination of Gaussian 09 at Thu Sep  8 14:52:49 2022.
