 Gaussian 09, Revision E.01,
 Gaussian 09:  ES64L-G09RevE.01 30-Nov-2015

 ----------------------------
 #P OPT Freq B3LYP/6-31G(d,p)
 ----------------------------

 --------
 Frag_699
 --------
 Symbolic Z-matrix:
 Charge =  0 Multiplicity = 1

 SCF Done:  E(RB3LYP) =  -206.506017042     A.U. after   12 cycles
 SCF Done:  E(RB3LYP) =  -206.506043659     A.U. after   10 cycles
 SCF Done:  E(RB3LYP) =  -206.506048074     A.U. after    8 cycles
 SCF Done:  E(RB3LYP) =  -206.506049246     A.U. after    7 cycles
 SCF Done:  E(RB3LYP) =  -206.506049423     A.U. after    7 cycles
 Optimization completed.
    -- Stationary point found.
 Normal termination of Gaussian 09 at Thu Sep  8 15:16:27 2022.

 ----------------------------------------------------------------------
 #P Geom=AllCheck Guess=TCheck SCRF=Check GenChk RB3LYP/6-31G(d,p) Freq
 ----------------------------------------------------------------------

 Structure from the checkpoint file:  "B3LYP6-31Gdp.Frag_699.chk"
 --------
 Frag_699
 --------
 Charge =  0 Multiplicity = 1

                         Standard orientation:
 ---------------------------------------------------------------------
 Center     Atomic      Atomic             Coordinates (Angstroms)
 Number     Number       Type             X           Y           Z
 ---------------------------------------------------------------------
      1          6           0        1.454424    0.490736    0.092331
      2          7           0        0.638010   -0.684771   -0.200642
      3          7           0       -0.728140   -0.646922    0.211190
      4          7           0       -1.484986    0.538089   -0.040974
      5          1           0        1.105997    1.438739   -0.352093
      6          1           0        1.517899    0.627250    1.177967
      7          1           0        2.466372    0.305765   -0.279403
      8          1           0        0.644234   -0.888649   -1.196375
      9          1           0       -0.731651   -0.783822    1.217790
     10          1           0       -0.940340    1.390054    0.109994
     11          1           0       -1.763244    0.521478   -1.018878
 ---------------------------------------------------------------------

 SCF Done:  E(RB3LYP) =  -206.506049423     A.U. after    1 cycles

 The electronic state is 1-A.
 Alpha  occ. eigenvalues --  -14.36428 -14.34274 -14.33772 -10.20910  -0.98940
 Alpha  occ. eigenvalues --   -0.86188  -0.73871  -0.65225  -0.51347  -0.48698
 Alpha  occ. eigenvalues --   -0.46783  -0.45764  -0.40839  -0.38660  -0.26871
 Alpha  occ. eigenvalues --   -0.23856  -0.22541
 Alpha virt. eigenvalues --    0.07027   0.11208   0.11349   0.13684   0.15046
 Alpha virt. eigenvalues --    0.16813   0.18961   0.21024   0.22200   0.29049
 Alpha virt. eigenvalues --    0.53757   0.54983   0.57788   0.65609   0.68938

 Mulliken charges:
               1
     1  C   -0.181317
     2  N   -0.371963
     3  N   -0.283048
     4  N   -0.467094
     5  H    0.077190
     6  H    0.113752
     7  H    0.117840
     8  H    0.245278
     9  H    0.268978
    10  H    0.230439
    11  H    0.249944
 Sum of Mulliken charges =   0.00000

 Dipole moment (field-independent basis, Debye):
    X=              1.3546    Y=              1.7483    Z=             -0.8846  Tot=              2.3820
 Quadrupole moment (field-independent basis, Debye-Ang):
   XX=            -28.7923   YY=            -27.2403   ZZ=            -21.7559
   XY=              0.2457   XZ=              0.8916   YZ=             -0.3608

  Exact polarizability:  38.837  -0.573  31.849   0.161  -0.161  31.614
 Approx polarizability:  49.018  -1.529  44.690  -0.439  -0.152  43.450

                      1                      2                      3
                      A                      A                      A
 Frequencies --    177.7216               249.4736               337.9823
 Red. masses --      1.4436                 1.2148                 2.2258
 Frc consts  --      0.0269                 0.0445                 0.1498
 IR Inten    --      2.9025                 1.5657                 4.4441

                      4                      5                      6
                      A                      A                      A
 Frequencies --    446.3541               560.7679               721.0513
 Red. masses --      1.3855                 2.6048                 2.3551
 Frc consts  --      0.1626                 0.4826                 0.7214
 IR Inten    --     33.3108                16.2315               104.3390

                      7                      8                      9
                      A                      A                      A
 Frequencies --    765.4508               909.6443               976.3952
 Red. masses --      1.5415                 1.5649                 1.5206
 Frc consts  --      0.5321                 0.7629                 0.8541
 IR Inten    --    159.3804                70.8462                22.9954

                     10                     11                     12
                      A                      A                      A
 Frequencies --   1093.2148              1129.8209              1144.0151
 Red. masses --      4.5619                 2.0352                 1.4629
 Frc consts  --      3.2122                 1.5306                 1.1280
 IR Inten    --      6.7079                46.4471                 3.3042

                     13                     14                     15
                      A                      A                      A
 Frequencies --   1210.1471              1307.3051              1448.9397
 Red. masses --      1.5506                 1.3213                 1.1839
 Frc consts  --      1.3379                 1.3305                 1.4645
 IR Inten    --     13.8215                 5.9570                 0.2580

                     16                     17                     18
                      A                      A                      A
 Frequencies --   1463.6174              1499.3447              1528.4734
 Red. masses --      1.1486                 1.0584                 1.0516
 Frc consts  --      1.4497                 1.4019                 1.4475
 IR Inten    --      0.6632                 7.7413                 4.6315

                     19                     20                     21
                      A                      A                      A
 Frequencies --   1548.6312              1685.6289              2962.8412
 Red. masses --      1.0635                 1.0676                 1.0569
 Frc consts  --      1.5027                 1.7873                 5.4666
 IR Inten    --      1.4099                10.1205                70.7666

                     22                     23                     24
                      A                      A                      A
 Frequencies --   3069.0257              3120.4808              3420.7237
 Red. masses --      1.0778                 1.1013                 1.0512
 Frc consts  --      5.9812                 6.3184                 7.2469
 IR Inten    --     35.2642                22.5975                14.5887

                     25                     26                     27
                      A                      A                      A
 Frequencies --   3516.3026              3537.8145              3553.9147
 Red. masses --      1.0746                 1.0783                 1.0867
 Frc consts  --      7.8283                 7.9520                 8.0868
 IR Inten    --      1.8156                 1.0168                 0.2283

 - Thermochemistry -
 -------------------
 Temperature   298.150 Kelvin.  Pressure   1.00000 Atm.
 Atom     1 has atomic number  6 and mass  12.00000

 Molecular mass:    61.06400 amu.
 Principal axes and moments of inertia in atomic units:
                           1         2         3
     Eigenvalues --   115.53880 324.61752 390.85973
           X            0.99976   0.01995   0.00928
           Y           -0.01989   0.99978  -0.00676
           Z           -0.00941   0.00657   0.99993
 This molecule is an asymmetric top.
 Rotational symmetry number  1.
 Rotational temperatures (Kelvin)      0.74965     0.26682     0.22160
 Rotational constants (GHZ):          15.62022     5.55959     4.61736
 Zero-point vibrational energy     259500.4 (Joules/Mol)
                                   62.02209 (Kcal/Mol)
 Warning -- explicit consideration of   5 degrees of freedom as
           vibrations may cause significant error
 Vibrational temperatures:    255.70   358.94   486.28   642.20   806.82
          (Kelvin)           1037.43  1101.31  1308.77  1404.81  1572.89
                             1625.56  1645.98  1741.13  1880.92  2084.70
                             2105.82  2157.22  2199.13  2228.13  2425.24
                             4262.86  4415.64  4489.67  4921.65  5059.17
                             5090.12  5113.28

 Zero-point correction=                           0.098838 (Hartree/Particle)
 Thermal correction to Energy=                    0.103988
 Thermal correction to Enthalpy=                  0.104932
 Thermal correction to Gibbs Free Energy=         0.071605
 Sum of electronic and zero-point Energies=           -206.407211
 Sum of electronic and thermal Energies=              -206.402061
 Sum of electronic and thermal Enthalpies=            -206.401117
 Sum of electronic and thermal Free Energies=         -206.434444

                     E (Thermal)             CV                S
                      KCal/Mol        Cal/Mol-Kelvin    Cal/Mol-Kelvin
 Total                   65.254             17.618             70.143
 Electronic               0.000              0.000              0.000
 Translational            0.889              2.981             38.248
 Rotational               0.889              2.981             24.198
 Vibrational             63.476             11.656              7.697
 Vibration     1          0.628              1.870              2.352
 Vibration     2          0.662              1.764              1.734
 Vibration     3          0.718              1.600              1.222
 Vibration     4          0.806              1.369              0.807
 Vibration     5          0.916              1.116              0.522

 Optimization completed.
    -- Stationary point found.
 Normal termination of Gaussian 09 at Thu Sep  8 15:16:34 2022.
