 Gaussian 09, Revision E.01,
 Gaussian 09:  ES64L-G09RevE.01 30-Nov-2015

 ----------------------------
 #P OPT Freq B3LYP/6-31G(d,p)
 ----------------------------

 ---------
 Frag_1082
 ---------
 Symbolic Z-matrix:
 Charge =  0 Multiplicity = 1

 SCF Done:  E(RB3LYP) =  -323.653035112     A.U. after   15 cycles
 SCF Done:  E(RB3LYP) =  -323.653130966     A.U. after   10 cycles
 SCF Done:  E(RB3LYP) =  -323.653130354     A.U. after   10 cycles
 SCF Done:  E(RB3LYP) =  -323.653131424     A.U. after    9 cycles
 SCF Done:  E(RB3LYP) =  -323.653131508     A.U. after    8 cycles
 Optimization completed.
    -- Stationary point found.
 Normal termination of Gaussian 09 at Thu Sep  8 14:53:11 2022.

 ----------------------------------------------------------------------
 #P Geom=AllCheck Guess=TCheck SCRF=Check GenChk RB3LYP/6-31G(d,p) Freq
 ----------------------------------------------------------------------

 Structure from the checkpoint file:  "B3LYP6-31Gdp.Frag_1082.chk"
 ---------
 Frag_1082
 ---------
 Charge =  0 Multiplicity = 1

                         Standard orientation:
 ---------------------------------------------------------------------
 Center     Atomic      Atomic             Coordinates (Angstroms)
 Number     Number       Type             X           Y           Z
 ---------------------------------------------------------------------
      1          6           0        1.803009    0.272599   -0.725579
      2          7           0        0.803391   -0.069775    0.046935
      3          8           0        0.900655   -0.650120    1.165314
      4          6           0       -0.617363    0.262864   -0.405623
      5          6           0       -1.431718   -1.012794   -0.448659
      6          8           0       -1.207695    1.129968    0.512264
      7          1           0        2.802695    0.027214   -0.396677
      8          1           0        1.604275    0.775483   -1.660150
      9          1           0       -0.514760    0.716706   -1.400775
     10          1           0       -2.465086   -0.770063   -0.705713
     11          1           0       -1.396986   -1.480582    0.536228
     12          1           0       -1.027921   -1.703238   -1.193575
     13          1           0       -0.693203    1.948110    0.550660
 ---------------------------------------------------------------------

 SCF Done:  E(RB3LYP) =  -323.653131508     A.U. after    1 cycles

 The electronic state is 1-A.
 Alpha  occ. eigenvalues --  -19.17082 -19.12113 -14.47395 -10.29048 -10.22300
 Alpha  occ. eigenvalues --  -10.18587  -1.10845  -1.04681  -0.85566  -0.77189
 Alpha  occ. eigenvalues --   -0.66295  -0.58987  -0.55010  -0.52547  -0.47458
 Alpha  occ. eigenvalues --   -0.46517  -0.42821  -0.40509  -0.39709  -0.38245
 Alpha  occ. eigenvalues --   -0.35559  -0.30947  -0.24133  -0.22384
 Alpha virt. eigenvalues --   -0.02306   0.06313   0.09492   0.13055   0.13310
 Alpha virt. eigenvalues --    0.15592   0.16630   0.17352   0.19164   0.21665
 Alpha virt. eigenvalues --    0.23821   0.28051   0.31726   0.48969   0.52467

 Mulliken charges:
               1
     1  C   -0.119709
     2  N    0.100948
     3  O   -0.481230
     4  C    0.267030
     5  C   -0.319791
     6  O   -0.497785
     7  H    0.136045
     8  H    0.114748
     9  H    0.084563
    10  H    0.124830
    11  H    0.161352
    12  H    0.112696
    13  H    0.316302
 Sum of Mulliken charges =  -0.00000

 Dipole moment (field-independent basis, Debye):
    X=              0.0981    Y=              1.8956    Z=             -3.3465  Tot=              3.8473
 Quadrupole moment (field-independent basis, Debye-Ang):
   XX=            -35.7753   YY=            -32.8719   ZZ=            -37.9718
   XY=              2.7035   XZ=             -1.3450   YZ=              1.1408

  Exact polarizability:  55.277   3.572  40.244  -6.100  -6.019  48.032
 Approx polarizability:  74.889   7.683  59.391 -19.146 -20.268  91.239

                      1                      2                      3
                      A                      A                      A
 Frequencies --     55.5543               218.2600               263.6244
 Red. masses --      3.9019                 1.1142                 2.2405
 Frc consts  --      0.0071                 0.0313                 0.0917
 IR Inten    --      1.4907                 5.5272                 6.4074

                      4                      5                      6
                      A                      A                      A
 Frequencies --    314.9899               361.4374               375.0461
 Red. masses --      4.7717                 1.2985                 2.7025
 Frc consts  --      0.2789                 0.0999                 0.2240
 IR Inten    --      9.7292               104.1859                18.6830

                      7                      8                      9
                      A                      A                      A
 Frequencies --    518.0153               616.2340               663.2742
 Red. masses --      2.8452                 1.8394                 2.1476
 Frc consts  --      0.4498                 0.4115                 0.5567
 IR Inten    --      8.8410                 3.0525                19.9720

                     10                     11                     12
                      A                      A                      A
 Frequencies --    708.2944               751.8840               787.1662
 Red. masses --      1.7839                 2.4381                 1.8613
 Frc consts  --      0.5273                 0.8121                 0.6795
 IR Inten    --     26.6256                 7.7624                32.1596

                     13                     14                     15
                      A                      A                      A
 Frequencies --    944.1446              1042.7110              1090.6444
 Red. masses --      2.0066                 1.7236                 1.7253
 Frc consts  --      1.0539                 1.1041                 1.2092
 IR Inten    --     13.6227                37.4212                33.2385

                     16                     17                     18
                      A                      A                      A
 Frequencies --   1120.8204              1185.1116              1288.4144
 Red. masses --      2.0211                 2.3797                 1.3121
 Frc consts  --      1.4959                 1.9692                 1.2833
 IR Inten    --     41.7348                59.9883                69.2969

                     19                     20                     21
                      A                      A                      A
 Frequencies --   1342.3122              1353.8364              1401.6786
 Red. masses --      2.5914                 1.2603                 1.2397
 Frc consts  --      2.7510                 1.3610                 1.4351
 IR Inten    --     62.8169                45.7606                 3.3427

                     22                     23                     24
                      A                      A                      A
 Frequencies --   1450.4632              1489.6869              1497.6155
 Red. masses --      1.5514                 1.2130                 1.1933
 Frc consts  --      1.9231                 1.5860                 1.5769
 IR Inten    --     27.3140                11.6414                 2.1620

                     25                     26                     27
                      A                      A                      A
 Frequencies --   1509.4675              1647.3920              3027.9013
 Red. masses --      1.0523                 6.1701                 1.0851
 Frc consts  --      1.4127                 9.8660                 5.8617
 IR Inten    --      1.2334               127.4185                41.3285

                     28                     29                     30
                      A                      A                      A
 Frequencies --   3072.2810              3150.8151              3173.2579
 Red. masses --      1.0352                 1.1036                 1.1033
 Frc consts  --      5.7569                 6.4554                 6.5455
 IR Inten    --      9.6587                13.7086                 2.9737

                     31                     32                     33
                      A                      A                      A
 Frequencies --   3202.0764              3328.0247              3804.1228
 Red. masses --      1.0513                 1.1251                 1.0663
 Frc consts  --      6.3510                 7.3420                 9.0912
 IR Inten    --      0.9139                 1.0339                21.2539

 - Thermochemistry -
 -------------------
 Temperature   298.150 Kelvin.  Pressure   1.00000 Atm.
 Atom     1 has atomic number  6 and mass  12.00000

 Molecular mass:    89.04768 amu.
 Principal axes and moments of inertia in atomic units:
                           1         2         3
     Eigenvalues --   341.06340 636.07043 663.91323
           X            0.99786   0.06475  -0.00870
           Y           -0.06406   0.99585   0.06460
           Z            0.01285  -0.06391   0.99787
 This molecule is an asymmetric top.
 Rotational symmetry number  1.
 Rotational temperatures (Kelvin)      0.25395     0.13617     0.13046
 Rotational constants (GHZ):           5.29151     2.83733     2.71834
 Zero-point vibrational energy     279666.3 (Joules/Mol)
                                   66.84185 (Kcal/Mol)
 Warning -- explicit consideration of   8 degrees of freedom as
           vibrations may cause significant error
 Vibrational temperatures:     79.93   314.03   379.30   453.20   520.03
          (Kelvin)            539.61   745.31   886.62   954.30  1019.08
                             1081.79  1132.56  1358.41  1500.23  1569.19
                             1612.61  1705.11  1853.74  1931.29  1947.87
                             2016.70  2086.89  2143.32  2154.73  2171.78
                             2370.23  4356.47  4420.32  4533.31  4565.60
                             4607.07  4788.28  5473.28

 Zero-point correction=                           0.106519 (Hartree/Particle)
 Thermal correction to Energy=                    0.113241
 Thermal correction to Enthalpy=                  0.114185
 Thermal correction to Gibbs Free Energy=         0.076062
 Sum of electronic and zero-point Energies=           -323.546612
 Sum of electronic and thermal Energies=              -323.539891
 Sum of electronic and thermal Enthalpies=            -323.538947
 Sum of electronic and thermal Free Energies=         -323.577069

                     E (Thermal)             CV                S
                      KCal/Mol        Cal/Mol-Kelvin    Cal/Mol-Kelvin
 Total                   71.060             23.949             80.236
 Electronic               0.000              0.000              0.000
 Translational            0.889              2.981             39.372
 Rotational               0.889              2.981             26.468
 Vibrational             69.282             17.988             14.395
 Vibration     1          0.596              1.975              4.609
 Vibration     2          0.646              1.813              1.973
 Vibration     3          0.670              1.740              1.638
 Vibration     4          0.702              1.645              1.336
 Vibration     5          0.736              1.552              1.116
 Vibration     6          0.746              1.523              1.059
 Vibration     7          0.873              1.210              0.615
 Vibration     8          0.976              0.998              0.423

 Optimization completed.
    -- Stationary point found.
 Normal termination of Gaussian 09 at Thu Sep  8 14:53:21 2022.
