 Gaussian 09, Revision E.01,
 Gaussian 09:  ES64L-G09RevE.01 30-Nov-2015

 --------------------------------
 #P OPT=calcfc Freq B3LYP/6-31G**
 --------------------------------

 --------
 Frag_414
 --------
 Symbolic Z-matrix:
 Charge =  0 Multiplicity = 1

 SCF Done:  E(RB3LYP) =  -283.970832269     A.U. after   14 cycles
 SCF Done:  E(RB3LYP) =  -283.990723211     A.U. after   13 cycles
 SCF Done:  E(RB3LYP) =  -283.989260271     A.U. after   13 cycles
 SCF Done:  E(RB3LYP) =  -283.991120345     A.U. after   11 cycles
 SCF Done:  E(RB3LYP) =  -283.991780463     A.U. after   12 cycles
 SCF Done:  E(RB3LYP) =  -283.989905195     A.U. after   13 cycles
 SCF Done:  E(RB3LYP) =  -283.992439162     A.U. after   11 cycles
 SCF Done:  E(RB3LYP) =  -283.953852106     A.U. after   13 cycles
 SCF Done:  E(RB3LYP) =  -283.992700384     A.U. after    9 cycles
 SCF Done:  E(RB3LYP) =  -283.993107880     A.U. after   12 cycles
 SCF Done:  E(RB3LYP) =  -283.993989665     A.U. after   12 cycles
 SCF Done:  E(RB3LYP) =  -283.994304468     A.U. after   12 cycles
 SCF Done:  E(RB3LYP) =  -283.994798350     A.U. after   11 cycles
 SCF Done:  E(RB3LYP) =  -283.994862361     A.U. after   13 cycles
 SCF Done:  E(RB3LYP) =  -283.994870802     A.U. after   11 cycles
 SCF Done:  E(RB3LYP) =  -283.995073245     A.U. after   11 cycles
 SCF Done:  E(RB3LYP) =  -283.995081619     A.U. after   10 cycles
 SCF Done:  E(RB3LYP) =  -283.995084157     A.U. after    9 cycles
 SCF Done:  E(RB3LYP) =  -283.995084579     A.U. after    8 cycles
 Optimization completed.
    -- Stationary point found.
 Normal termination of Gaussian 09 at Fri Sep 10 21:24:59 2021.

 ----------------------------------------------------------------------
 #P Geom=AllCheck Guess=TCheck SCRF=Check GenChk RB3LYP/6-31G(d,p) Freq
 ----------------------------------------------------------------------

 Structure from the checkpoint file:  "/public/home/users/caep010/.cache/gau_scr/Gau-117272.chk"
 --------
 Frag_414
 --------
 Charge =  0 Multiplicity = 1

                         Standard orientation:
 ---------------------------------------------------------------------
 Center     Atomic      Atomic             Coordinates (Angstroms)
 Number     Number       Type             X           Y           Z
 ---------------------------------------------------------------------
      1          6           0       -1.476172   -1.084569    0.182767
      2          7           0       -0.598661    0.077307    0.231906
      3          6           0       -1.218375    1.297096   -0.278787
      4          6           0        0.755630   -0.162796    0.005666
      5          7           0        1.165140   -1.345286   -0.288726
      6          7           0        1.557246    0.986747    0.128313
      7          1           0       -2.423104   -0.827570    0.668440
      8          1           0       -1.007966   -1.917521    0.705268
      9          1           0       -1.683851   -1.408349   -0.847909
     10          1           0       -2.066098    1.574400    0.357059
     11          1           0       -1.593575    1.163871   -1.306278
     12          1           0       -0.504858    2.119411   -0.290492
     13          1           0        2.184983   -1.386180   -0.277312
     14          1           0        1.315635    1.575190    0.917252
     15          1           0        2.546265    0.776981    0.115638
 ---------------------------------------------------------------------

 SCF Done:  E(RB3LYP) =  -283.995084579     A.U. after    1 cycles

 The electronic state is 1-A.
 Alpha  occ. eigenvalues --  -14.34239 -14.34230 -14.27626 -10.27033 -10.21035
 Alpha  occ. eigenvalues --  -10.19577  -0.96995  -0.88724  -0.83414  -0.70522
 Alpha  occ. eigenvalues --   -0.67331  -0.55225  -0.52009  -0.50598  -0.45741
 Alpha  occ. eigenvalues --   -0.44735  -0.42516  -0.38955  -0.38452  -0.36720
 Alpha  occ. eigenvalues --   -0.35695  -0.25591  -0.24203  -0.21218
 Alpha virt. eigenvalues --    0.05326   0.07761   0.11088   0.12047   0.15216
 Alpha virt. eigenvalues --    0.15849   0.16827   0.17421   0.19127   0.19676
 Alpha virt. eigenvalues --    0.20179   0.24469   0.28309   0.35973   0.43656

 Mulliken charges:
               1
     1  C   -0.145414
     2  N   -0.441737
     3  C   -0.171783
     4  C    0.588948
     5  N   -0.597263
     6  N   -0.626040
     7  H    0.092242
     8  H    0.140666
     9  H    0.106428
    10  H    0.110121
    11  H    0.107083
    12  H    0.122168
    13  H    0.199900
    14  H    0.260161
    15  H    0.254519
 Sum of Mulliken charges =  -0.00000

 Dipole moment (field-independent basis, Debye):
    X=              0.4533    Y=              2.3622    Z=              1.2018  Tot=              2.6888
 Quadrupole moment (field-independent basis, Debye-Ang):
   XX=            -29.6223   YY=            -39.6328   ZZ=            -38.5520
   XY=              1.6470   XZ=              2.0750   YZ=              0.6604

  Exact polarizability:  64.535  -3.584  58.777  -0.891   3.472  36.701
 Approx polarizability:  83.034  -7.873  87.615  -3.487   7.885  52.893

                      1                      2                      3
                      A                      A                      A
 Frequencies --    105.0214               133.2654               182.5733
 Red. masses --      3.4652                 1.1904                 1.1112
 Frc consts  --      0.0225                 0.0125                 0.0218
 IR Inten    --      4.6428                 2.4159                 0.9291

                      4                      5                      6
                      A                      A                      A
 Frequencies --    267.0374               329.1126               366.1789
 Red. masses --      2.0969                 2.7103                 1.0993
 Frc consts  --      0.0881                 0.1730                 0.0869
 IR Inten    --     19.5001                 0.5094                31.6978

                      7                      8                      9
                      A                      A                      A
 Frequencies --    411.3684               505.2998               577.0330
 Red. masses --      2.2624                 2.9351                 4.2291
 Frc consts  --      0.2256                 0.4415                 0.8297
 IR Inten    --      0.7731                 6.7538                45.0660

                     10                     11                     12
                      A                      A                      A
 Frequencies --    618.1779               749.6775               774.9613
 Red. masses --      1.4404                 2.5123                 3.0240
 Frc consts  --      0.3243                 0.8319                 1.0700
 IR Inten    --    127.6982                 8.3824                29.8115

                     13                     14                     15
                      A                      A                      A
 Frequencies --    804.9009              1020.1540              1083.9224
 Red. masses --      1.4785                 2.5310                 1.4363
 Frc consts  --      0.5644                 1.5519                 0.9942
 IR Inten    --    124.7360                13.4731                10.3636

                     16                     17                     18
                      A                      A                      A
 Frequencies --   1109.3775              1130.3478              1135.5766
 Red. masses --      1.8281                 1.2423                 1.1931
 Frc consts  --      1.3256                 0.9352                 0.9065
 IR Inten    --    138.6092                 8.3469                46.3281

                     19                     20                     21
                      A                      A                      A
 Frequencies --   1179.4990              1264.4326              1313.5212
 Red. masses --      1.4106                 4.1276                 2.0083
 Frc consts  --      1.1563                 3.8882                 2.0415
 IR Inten    --      6.2148                 8.3768                41.4805

                     22                     23                     24
                      A                      A                      A
 Frequencies --   1445.7742              1451.9024              1488.2219
 Red. masses --      1.9134                 1.1435                 1.1582
 Frc consts  --      2.3565                 1.4202                 1.5113
 IR Inten    --    101.7575                 1.0357                46.1210

                     25                     26                     27
                      A                      A                      A
 Frequencies --   1495.3037              1511.5037              1517.0662
 Red. masses --      1.1388                 1.1564                 1.0630
 Frc consts  --      1.5002                 1.5565                 1.4414
 IR Inten    --      9.6325                24.2431                 9.1976

                     28                     29                     30
                      A                      A                      A
 Frequencies --   1543.6440              1641.6315              1722.2724
 Red. masses --      1.2016                 1.2322                 4.4938
 Frc consts  --      1.6869                 1.9565                 7.8536
 IR Inten    --     34.4599               122.6386               243.4839

                     31                     32                     33
                      A                      A                      A
 Frequencies --   2988.9739              3009.7963              3076.2520
 Red. masses --      1.0556                 1.0503                 1.0862
 Frc consts  --      5.5565                 5.6060                 6.0561
 IR Inten    --     65.7161                68.3659                37.9395

                     34                     35                     36
                      A                      A                      A
 Frequencies --   3085.4149              3171.2745              3172.8551
 Red. masses --      1.0908                 1.0978                 1.0953
 Frc consts  --      6.1181                 6.5050                 6.4964
 IR Inten    --     45.2004                 7.4607                12.7661

                     37                     38                     39
                      A                      A                      A
 Frequencies --   3487.5468              3549.4948              3662.3455
 Red. masses --      1.0754                 1.0492                 1.0964
 Frc consts  --      7.7064                 7.7883                 8.6646
 IR Inten    --      8.4744                 8.0788                 8.8829

 - Thermochemistry -
 -------------------
 Temperature   298.150 Kelvin.  Pressure   1.00000 Atm.
 Atom     1 has atomic number  6 and mass  12.00000

 Molecular mass:    87.07965 amu.
 Principal axes and moments of inertia in atomic units:
                           1         2         3
     Eigenvalues --   362.36839 524.04267 829.16553
           X            0.99965   0.02408   0.01122
           Y           -0.02404   0.99970  -0.00412
           Z           -0.01132   0.00385   0.99993
 This molecule is an asymmetric top.
 Rotational symmetry number  1.
 Rotational temperatures (Kelvin)      0.23902     0.16528     0.10446
 Rotational constants (GHZ):           4.98040     3.44388     2.17658
 Zero-point vibrational energy     347411.8 (Joules/Mol)
                                   83.03341 (Kcal/Mol)
 Warning -- explicit consideration of  10 degrees of freedom as
           vibrations may cause significant error
 Vibrational temperatures:    151.10   191.74   262.68   384.21   473.52
          (Kelvin)            526.85   591.87   727.01   830.22   889.42
                             1078.62  1115.00  1158.07  1467.77  1559.52
                             1596.14  1626.32  1633.84  1697.03  1819.23
                             1889.86  2080.14  2088.96  2141.22  2151.41
                             2174.71  2182.72  2220.96  2361.94  2477.96
                             4300.46  4330.42  4426.03  4439.22  4562.75
                             4565.03  5017.80  5106.92  5269.29

 Zero-point correction=                           0.132322 (Hartree/Particle)
 Thermal correction to Energy=                    0.139643
 Thermal correction to Enthalpy=                  0.140587
 Thermal correction to Gibbs Free Energy=         0.101588
 Sum of electronic and zero-point Energies=           -283.862762
 Sum of electronic and thermal Energies=              -283.855442
 Sum of electronic and thermal Enthalpies=            -283.854498
 Sum of electronic and thermal Free Energies=         -283.893496

                     E (Thermal)             CV                S
                      KCal/Mol        Cal/Mol-Kelvin    Cal/Mol-Kelvin
 Total                   87.627             25.989             82.080
 Electronic               0.000              0.000              0.000
 Translational            0.889              2.981             39.306
 Rotational               0.889              2.981             26.557
 Vibrational             85.850             20.027             16.217
 Vibration     1          0.605              1.945              3.359
 Vibration     2          0.613              1.920              2.898
 Vibration     3          0.630              1.864              2.302
 Vibration     4          0.672              1.734              1.615
 Vibration     5          0.712              1.617              1.264
 Vibration     6          0.739              1.542              1.096
 Vibration     7          0.775              1.446              0.922
 Vibration     8          0.861              1.238              0.645
 Vibration     9          0.934              1.081              0.491
 Vibration    10          0.978              0.993              0.419

 Optimization completed.
    -- Stationary point found.
 Normal termination of Gaussian 09 at Fri Sep 10 21:25:11 2021.
