 Gaussian 09, Revision E.01,
 Gaussian 09:  ES64L-G09RevE.01 30-Nov-2015

 ----------------------------
 #P OPT Freq B3LYP/6-31G(d,p)
 ----------------------------

 --------
 Frag_563
 --------
 Symbolic Z-matrix:
 Charge =  0 Multiplicity = 1

 SCF Done:  E(RB3LYP) =  -303.803160452     A.U. after   14 cycles
 SCF Done:  E(RB3LYP) =  -303.803246453     A.U. after   10 cycles
 SCF Done:  E(RB3LYP) =  -303.803255853     A.U. after    8 cycles
 SCF Done:  E(RB3LYP) =  -303.803257777     A.U. after    8 cycles
 SCF Done:  E(RB3LYP) =  -303.803258073     A.U. after    8 cycles
 SCF Done:  E(RB3LYP) =  -303.803258215     A.U. after    7 cycles
 Optimization completed.
    -- Stationary point found.
 Normal termination of Gaussian 09 at Thu Sep  8 14:58:30 2022.

 ----------------------------------------------------------------------
 #P Geom=AllCheck Guess=TCheck SCRF=Check GenChk RB3LYP/6-31G(d,p) Freq
 ----------------------------------------------------------------------

 Structure from the checkpoint file:  "B3LYP6-31Gdp.Frag_563.chk"
 --------
 Frag_563
 --------
 Charge =  0 Multiplicity = 1

                         Standard orientation:
 ---------------------------------------------------------------------
 Center     Atomic      Atomic             Coordinates (Angstroms)
 Number     Number       Type             X           Y           Z
 ---------------------------------------------------------------------
      1          6           0        1.401355    1.192948    0.365487
      2          6           0        0.776805    0.084066   -0.037169
      3          8           0        1.470122   -1.088245   -0.228014
      4          7           0       -0.604917   -0.065691   -0.312981
      5          6           0       -1.285790   -1.116962    0.453800
      6          7           0       -1.306338    1.167283   -0.328472
      7          1           0        0.849706    2.093896    0.588361
      8          1           0        2.481188    1.198026    0.432436
      9          1           0        1.097350   -1.511700   -1.016086
     10          1           0       -1.491215   -0.796237    1.489296
     11          1           0       -0.663768   -2.012155    0.492738
     12          1           0       -2.234588   -1.364590   -0.031860
     13          1           0       -1.665926    1.375677    0.608425
     14          1           0       -2.109161    1.051591   -0.941737
 ---------------------------------------------------------------------

 SCF Done:  E(RB3LYP) =  -303.803258215     A.U. after    1 cycles

 The electronic state is 1-A.
 Alpha  occ. eigenvalues --  -19.16468 -14.37244 -14.35296 -10.25535 -10.21768
 Alpha  occ. eigenvalues --  -10.14704  -1.05397  -0.97983  -0.80224  -0.74029
 Alpha  occ. eigenvalues --   -0.66810  -0.56949  -0.52937  -0.50465  -0.48809
 Alpha  occ. eigenvalues --   -0.43319  -0.42648  -0.41484  -0.39985  -0.36525
 Alpha  occ. eigenvalues --   -0.33983  -0.26659  -0.26044  -0.20147
 Alpha virt. eigenvalues --    0.05324   0.07079   0.08744   0.13623   0.13685
 Alpha virt. eigenvalues --    0.15308   0.16161   0.17182   0.17795   0.20266
 Alpha virt. eigenvalues --    0.24047   0.27681   0.34469   0.36607   0.51431

 Mulliken charges:
               1
     1  C   -0.308916
     2  C    0.527442
     3  O   -0.546167
     4  N   -0.388597
     5  C   -0.175378
     6  N   -0.436314
     7  H    0.098008
     8  H    0.092974
     9  H    0.312604
    10  H    0.097820
    11  H    0.124674
    12  H    0.108408
    13  H    0.235382
    14  H    0.258061
 Sum of Mulliken charges =  -0.00000

 Dipole moment (field-independent basis, Debye):
    X=             -2.9566    Y=             -1.1080    Z=             -0.1257  Tot=              3.1599
 Quadrupole moment (field-independent basis, Debye-Ang):
   XX=            -34.2764   YY=            -36.2676   ZZ=            -36.2267
   XY=             -0.3026   XZ=             -1.3204   YZ=              3.2523

  Exact polarizability:  58.322   5.133  57.576   2.585   5.837  36.177
 Approx polarizability:  75.472   7.467  85.274   6.003  11.919  53.205

                      1                      2                      3
                      A                      A                      A
 Frequencies --     97.7040               207.0981               278.9300
 Red. masses --      3.6187                 1.3460                 1.2319
 Frc consts  --      0.0204                 0.0340                 0.0565
 IR Inten    --      1.8512                 8.1165                23.1883

                      4                      5                      6
                      A                      A                      A
 Frequencies --    305.6444               347.2495               415.8119
 Red. masses --      3.2798                 1.4963                 2.8928
 Frc consts  --      0.1805                 0.1063                 0.2947
 IR Inten    --      3.7427                14.3111                 8.1124

                      7                      8                      9
                      A                      A                      A
 Frequencies --    433.8973               492.3486               541.1920
 Red. masses --      1.1134                 2.4237                 3.4820
 Frc consts  --      0.1235                 0.3462                 0.6009
 IR Inten    --    120.2147                23.5023                 8.2550

                     10                     11                     12
                      A                      A                      A
 Frequencies --    663.3731               721.8570               775.9873
 Red. masses --      4.3584                 1.1711                 3.1329
 Frc consts  --      1.1300                 0.3595                 1.1115
 IR Inten    --      9.1522                 3.9071                16.8213

                     13                     14                     15
                      A                      A                      A
 Frequencies --    805.5852               921.2106               969.0519
 Red. masses --      1.3805                 1.8206                 2.0459
 Frc consts  --      0.5279                 0.9103                 1.1320
 IR Inten    --     61.6999               129.0315                21.1664

                     16                     17                     18
                      A                      A                      A
 Frequencies --   1051.4368              1142.4951              1166.2557
 Red. masses --      1.5582                 1.5697                 2.9041
 Frc consts  --      1.0149                 1.2072                 2.3273
 IR Inten    --     17.0710                28.0291                 2.7159

                     19                     20                     21
                      A                      A                      A
 Frequencies --   1208.7483              1270.6241              1335.6009
 Red. masses --      1.8569                 1.5038                 1.2322
 Frc consts  --      1.5985                 1.4304                 1.2950
 IR Inten    --     23.4619               121.5843                21.6312

                     22                     23                     24
                      A                      A                      A
 Frequencies --   1361.5872              1432.2053              1460.6747
 Red. masses --      3.3762                 1.1954                 1.1964
 Frc consts  --      3.6879                 1.4447                 1.5040
 IR Inten    --    105.0517                 7.6786                 7.5357

                     25                     26                     27
                      A                      A                      A
 Frequencies --   1504.1029              1517.9057              1678.3579
 Red. masses --      1.0533                 1.0646                 1.1397
 Frc consts  --      1.4040                 1.4451                 1.8915
 IR Inten    --     17.0787                 9.8013                23.0506

                     28                     29                     30
                      A                      A                      A
 Frequencies --   1763.9815              2975.2198              3088.8487
 Red. masses --      4.7705                 1.0556                 1.0822
 Frc consts  --      8.7458                 5.5053                 6.0834
 IR Inten    --    164.9331                69.9996                38.4765

                     31                     32                     33
                      A                      A                      A
 Frequencies --   3153.4637              3206.1150              3306.6177
 Red. masses --      1.0999                 1.0598                 1.1175
 Frc consts  --      6.4443                 6.4184                 7.1991
 IR Inten    --     13.3734                 0.5068                 3.4726

                     34                     35                     36
                      A                      A                      A
 Frequencies --   3390.0278              3545.0331              3770.3991
 Red. masses --      1.0557                 1.0858                 1.0649
 Frc consts  --      7.1479                 8.0394                 8.9192
 IR Inten    --     13.5870                 0.4331                20.7834

 - Thermochemistry -
 -------------------
 Temperature   298.150 Kelvin.  Pressure   1.00000 Atm.
 Atom     1 has atomic number  6 and mass  12.00000

 Molecular mass:    88.06366 amu.
 Principal axes and moments of inertia in atomic units:
                           1         2         3
     Eigenvalues --   359.78558 538.00559 804.37845
           X            0.99651   0.08308  -0.00851
           Y           -0.08297   0.99647   0.01280
           Z            0.00954  -0.01205   0.99988
 This molecule is an asymmetric top.
 Rotational symmetry number  1.
 Rotational temperatures (Kelvin)      0.24074     0.16099     0.10768
 Rotational constants (GHZ):           5.01616     3.35450     2.24365
 Zero-point vibrational energy     312863.2 (Joules/Mol)
                                   74.77610 (Kcal/Mol)
 Warning -- explicit consideration of   9 degrees of freedom as
           vibrations may cause significant error
 Vibrational temperatures:    140.57   297.97   401.32   439.75   499.61
          (Kelvin)            598.26   624.28   708.38   778.65   954.44
                             1038.59  1116.47  1159.06  1325.41  1394.25
                             1512.78  1643.79  1677.98  1739.12  1828.14
                             1921.63  1959.02  2060.62  2101.58  2164.07
                             2183.92  2414.78  2537.97  4280.67  4444.16
                             4537.13  4612.88  4757.48  4877.49  5100.51
                             5424.76

 Zero-point correction=                           0.119163 (Hartree/Particle)
 Thermal correction to Energy=                    0.126136
 Thermal correction to Enthalpy=                  0.127080
 Thermal correction to Gibbs Free Energy=         0.088974
 Sum of electronic and zero-point Energies=           -303.684095
 Sum of electronic and thermal Energies=              -303.677122
 Sum of electronic and thermal Enthalpies=            -303.676178
 Sum of electronic and thermal Free Energies=         -303.714285

                     E (Thermal)             CV                S
                      KCal/Mol        Cal/Mol-Kelvin    Cal/Mol-Kelvin
 Total                   79.152             25.669             80.202
 Electronic               0.000              0.000              0.000
 Translational            0.889              2.981             39.339
 Rotational               0.889              2.981             26.546
 Vibrational             77.374             19.707             14.317
 Vibration     1          0.603              1.951              3.500
 Vibration     2          0.641              1.830              2.069
 Vibration     3          0.679              1.713              1.540
 Vibration     4          0.696              1.663              1.386
 Vibration     5          0.725              1.581              1.179
 Vibration     6          0.779              1.436              0.906
 Vibration     7          0.795              1.396              0.846
 Vibration     8          0.848              1.267              0.678
 Vibration     9          0.896              1.159              0.563

 Optimization completed.
    -- Stationary point found.
 Normal termination of Gaussian 09 at Thu Sep  8 14:58:41 2022.
