 Gaussian 09, Revision E.01,
 Gaussian 09:  ES64L-G09RevE.01 30-Nov-2015

 --------------------------------
 #P OPT=calcfc Freq B3LYP/6-31G**
 --------------------------------

 --------
 Frag_149
 --------
 Symbolic Z-matrix:
 Charge =  0 Multiplicity = 1

 SCF Done:  E(RB3LYP) =  -228.598005068     A.U. after   13 cycles
 SCF Done:  E(RB3LYP) =  -228.609280973     A.U. after   14 cycles
 SCF Done:  E(RB3LYP) =  -228.608832682     A.U. after   13 cycles
 SCF Done:  E(RB3LYP) =  -228.610248456     A.U. after   11 cycles
 SCF Done:  E(RB3LYP) =  -228.612968521     A.U. after   14 cycles
 SCF Done:  E(RB3LYP) =  -228.614669062     A.U. after   14 cycles
 SCF Done:  E(RB3LYP) =  -228.594041414     A.U. after   14 cycles
 SCF Done:  E(RB3LYP) =  -228.615120909     A.U. after   10 cycles
 SCF Done:  E(RB3LYP) =  -228.615324636     A.U. after   12 cycles
 SCF Done:  E(RB3LYP) =  -228.615346839     A.U. after   10 cycles
 SCF Done:  E(RB3LYP) =  -228.615357169     A.U. after   10 cycles
 SCF Done:  E(RB3LYP) =  -228.615359085     A.U. after    8 cycles
 SCF Done:  E(RB3LYP) =  -228.615359480     A.U. after    7 cycles
 Optimization completed.
    -- Stationary point found.
 Normal termination of Gaussian 09 at Sat Aug 21 02:21:32 2021.

 ----------------------------------------------------------------------
 #P Geom=AllCheck Guess=TCheck SCRF=Check GenChk RB3LYP/6-31G(d,p) Freq
 ----------------------------------------------------------------------

 Structure from the checkpoint file:  "/public/home/users/caep010/.cache/gau_scr/Gau-223609.chk"
 --------
 Frag_149
 --------
 Charge =  0 Multiplicity = 1

                         Standard orientation:
 ---------------------------------------------------------------------
 Center     Atomic      Atomic             Coordinates (Angstroms)
 Number     Number       Type             X           Y           Z
 ---------------------------------------------------------------------
      1          6           0        0.311162    1.469807   -0.014184
      2          6           0        0.400933   -0.039274   -0.000304
      3          6           0        1.761692   -0.681202    0.016846
      4          7           0       -0.621398   -0.816367   -0.013663
      5          7           0       -1.878116   -0.226976   -0.087739
      6          1           0       -0.114149    1.860492    0.921925
      7          1           0       -0.339698    1.810194   -0.828782
      8          1           0        1.294567    1.927946   -0.139241
      9          1           0        2.334718   -0.374328    0.901567
     10          1           0        1.662929   -1.768141    0.020687
     11          1           0        2.350224   -0.381668   -0.860197
     12          1           0       -1.972993    0.635712    0.447990
     13          1           0       -2.561722   -0.902790    0.231709
 ---------------------------------------------------------------------

 SCF Done:  E(RB3LYP) =  -228.615359480     A.U. after    1 cycles

 The electronic state is 1-A.
 Alpha  occ. eigenvalues --  -14.34977 -14.34026 -10.21208 -10.18703 -10.17594
 Alpha  occ. eigenvalues --   -0.97198  -0.81355  -0.71904  -0.69332  -0.54619
 Alpha  occ. eigenvalues --   -0.50064  -0.47182  -0.43760  -0.41219  -0.39153
 Alpha  occ. eigenvalues --   -0.38323  -0.35844  -0.34875  -0.25620  -0.21384
 Alpha virt. eigenvalues --    0.02568   0.07947   0.11534   0.13572   0.15151
 Alpha virt. eigenvalues --    0.16445   0.17042   0.18142   0.20823   0.21845
 Alpha virt. eigenvalues --    0.24138   0.31008   0.39778   0.51646   0.54824

 Mulliken charges:
               1
     1  C   -0.395213
     2  C    0.280175
     3  C   -0.356012
     4  N   -0.309963
     5  N   -0.442099
     6  H    0.116358
     7  H    0.139137
     8  H    0.114621
     9  H    0.108657
    10  H    0.128456
    11  H    0.111411
    12  H    0.238374
    13  H    0.266099
 Sum of Mulliken charges =  -0.00000

 Dipole moment (field-independent basis, Debye):
    X=             -0.0622    Y=              1.5935    Z=              1.2301  Tot=              2.0141
 Quadrupole moment (field-independent basis, Debye-Ang):
   XX=            -27.2399   YY=            -31.8753   ZZ=            -32.4324
   XY=             -0.0064   XZ=             -3.0202   YZ=              0.0365

  Exact polarizability:  64.636   3.357  46.384  -0.957   0.790  32.260
 Approx polarizability:  92.116  10.479  65.138   0.154   1.847  45.934

                      1                      2                      3
                      A                      A                      A
 Frequencies --    136.5134               196.9208               285.1398
 Red. masses --      1.0484                 1.0970                 2.3877
 Frc consts  --      0.0115                 0.0251                 0.1144
 IR Inten    --      2.7739                 0.6223                 7.4745

                      4                      5                      6
                      A                      A                      A
 Frequencies --    302.4883               360.1274               378.4336
 Red. masses --      2.6273                 1.3665                 1.7999
 Frc consts  --      0.1416                 0.1044                 0.1519
 IR Inten    --      7.7589                21.2939                 3.7520

                      7                      8                      9
                      A                      A                      A
 Frequencies --    529.1861               600.2048               766.1675
 Red. masses --      2.7356                 3.5019                 1.9248
 Frc consts  --      0.4514                 0.7433                 0.6657
 IR Inten    --      3.4605                 3.9466               212.3401

                     10                     11                     12
                      A                      A                      A
 Frequencies --    804.7230               972.0163               977.6974
 Red. masses --      2.3327                 1.3224                 1.3555
 Frc consts  --      0.8900                 0.7361                 0.7634
 IR Inten    --     53.7034                 0.7854                 0.2806

                     13                     14                     15
                      A                      A                      A
 Frequencies --   1028.7412              1098.9366              1163.3292
 Red. masses --      1.6919                 1.6529                 2.6776
 Frc consts  --      1.0549                 1.1761                 2.1350
 IR Inten    --     12.4708                 1.4458                36.8281

                     16                     17                     18
                      A                      A                      A
 Frequencies --   1259.4062              1339.3396              1412.2879
 Red. masses --      2.2329                 1.5039                 1.2974
 Frc consts  --      2.0867                 1.5895                 1.5247
 IR Inten    --     17.6614                 2.6930                12.4886

                     19                     20                     21
                      A                      A                      A
 Frequencies --   1422.6678              1492.9953              1494.6716
 Red. masses --      1.3677                 1.0584                 1.0476
 Frc consts  --      1.6310                 1.3900                 1.3790
 IR Inten    --      3.2230                 6.1278                 8.1304

                     22                     23                     24
                      A                      A                      A
 Frequencies --   1498.9751              1505.7492              1671.6336
 Red. masses --      1.0478                 1.0730                 1.1601
 Frc consts  --      1.3871                 1.4334                 1.9100
 IR Inten    --      6.7901                 4.4315                20.7786

                     25                     26                     27
                      A                      A                      A
 Frequencies --   1726.5028              3014.8977              3025.0365
 Red. masses --      5.3204                 1.0454                 1.0401
 Frc consts  --      9.3439                 5.5986                 5.6079
 IR Inten    --      3.3923                17.7465                30.5849

                     28                     29                     30
                      A                      A                      A
 Frequencies --   3072.2234              3074.7543              3136.4168
 Red. masses --      1.1002                 1.0923                 1.0993
 Frc consts  --      6.1180                 6.0841                 6.3713
 IR Inten    --     24.6659                19.3777                12.3292

                     31                     32                     33
                      A                      A                      A
 Frequencies --   3150.1206              3452.7045              3607.0411
 Red. masses --      1.0986                 1.0523                 1.0908
 Frc consts  --      6.4230                 7.3914                 8.3621
 IR Inten    --     13.4267                 5.0789                 7.0664

 - Thermochemistry -
 -------------------
 Temperature   298.150 Kelvin.  Pressure   1.00000 Atm.
 Atom     1 has atomic number  6 and mass  12.00000

 Molecular mass:    72.06875 amu.
 Principal axes and moments of inertia in atomic units:
                           1         2         3
     Eigenvalues --   214.59274 445.64609 635.35044
           X            0.99952  -0.02890  -0.01129
           Y            0.02890   0.99958   0.00046
           Z            0.01127  -0.00078   0.99994
 This molecule is an asymmetric top.
 Rotational symmetry number  1.
 Rotational temperatures (Kelvin)      0.40362     0.19436     0.13632
 Rotational constants (GHZ):           8.41008     4.04972     2.84054
 Zero-point vibrational energy     298815.5 (Joules/Mol)
                                   71.41862 (Kcal/Mol)
 Warning -- explicit consideration of   8 degrees of freedom as
           vibrations may cause significant error
 Vibrational temperatures:    196.41   283.32   410.25   435.21   518.14
          (Kelvin)            544.48   761.38   863.56  1102.34  1157.82
                             1398.51  1406.69  1480.13  1581.12  1673.77
                             1812.00  1927.01  2031.96  2046.90  2148.08
                             2150.50  2156.69  2166.43  2405.10  2484.05
                             4337.76  4352.35  4420.24  4423.88  4512.60
                             4532.32  4967.67  5189.72

 Zero-point correction=                           0.113813 (Hartree/Particle)
 Thermal correction to Energy=                    0.120164
 Thermal correction to Enthalpy=                  0.121108
 Thermal correction to Gibbs Free Energy=         0.084777
 Sum of electronic and zero-point Energies=           -228.501547
 Sum of electronic and thermal Energies=              -228.495196
 Sum of electronic and thermal Enthalpies=            -228.494252
 Sum of electronic and thermal Free Energies=         -228.530583

                     E (Thermal)             CV                S
                      KCal/Mol        Cal/Mol-Kelvin    Cal/Mol-Kelvin
 Total                   75.404             22.275             76.465
 Electronic               0.000              0.000              0.000
 Translational            0.889              2.981             38.742
 Rotational               0.889              2.981             25.611
 Vibrational             73.626             16.314             12.113
 Vibration     1          0.614              1.917              2.852
 Vibration     2          0.636              1.844              2.162
 Vibration     3          0.683              1.701              1.503
 Vibration     4          0.694              1.669              1.403
 Vibration     5          0.735              1.554              1.122
 Vibration     6          0.749              1.516              1.045
 Vibration     7          0.884              1.185              0.589
 Vibration     8          0.958              1.031              0.449

 Optimization completed.
    -- Stationary point found.
 Normal termination of Gaussian 09 at Sat Aug 21 02:21:41 2021.
