 Gaussian 09, Revision E.01,
 Gaussian 09:  ES64L-G09RevE.01 30-Nov-2015

 ----------------------------
 #P OPT Freq B3LYP/6-31G(d,p)
 ----------------------------

 ---------
 Frag_1145
 ---------
 Symbolic Z-matrix:
 Charge =  0 Multiplicity = 1

 SCF Done:  E(RB3LYP) =  -245.786748103     A.U. after   14 cycles
 SCF Done:  E(RB3LYP) =  -245.786793575     A.U. after   10 cycles
 SCF Done:  E(RB3LYP) =  -245.786797784     A.U. after    9 cycles
 SCF Done:  E(RB3LYP) =  -245.786799114     A.U. after    8 cycles
 SCF Done:  E(RB3LYP) =  -245.786799622     A.U. after    8 cycles
 Optimization completed.
    -- Stationary point found.
 Normal termination of Gaussian 09 at Thu Sep  8 14:52:28 2022.

 ----------------------------------------------------------------------
 #P Geom=AllCheck Guess=TCheck SCRF=Check GenChk RB3LYP/6-31G(d,p) Freq
 ----------------------------------------------------------------------

 Structure from the checkpoint file:  "B3LYP6-31Gdp.Frag_1145.chk"
 ---------
 Frag_1145
 ---------
 Charge =  0 Multiplicity = 1

                         Standard orientation:
 ---------------------------------------------------------------------
 Center     Atomic      Atomic             Coordinates (Angstroms)
 Number     Number       Type             X           Y           Z
 ---------------------------------------------------------------------
      1          6           0        1.759693   -0.688289   -0.002245
      2          6           0        0.427015   -0.005358    0.301329
      3          7           0        0.537810    1.436618   -0.090596
      4          7           0       -0.592999   -0.778341   -0.348275
      5          7           0       -1.847286   -0.188006    0.057606
      6          1           0        1.931702   -0.697412   -1.083903
      7          1           0        2.583104   -0.154302    0.477391
      8          1           0        1.740648   -1.725286    0.343359
      9          1           0        0.300925    0.038105    1.413370
     10          1           0        0.405690    1.501455   -1.100304
     11          1           0       -0.171128    2.017526    0.352486
     12          1           0       -2.589109   -0.700352   -0.418138
     13          1           0       -2.052544   -0.228716    1.083211
     14          1           0       -1.952203    0.818962   -0.193128
 ---------------------------------------------------------------------

 SCF Done:  E(RB3LYP) =  -245.786799622     A.U. after    1 cycles

 The electronic state is 1-A.
 Alpha  occ. eigenvalues --  -14.45746 -14.29184 -14.25491 -10.20251 -10.14098
 Alpha  occ. eigenvalues --   -0.99941  -0.85891  -0.75875  -0.67701  -0.58162
 Alpha  occ. eigenvalues --   -0.55466  -0.53719  -0.47977  -0.45004  -0.39435
 Alpha  occ. eigenvalues --   -0.34708  -0.33629  -0.32641  -0.25414  -0.21415
 Alpha  occ. eigenvalues --   -0.15054
 Alpha virt. eigenvalues --    0.02166   0.08090   0.09381   0.12527   0.15544
 Alpha virt. eigenvalues --    0.16306   0.18425   0.20655   0.21060   0.22551
 Alpha virt. eigenvalues --    0.26046   0.29012   0.32226   0.54493   0.57064

 Mulliken charges:
               1
     1  C   -0.285094
     2  C    0.174773
     3  N   -0.592468
     4  N   -0.491494
     5  N   -0.373142
     6  H    0.098669
     7  H    0.096106
     8  H    0.100002
     9  H    0.022991
    10  H    0.221226
    11  H    0.204496
    12  H    0.321151
    13  H    0.259107
    14  H    0.243679
 Sum of Mulliken charges =   0.00000

 Dipole moment (field-independent basis, Debye):
    X=             -5.1925    Y=              1.4310    Z=              0.8852  Tot=              5.4583
 Quadrupole moment (field-independent basis, Debye-Ang):
   XX=            -22.4033   YY=            -35.5498   ZZ=            -32.0152
   XY=             -3.0202   XZ=             -1.4920   YZ=             -1.8065

  Exact polarizability:  58.774  -2.896  44.960  -2.600   0.500  43.451
 Approx polarizability:  75.721  -4.048  63.892  -4.811   3.856  64.061

                      1                      2                      3
                      A                      A                      A
 Frequencies --    149.4285               206.9455               231.8774
 Red. masses --      2.4651                 1.0389                 1.3475
 Frc consts  --      0.0324                 0.0262                 0.0427
 IR Inten    --     34.3232                 1.5347                29.6794

                      4                      5                      6
                      A                      A                      A
 Frequencies --    279.4411               325.5363               403.1941
 Red. masses --      1.6182                 1.4347                 2.0835
 Frc consts  --      0.0745                 0.0896                 0.1996
 IR Inten    --     16.4895                21.3430                19.8224

                      7                      8                      9
                      A                      A                      A
 Frequencies --    505.9661               524.1325               753.7404
 Red. masses --      2.2340                 2.4480                 3.8786
 Frc consts  --      0.3370                 0.3962                 1.2983
 IR Inten    --     61.4498                 9.7853                58.1414

                     10                     11                     12
                      A                      A                      A
 Frequencies --    796.5479               843.2005               935.4136
 Red. masses --      2.2968                 2.1912                 2.1494
 Frc consts  --      0.8586                 0.9179                 1.1081
 IR Inten    --    141.5367                15.1540                25.7390

                     13                     14                     15
                      A                      A                      A
 Frequencies --    985.7601              1076.0856              1099.7408
 Red. masses --      1.1643                 1.3475                 1.5041
 Frc consts  --      0.6666                 0.9194                 1.0718
 IR Inten    --      6.0233                 9.2247                28.8925

                     16                     17                     18
                      A                      A                      A
 Frequencies --   1111.5692              1191.3895              1252.8665
 Red. masses --      1.8476                 2.0816                 1.8389
 Frc consts  --      1.3451                 1.7408                 1.7007
 IR Inten    --     33.0850                41.4083                 6.8981

                     19                     20                     21
                      A                      A                      A
 Frequencies --   1345.3114              1395.3045              1416.4017
 Red. masses --      1.3846                 1.1851                 1.4112
 Frc consts  --      1.4765                 1.3594                 1.6680
 IR Inten    --     50.6257                14.7960                21.2660

                     22                     23                     24
                      A                      A                      A
 Frequencies --   1478.6465              1496.6406              1509.1133
 Red. masses --      1.1410                 1.0459                 1.0531
 Frc consts  --      1.4698                 1.3803                 1.4131
 IR Inten    --     26.3845                 2.8664                 1.2710

                     25                     26                     27
                      A                      A                      A
 Frequencies --   1611.2311              1639.8001              1674.4861
 Red. masses --      1.0598                 1.0992                 1.0533
 Frc consts  --      1.6210                 1.7415                 1.7401
 IR Inten    --     22.5530                 6.5391                50.5561

                     28                     29                     30
                      A                      A                      A
 Frequencies --   2774.5413              3026.5544              3053.0818
 Red. masses --      1.0782                 1.0867                 1.0357
 Frc consts  --      4.8902                 5.8646                 5.6882
 IR Inten    --    184.7406                74.1443                17.9271

                     31                     32                     33
                      A                      A                      A
 Frequencies --   3088.3788              3124.2168              3144.9994
 Red. masses --      1.0418                 1.1003                 1.1041
 Frc consts  --      5.8543                 6.3279                 6.4344
 IR Inten    --    215.9902                32.7435                26.2073

                     34                     35                     36
                      A                      A                      A
 Frequencies --   3454.0839              3526.2825              3557.6622
 Red. masses --      1.0474                 1.0779                 1.0940
 Frc consts  --      7.3626                 7.8973                 8.1584
 IR Inten    --      9.2768                43.7925                 5.5676

 - Thermochemistry -
 -------------------
 Temperature   298.150 Kelvin.  Pressure   1.00000 Atm.
 Atom     1 has atomic number  6 and mass  12.00000

 Molecular mass:    75.07965 amu.
 Principal axes and moments of inertia in atomic units:
                           1         2         3
     Eigenvalues --   227.40993 479.18863 640.88856
           X            0.99852  -0.05373  -0.00888
           Y            0.05355   0.99839  -0.01891
           Z            0.00988   0.01841   0.99978
 This molecule is an asymmetric top.
 Rotational symmetry number  1.
 Rotational temperatures (Kelvin)      0.38087     0.18075     0.13515
 Rotational constants (GHZ):           7.93607     3.76624     2.81600
 Zero-point vibrational energy     328910.7 (Joules/Mol)
                                   78.61154 (Kcal/Mol)
 Warning -- explicit consideration of   8 degrees of freedom as
           vibrations may cause significant error
 Vibrational temperatures:    214.99   297.75   333.62   402.05   468.37
          (Kelvin)            580.11   727.97   754.11  1084.46  1146.05
                             1213.18  1345.85  1418.29  1548.25  1582.28
                             1599.30  1714.14  1802.59  1935.60  2007.53
                             2037.88  2127.44  2153.33  2171.27  2318.20
                             2359.30  2409.21  3991.94  4354.53  4392.70
                             4443.48  4495.05  4524.95  4969.65  5073.53
                             5118.68

 Zero-point correction=                           0.125275 (Hartree/Particle)
 Thermal correction to Energy=                    0.131863
 Thermal correction to Enthalpy=                  0.132807
 Thermal correction to Gibbs Free Energy=         0.095996
 Sum of electronic and zero-point Energies=           -245.661524
 Sum of electronic and thermal Energies=              -245.654937
 Sum of electronic and thermal Enthalpies=            -245.653993
 Sum of electronic and thermal Free Energies=         -245.690804

                     E (Thermal)             CV                S
                      KCal/Mol        Cal/Mol-Kelvin    Cal/Mol-Kelvin
 Total                   82.745             23.471             77.475
 Electronic               0.000              0.000              0.000
 Translational            0.889              2.981             38.864
 Rotational               0.889              2.981             25.749
 Vibrational             80.968             17.510             12.862
 Vibration     1          0.618              1.903              2.679
 Vibration     2          0.641              1.830              2.070
 Vibration     3          0.653              1.792              1.864
 Vibration     4          0.680              1.712              1.537
 Vibration     5          0.710              1.624              1.282
 Vibration     6          0.769              1.463              0.951
 Vibration     7          0.861              1.237              0.643
 Vibration     8          0.879              1.197              0.600

 Normal termination of Gaussian 09 at Thu Sep  8 14:52:38 2022.
