 Gaussian 09, Revision E.01,
 Gaussian 09:  ES64L-G09RevE.01 30-Nov-2015

 ----------------------------
 #P OPT Freq B3LYP/6-31G(d,p)
 ----------------------------

 --------
 Frag_974
 --------
 Symbolic Z-matrix:
 Charge =  0 Multiplicity = 1

 SCF Done:  E(RB3LYP) =  -225.186469654     A.U. after   14 cycles
 SCF Done:  E(RB3LYP) =  -225.186536843     A.U. after   10 cycles
 SCF Done:  E(RB3LYP) =  -225.186543712     A.U. after    9 cycles
 SCF Done:  E(RB3LYP) =  -225.186545417     A.U. after    8 cycles
 Optimization completed.
    -- Stationary point found.
 Normal termination of Gaussian 09 at Thu Sep  8 15:15:07 2022.

 ----------------------------------------------------------------------
 #P Geom=AllCheck Guess=TCheck SCRF=Check GenChk RB3LYP/6-31G(d,p) Freq
 ----------------------------------------------------------------------

 Structure from the checkpoint file:  "B3LYP6-31Gdp.Frag_974.chk"
 --------
 Frag_974
 --------
 Charge =  0 Multiplicity = 1

                         Standard orientation:
 ---------------------------------------------------------------------
 Center     Atomic      Atomic             Coordinates (Angstroms)
 Number     Number       Type             X           Y           Z
 ---------------------------------------------------------------------
      1          7           0       -1.327512   -0.527243   -0.075103
      2          6           0       -0.595250    0.632968    0.002151
      3          7           0        0.686041    0.737324    0.007292
      4          8           0        1.259292   -0.574330   -0.002501
      5          1           0       -2.263253   -0.500201    0.300157
      6          1           0       -0.804549   -1.367272    0.131657
      7          1           0       -1.147180    1.568806    0.007413
      8          1           0        2.202443   -0.375072    0.042551
 ---------------------------------------------------------------------

 SCF Done:  E(RB3LYP) =  -225.186545417     A.U. after    1 cycles

 The electronic state is 1-A.
 Alpha  occ. eigenvalues --  -19.16881 -14.35205 -14.34938 -10.24298  -1.05342
 Alpha  occ. eigenvalues --   -0.92139  -0.81611  -0.60173  -0.53754  -0.50508
 Alpha  occ. eigenvalues --   -0.43964  -0.41241  -0.39674  -0.31489  -0.26954
 Alpha  occ. eigenvalues --   -0.21257
 Alpha virt. eigenvalues --    0.04216   0.06501   0.11077   0.12602   0.15045
 Alpha virt. eigenvalues --    0.18771   0.30950   0.36564   0.56116   0.57229
 Alpha virt. eigenvalues --    0.64344   0.66020   0.69522   0.73589   0.74638

 Mulliken charges:
               1
     1  N   -0.592822
     2  C    0.277058
     3  N   -0.226544
     4  O   -0.463558
     5  H    0.265089
     6  H    0.290670
     7  H    0.118048
     8  H    0.332059
 Sum of Mulliken charges =  -0.00000

 Dipole moment (field-independent basis, Debye):
    X=             -1.4465    Y=             -0.8013    Z=              1.0073  Tot=              1.9363
 Quadrupole moment (field-independent basis, Debye-Ang):
   XX=            -15.4440   YY=            -23.0655   ZZ=            -25.2790
   XY=             -1.4423   XZ=             -1.6332   YZ=             -0.8710

  Exact polarizability:  43.195  -0.720  28.393  -0.280  -0.025  13.355
 Approx polarizability:  67.006   0.791  41.657   0.505   0.563  18.558

                      1                      2                      3
                      A                      A                      A
 Frequencies --    300.8718               312.1144               395.6872
 Red. masses --      1.5992                 2.1285                 1.1205
 Frc consts  --      0.0853                 0.1222                 0.1034
 IR Inten    --     71.9444                55.5399               112.8933

                      4                      5                      6
                      A                      A                      A
 Frequencies --    511.6700               619.3362               721.0871
 Red. masses --      1.4616                 2.5228                 3.0693
 Frc consts  --      0.2255                 0.5702                 0.9403
 IR Inten    --    141.5752               101.1703                24.4569

                      7                      8                      9
                      A                      A                      A
 Frequencies --    904.4618               921.4753              1082.6550
 Red. masses --      1.4905                 4.0675                 1.7161
 Frc consts  --      0.7184                 2.0349                 1.1851
 IR Inten    --     37.5122                56.6681                24.0230

                     10                     11                     12
                      A                      A                      A
 Frequencies --   1273.6107              1334.8221              1387.9702
 Red. masses --      2.4197                 1.2385                 1.2235
 Frc consts  --      2.3125                 1.3001                 1.3887
 IR Inten    --     51.7179                48.5719                14.3544

                     13                     14                     15
                      A                      A                      A
 Frequencies --   1627.7146              1757.7362              3203.3456
 Red. masses --      1.1767                 5.5081                 1.0914
 Frc consts  --      1.8369                10.0268                 6.5986
 IR Inten    --     51.3022               134.3189                 9.1007

                     16                     17                     18
                      A                      A                      A
 Frequencies --   3585.9575              3707.8666              3840.8153
 Red. masses --      1.0460                 1.1010                 1.0680
 Frc consts  --      7.9252                 8.9184                 9.2829
 IR Inten    --     24.5770                32.0327                65.3422

 - Thermochemistry -
 -------------------
 Temperature   298.150 Kelvin.  Pressure   1.00000 Atm.
 Atom     1 has atomic number  7 and mass  14.00307

 Molecular mass:    60.03236 amu.
 Principal axes and moments of inertia in atomic units:
                           1         2         3
     Eigenvalues --    94.69116 260.80884 354.25000
           X            0.99992  -0.00827  -0.00971
           Y            0.00815   0.99989  -0.01275
           Z            0.00982   0.01267   0.99987
 This molecule is an asymmetric top.
 Rotational symmetry number  1.
 Rotational temperatures (Kelvin)      0.91470     0.33210     0.24450
 Rotational constants (GHZ):          19.05924     6.91979     5.09454
 Zero-point vibrational energy     164421.9 (Joules/Mol)
                                   39.29778 (Kcal/Mol)
 Warning -- explicit consideration of   5 degrees of freedom as
           vibrations may cause significant error
 Vibrational temperatures:    432.89   449.06   569.30   736.18   891.09
          (Kelvin)           1037.48  1301.32  1325.80  1557.70  1832.44
                             1920.51  1996.98  2341.92  2528.99  4608.89
                             5159.39  5334.79  5526.07

 Zero-point correction=                           0.062625 (Hartree/Particle)
 Thermal correction to Energy=                    0.067229
 Thermal correction to Enthalpy=                  0.068173
 Thermal correction to Gibbs Free Energy=         0.036164
 Sum of electronic and zero-point Energies=           -225.123920
 Sum of electronic and thermal Energies=              -225.119316
 Sum of electronic and thermal Enthalpies=            -225.118372
 Sum of electronic and thermal Free Energies=         -225.150381

                     E (Thermal)             CV                S
                      KCal/Mol        Cal/Mol-Kelvin    Cal/Mol-Kelvin
 Total                   42.187             15.510             67.369
 Electronic               0.000              0.000              0.000
 Translational            0.889              2.981             38.197
 Rotational               0.889              2.981             23.685
 Vibrational             40.410              9.548              5.487
 Vibration     1          0.693              1.672              1.412
 Vibration     2          0.700              1.651              1.351
 Vibration     3          0.762              1.479              0.979
 Vibration     4          0.867              1.224              0.630
 Vibration     5          0.979              0.991              0.418

 Normal termination of Gaussian 09 at Thu Sep  8 15:15:13 2022.
