 Gaussian 09, Revision E.01,
 Gaussian 09:  ES64L-G09RevE.01 30-Nov-2015

 ----------------------------
 #P OPT Freq B3LYP/6-31G(d,p)
 ----------------------------

 --------
 Frag_662
 --------
 Symbolic Z-matrix:
 Charge =  0 Multiplicity = 1

 SCF Done:  E(RB3LYP) =  -339.748848199     A.U. after   14 cycles
 SCF Done:  E(RB3LYP) =  -339.748983013     A.U. after    9 cycles
 SCF Done:  E(RB3LYP) =  -339.749005065     A.U. after   10 cycles
 SCF Done:  E(RB3LYP) =  -339.749010309     A.U. after   11 cycles
 SCF Done:  E(RB3LYP) =  -339.749020163     A.U. after    8 cycles
 SCF Done:  E(RB3LYP) =  -339.749024114     A.U. after    8 cycles
 SCF Done:  E(RB3LYP) =  -339.749024664     A.U. after    8 cycles
 SCF Done:  E(RB3LYP) =  -339.749024773     A.U. after    7 cycles
 Optimization completed.
    -- Stationary point found.
 Normal termination of Gaussian 09 at Thu Sep  8 14:59:21 2022.

 ----------------------------------------------------------------------
 #P Geom=AllCheck Guess=TCheck SCRF=Check GenChk RB3LYP/6-31G(d,p) Freq
 ----------------------------------------------------------------------

 Structure from the checkpoint file:  "B3LYP6-31Gdp.Frag_662.chk"
 --------
 Frag_662
 --------
 Charge =  0 Multiplicity = 1

                         Standard orientation:
 ---------------------------------------------------------------------
 Center     Atomic      Atomic             Coordinates (Angstroms)
 Number     Number       Type             X           Y           Z
 ---------------------------------------------------------------------
      1          6           0        1.605655   -0.894162    0.148141
      2          7           0        0.603990    0.065022   -0.299728
      3          8           0        0.955181    1.390923    0.104397
      4          6           0       -0.750146   -0.250413   -0.055642
      5          7           0       -1.577740    0.837051    0.047829
      6          8           0       -1.131192   -1.412032   -0.042531
      7          1           0        2.538637   -0.717713   -0.392334
      8          1           0        1.228092   -1.888841   -0.084430
      9          1           0        1.791407   -0.814588    1.226694
     10          1           0        1.219772    1.812991   -0.726844
     11          1           0       -1.172021    1.711911    0.342431
     12          1           0       -2.514604    0.618047    0.347847
 ---------------------------------------------------------------------

 SCF Done:  E(RB3LYP) =  -339.749024773     A.U. after    1 cycles

 The electronic state is 1-A.
 Alpha  occ. eigenvalues --  -19.20176 -19.10483 -14.40070 -14.34817 -10.30661
 Alpha  occ. eigenvalues --  -10.21320  -1.09322  -1.02772  -0.90089  -0.85867
 Alpha  occ. eigenvalues --   -0.69894  -0.58237  -0.55252  -0.53396  -0.48695
 Alpha  occ. eigenvalues --   -0.45573  -0.41767  -0.41620  -0.39746  -0.38727
 Alpha  occ. eigenvalues --   -0.32930  -0.27072  -0.25735  -0.24253
 Alpha virt. eigenvalues --    0.04159   0.06040   0.10379   0.10774   0.14204
 Alpha virt. eigenvalues --    0.14924   0.16921   0.18317   0.20047   0.27881
 Alpha virt. eigenvalues --    0.35021   0.39211   0.52276   0.54137   0.55358

 Mulliken charges:
               1
     1  C   -0.158145
     2  N   -0.261090
     3  O   -0.440181
     4  C    0.729043
     5  N   -0.627344
     6  O   -0.523786
     7  H    0.108936
     8  H    0.158915
     9  H    0.117523
    10  H    0.339689
    11  H    0.277781
    12  H    0.278660
 Sum of Mulliken charges =  -0.00000

 Dipole moment (field-independent basis, Debye):
    X=              1.2275    Y=              3.0084    Z=              0.0688  Tot=              3.2500
 Quadrupole moment (field-independent basis, Debye-Ang):
   XX=            -30.7658   YY=            -34.8552   ZZ=            -35.1256
   XY=             -4.5544   XZ=             -3.4675   YZ=             -1.7177

  Exact polarizability:  49.206  -0.226  48.394  -1.736  -0.650  27.322
 Approx polarizability:  62.479   5.335  76.482  -2.750  -0.486  39.007

                      1                      2                      3
                      A                      A                      A
 Frequencies --    119.3766               172.2576               267.5760
 Red. masses --      4.2834                 1.1740                 2.4060
 Frc consts  --      0.0360                 0.0205                 0.1015
 IR Inten    --      4.9923                 0.1115                 3.3791

                      4                      5                      6
                      A                      A                      A
 Frequencies --    318.4421               367.5565               411.5973
 Red. masses --      3.9364                 1.1829                 4.1195
 Frc consts  --      0.2352                 0.0942                 0.4112
 IR Inten    --      8.2531                60.2877                 5.1008

                      7                      8                      9
                      A                      A                      A
 Frequencies --    476.6745               517.1879               558.0906
 Red. masses --      1.2469                 2.1254                 1.9455
 Frc consts  --      0.1669                 0.3350                 0.3570
 IR Inten    --    307.7300                 5.4469                 1.9513

                     10                     11                     12
                      A                      A                      A
 Frequencies --    587.9978               759.0035               771.1958
 Red. masses --      2.2229                 4.8258                 7.4265
 Frc consts  --      0.4528                 1.6380                 2.6023
 IR Inten    --     21.3226                42.7271                27.3523

                     13                     14                     15
                      A                      A                      A
 Frequencies --    977.2035              1092.5120              1145.6778
 Red. masses --      2.6096                 1.9950                 2.1108
 Frc consts  --      1.4682                 1.4030                 1.6324
 IR Inten    --     15.5958                 6.9871                46.0620

                     16                     17                     18
                      A                      A                      A
 Frequencies --   1171.9285              1239.5148              1367.0725
 Red. masses --      1.7569                 2.2800                 1.2271
 Frc consts  --      1.4216                 2.0639                 1.3512
 IR Inten    --     21.2389                 8.8926                55.6513

                     19                     20                     21
                      A                      A                      A
 Frequencies --   1412.8532              1444.5533              1499.5151
 Red. masses --      2.2925                 1.3151                 1.0474
 Frc consts  --      2.6962                 1.6168                 1.3876
 IR Inten    --    183.0360                48.5903                13.6621

                     22                     23                     24
                      A                      A                      A
 Frequencies --   1526.2955              1601.7723              1810.2060
 Red. masses --      1.0862                 1.3004                 9.1593
 Frc consts  --      1.4909                 1.9657                17.6834
 IR Inten    --      6.3311               181.3736               304.1977

                     25                     26                     27
                      A                      A                      A
 Frequencies --   3036.1834              3116.6794              3184.3857
 Red. masses --      1.0434                 1.0970                 1.1000
 Frc consts  --      5.6672                 6.2781                 6.5717
 IR Inten    --     46.9093                30.9256                 1.9066

                     28                     29                     30
                      A                      A                      A
 Frequencies --   3605.7723              3740.4105              3772.0540
 Red. masses --      1.0449                 1.1034                 1.0684
 Frc consts  --      8.0041                 9.0954                 8.9563
 IR Inten    --     32.3620                57.9162                38.5930

 - Thermochemistry -
 -------------------
 Temperature   298.150 Kelvin.  Pressure   1.00000 Atm.
 Atom     1 has atomic number  6 and mass  12.00000

 Molecular mass:    90.04293 amu.
 Principal axes and moments of inertia in atomic units:
                           1         2         3
     Eigenvalues --   348.29189 494.69276 812.84379
           X            0.98544  -0.16989  -0.00740
           Y            0.16980   0.98541  -0.01118
           Z            0.00919   0.00976   0.99991
 This molecule is an asymmetric top.
 Rotational symmetry number  1.
 Rotational temperatures (Kelvin)      0.24868     0.17509     0.10656
 Rotational constants (GHZ):           5.18169     3.64821     2.22028
 Zero-point vibrational energy     251643.7 (Joules/Mol)
                                   60.14429 (Kcal/Mol)
 Warning -- explicit consideration of  10 degrees of freedom as
           vibrations may cause significant error
 Vibrational temperatures:    171.76   247.84   384.98   458.17   528.83
          (Kelvin)            592.20   685.83   744.12   802.97   846.00
                             1092.04  1109.58  1405.98  1571.88  1648.37
                             1686.14  1783.38  1966.91  2032.78  2078.39
                             2157.47  2196.00  2304.59  2604.48  4368.39
                             4484.20  4581.62  5187.90  5381.61  5427.14

 Zero-point correction=                           0.095846 (Hartree/Particle)
 Thermal correction to Energy=                    0.102621
 Thermal correction to Enthalpy=                  0.103565
 Thermal correction to Gibbs Free Energy=         0.065791
 Sum of electronic and zero-point Energies=           -339.653179
 Sum of electronic and thermal Energies=              -339.646404
 Sum of electronic and thermal Enthalpies=            -339.645459
 Sum of electronic and thermal Free Energies=         -339.683234

                     E (Thermal)             CV                S
                      KCal/Mol        Cal/Mol-Kelvin    Cal/Mol-Kelvin
 Total                   64.396             24.107             79.503
 Electronic               0.000              0.000              0.000
 Translational            0.889              2.981             39.405
 Rotational               0.889              2.981             26.440
 Vibrational             62.618             18.146             13.657
 Vibration     1          0.609              1.933              3.110
 Vibration     2          0.626              1.877              2.411
 Vibration     3          0.673              1.733              1.612
 Vibration     4          0.705              1.638              1.318
 Vibration     5          0.740              1.539              1.090
 Vibration     6          0.776              1.445              0.921
 Vibration     7          0.833              1.302              0.719
 Vibration     8          0.872              1.212              0.617
 Vibration     9          0.914              1.122              0.528
 Vibration    10          0.945              1.057              0.471

 Optimization completed.
    -- Stationary point found.
 Normal termination of Gaussian 09 at Thu Sep  8 14:59:30 2022.
