 Gaussian 09, Revision E.01,
 Gaussian 09:  ES64L-G09RevE.01 30-Nov-2015

 -------------------------
 #P OPT Freq B3LYP/6-31G**
 -------------------------

 --------
 Frag_263
 --------
 Symbolic Z-matrix:
 Charge =  0 Multiplicity = 1

 SCF Done:  E(RB3LYP) =  -233.311636988     A.U. after   14 cycles
 SCF Done:  E(RB3LYP) =  -233.350281762     A.U. after   13 cycles
 SCF Done:  E(RB3LYP) =  -233.356769654     A.U. after   13 cycles
 SCF Done:  E(RB3LYP) =  -233.357736047     A.U. after   12 cycles
 SCF Done:  E(RB3LYP) =  -233.358047152     A.U. after   11 cycles
 SCF Done:  E(RB3LYP) =  -233.357818797     A.U. after   14 cycles
 SCF Done:  E(RB3LYP) =  -233.358867955     A.U. after   11 cycles
 SCF Done:  E(RB3LYP) =  -233.359320241     A.U. after   11 cycles
 SCF Done:  E(RB3LYP) =  -233.359624276     A.U. after   11 cycles
 SCF Done:  E(RB3LYP) =  -233.359675641     A.U. after   10 cycles
 SCF Done:  E(RB3LYP) =  -233.359698526     A.U. after   10 cycles
 SCF Done:  E(RB3LYP) =  -233.359702220     A.U. after    9 cycles
 SCF Done:  E(RB3LYP) =  -233.359702513     A.U. after    7 cycles
 Optimization completed.
    -- Stationary point found.
 Normal termination of Gaussian 09 at Sat Aug 21 01:39:18 2021.

 ----------------------------------------------------------------------
 #P Geom=AllCheck Guess=TCheck SCRF=Check GenChk RB3LYP/6-31G(d,p) Freq
 ----------------------------------------------------------------------

 Structure from the checkpoint file:  "/public/home/users/caep010/.cache/gau_scr/Gau-55786.chk"
 --------
 Frag_263
 --------
 Charge =  0 Multiplicity = 1

                         Standard orientation:
 ---------------------------------------------------------------------
 Center     Atomic      Atomic             Coordinates (Angstroms)
 Number     Number       Type             X           Y           Z
 ---------------------------------------------------------------------
      1          6           0       -1.290153    1.403866    0.000050
      2          6           0       -0.823590    0.143790    0.000212
      3          6           0       -1.720197   -1.071358   -0.000192
      4          6           0        0.601814   -0.096429    0.000608
      5          6           0        1.620965   -0.909464    0.000054
      6          6           0        1.962456    0.557337   -0.000317
      7          1           0       -0.612519    2.251217    0.000252
      8          1           0       -2.355047    1.614906   -0.000500
      9          1           0       -2.775914   -0.788882   -0.000559
     10          1           0       -1.529219   -1.695713    0.880063
     11          1           0       -1.528548   -1.695610   -0.880379
     12          1           0        2.017443   -1.912649   -0.000199
     13          1           0        2.337407    1.030119   -0.913549
     14          1           0        2.338626    1.030163    0.912387
 ---------------------------------------------------------------------

 SCF Done:  E(RB3LYP) =  -233.359702513     A.U. after    1 cycles

 The electronic state is 1-A.
 Alpha  occ. eigenvalues --  -10.20641 -10.19847 -10.19443 -10.19074 -10.18476
 Alpha  occ. eigenvalues --  -10.18406  -0.86800  -0.79464  -0.68970  -0.61193
 Alpha  occ. eigenvalues --   -0.58116  -0.51895  -0.47907  -0.43634  -0.43335
 Alpha  occ. eigenvalues --   -0.41147  -0.38993  -0.36670  -0.33072  -0.28976
 Alpha  occ. eigenvalues --   -0.28362  -0.22132
 Alpha virt. eigenvalues --   -0.02588   0.08870   0.11345   0.12224   0.13842
 Alpha virt. eigenvalues --    0.14343   0.15749   0.16797   0.17561   0.20209
 Alpha virt. eigenvalues --    0.21083   0.24041   0.25855   0.31363   0.34867

 Mulliken charges:
               1
     1  C   -0.276908
     2  C    0.110974
     3  C   -0.366848
     4  C    0.114697
     5  C   -0.167788
     6  C   -0.256856
     7  H    0.108413
     8  H    0.096816
     9  H    0.109005
    10  H    0.122891
    11  H    0.122891
    12  H    0.098376
    13  H    0.092168
    14  H    0.092169
 Sum of Mulliken charges =  -0.00000

 Dipole moment (field-independent basis, Debye):
    X=             -0.6514    Y=             -0.5416    Z=             -0.0007  Tot=              0.8471
 Quadrupole moment (field-independent basis, Debye-Ang):
   XX=            -35.5729   YY=            -34.2783   ZZ=            -38.1078
   XY=             -0.8378   XZ=              0.0005   YZ=             -0.0001

  Exact polarizability:  80.615 -10.192  73.529  -0.001  -0.001  35.171
 Approx polarizability: 117.437 -32.164 121.838  -0.009   0.001  50.330

                      1                      2                      3
                      A                      A                      A
 Frequencies --    109.4179               159.3008               176.7888
 Red. masses --      2.2805                 1.0739                 2.9278
 Frc consts  --      0.0161                 0.0161                 0.0539
 IR Inten    --      0.0597                 0.0983                 0.5833

                      4                      5                      6
                      A                      A                      A
 Frequencies --    234.0024               359.1698               511.9867
 Red. masses --      2.6704                 2.5182                 3.0154
 Frc consts  --      0.0862                 0.1914                 0.4657
 IR Inten    --      5.6072                 0.4669                 1.1573

                      7                      8                      9
                      A                      A                      A
 Frequencies --    520.1909               658.5175               711.3975
 Red. masses --      2.1534                 3.0934                 1.1512
 Frc consts  --      0.3433                 0.7903                 0.3433
 IR Inten    --      0.5537                 0.0688                22.6086

                     10                     11                     12
                      A                      A                      A
 Frequencies --    766.5463               893.7301               934.2044
 Red. masses --      1.4004                 2.4341                 1.3504
 Frc consts  --      0.4848                 1.1455                 0.6944
 IR Inten    --     10.0340                 7.2110                35.0484

                     13                     14                     15
                      A                      A                      A
 Frequencies --    971.8747              1003.3459              1015.8334
 Red. masses --      1.6234                 1.4864                 1.1468
 Frc consts  --      0.9034                 0.8816                 0.6973
 IR Inten    --      6.7163                 0.7519                 0.0068

                     16                     17                     18
                      A                      A                      A
 Frequencies --   1050.8463              1074.7799              1076.0306
 Red. masses --      1.6686                 1.4695                 1.5044
 Frc consts  --      1.0856                 1.0001                 1.0263
 IR Inten    --      3.1085                 0.6227                42.1462

                     19                     20                     21
                      A                      A                      A
 Frequencies --   1107.6760              1169.0400              1315.7351
 Red. masses --      1.3056                 3.9973                 3.5031
 Frc consts  --      0.9438                 3.2187                 3.5731
 IR Inten    --      0.9510                 0.9247                 6.9317

                     22                     23                     24
                      A                      A                      A
 Frequencies --   1421.5517              1445.6053              1491.2296
 Red. masses --      1.2455                 1.2571                 1.0439
 Frc consts  --      1.4830                 1.5478                 1.3678
 IR Inten    --      3.4439                 0.1786                 6.6162

                     25                     26                     27
                      A                      A                      A
 Frequencies --   1508.0278              1537.2788              1692.2050
 Red. masses --      1.0524                 1.1033                 4.6077
 Frc consts  --      1.4101                 1.5362                 7.7739
 IR Inten    --      7.3006                 7.5254                10.0499

                     28                     29                     30
                      A                      A                      A
 Frequencies --   1839.6310              3038.2488              3041.1844
 Red. masses --      7.3952                 1.0478                 1.0366
 Frc consts  --     14.7457                 5.6987                 5.6485
 IR Inten    --     11.8293                69.3719                22.2119

                     31                     32                     33
                      A                      A                      A
 Frequencies --   3097.7015              3099.4101              3132.7376
 Red. masses --      1.1007                 1.1161                 1.1022
 Frc consts  --      6.2232                 6.3173                 6.3732
 IR Inten    --     12.7207                62.3449                17.6775

                     34                     35                     36
                      A                      A                      A
 Frequencies --   3163.4130              3254.0565              3286.2687
 Red. masses --      1.0595                 1.1170                 1.1134
 Frc consts  --      6.2469                 6.9685                 7.0843
 IR Inten    --      4.4816                 9.7174                 0.4687

 - Thermochemistry -
 -------------------
 Temperature   298.150 Kelvin.  Pressure   1.00000 Atm.
 Atom     1 has atomic number  6 and mass  12.00000

 Molecular mass:    80.06260 amu.
 Principal axes and moments of inertia in atomic units:
                           1         2         3
     Eigenvalues --   266.30004 651.92358 895.07043
           X            0.99958   0.02900   0.00000
           Y           -0.02900   0.99958  -0.00000
           Z           -0.00000   0.00000   1.00000
 This molecule is an asymmetric top.
 Rotational symmetry number  1.
 Rotational temperatures (Kelvin)      0.32525     0.13286     0.09677
 Rotational constants (GHZ):           6.77710     2.76833     2.01631
 Zero-point vibrational energy     310245.3 (Joules/Mol)
                                   74.15041 (Kcal/Mol)
 Warning -- explicit consideration of   7 degrees of freedom as
           vibrations may cause significant error
 Vibrational temperatures:    157.43   229.20   254.36   336.68   516.76
          (Kelvin)            736.63   748.44   947.46  1023.54  1102.89
                             1285.88  1344.11  1398.31  1443.59  1461.56
                             1511.93  1546.37  1548.17  1593.70  1681.99
                             1893.05  2045.29  2079.90  2145.54  2169.71
                             2211.80  2434.70  2646.82  4371.36  4375.58
                             4456.90  4459.35  4507.31  4551.44  4681.86
                             4728.20

 Zero-point correction=                           0.118166 (Hartree/Particle)
 Thermal correction to Energy=                    0.124938
 Thermal correction to Enthalpy=                  0.125882
 Thermal correction to Gibbs Free Energy=         0.087934
 Sum of electronic and zero-point Energies=           -233.241536
 Sum of electronic and thermal Energies=              -233.234765
 Sum of electronic and thermal Enthalpies=            -233.233821
 Sum of electronic and thermal Free Energies=         -233.271769

                     E (Thermal)             CV                S
                      KCal/Mol        Cal/Mol-Kelvin    Cal/Mol-Kelvin
 Total                   78.400             24.006             79.868
 Electronic               0.000              0.000              0.000
 Translational            0.889              2.981             39.055
 Rotational               0.889              2.981             26.544
 Vibrational             76.622             18.044             14.269
 Vibration     1          0.606              1.942              3.279
 Vibration     2          0.621              1.892              2.558
 Vibration     3          0.628              1.871              2.362
 Vibration     4          0.654              1.789              1.848
 Vibration     5          0.734              1.556              1.126
 Vibration     6          0.867              1.223              0.629
 Vibration     7          0.875              1.205              0.610

 Optimization completed.
    -- Stationary point found.
 Normal termination of Gaussian 09 at Sat Aug 21 01:39:29 2021.
