 Gaussian 09, Revision D.01,
 Gaussian 09:  ES64L-G09RevD.01 24-Apr-2013

 -------------------------
 #P OPT Freq B3LYP/6-31G**
 -------------------------

 ------
 Frag_2
 ------
 Symbolic Z-matrix:
 Charge =  0 Multiplicity = 1

 SCF Done:  E(RB3LYP) =  -232.447656554     A.U. after   14 cycles
 Optimization completed.
    -- Stationary point found.
 Normal termination of Gaussian 09 at Fri Jul 23 04:53:10 2021.

 ----------------------------------------------------------------------
 #P Geom=AllCheck Guess=TCheck SCRF=Check GenChk RB3LYP/6-31G(d,p) Freq
 ----------------------------------------------------------------------

 Structure from the checkpoint file:  "/vol2/users/liuj201281/HOFBenchmark/IsodesmicSplit/Sample60/Ring26/Running/Gau-4628.chk"
 ------
 Frag_2
 ------
 Charge =  0 Multiplicity = 1

                         Standard orientation:
 ---------------------------------------------------------------------
 Center     Atomic      Atomic             Coordinates (Angstroms)
 Number     Number       Type             X           Y           Z
 ---------------------------------------------------------------------
      1          6           0       -0.394803    1.461092    0.000005
      2          6           0       -0.473393    0.123291   -0.000095
      3          6           0       -1.757788   -0.654618    0.000105
      4          8           0        0.589313   -0.736301   -0.000095
      5          6           0        1.890409   -0.171191    0.000005
      6          1           0        0.541393    2.003899    0.000205
      7          1           0       -1.304808    2.047385   -0.000195
      8          1           0       -1.811383   -1.302618    0.881805
      9          1           0       -1.810783   -1.304318   -0.880395
     10          1           0       -2.620893    0.013176   -0.000995
     11          1           0        2.058104    0.445310   -0.892295
     12          1           0        2.589315   -1.009086    0.000005
     13          1           0        2.058004    0.445210    0.892505
 ---------------------------------------------------------------------

 SCF Done:  E(RB3LYP) =  -232.447656554     A.U. after    1 cycles

 The electronic state is 1-A.
 Alpha  occ. eigenvalues --  -19.17077 -10.23921 -10.23395 -10.18020 -10.15893
 Alpha  occ. eigenvalues --   -1.05558  -0.77998  -0.69890  -0.68037  -0.54810
 Alpha  occ. eigenvalues --   -0.48474  -0.46998  -0.46242  -0.41028  -0.40668
 Alpha  occ. eigenvalues --   -0.38455  -0.36264  -0.32814  -0.32130  -0.21875
 Alpha virt. eigenvalues --    0.04760   0.10327   0.11466   0.13519   0.15689
 Alpha virt. eigenvalues --    0.16404   0.16640   0.18472   0.19243   0.19886
 Alpha virt. eigenvalues --    0.25544   0.31708   0.37579   0.50086   0.52348

 Mulliken charges:
               1
     1  C   -0.333375
     2  C    0.379605
     3  C   -0.362590
     4  O   -0.487604
     5  C   -0.077137
     6  H    0.087954
     7  H    0.089500
     8  H    0.125471
     9  H    0.125441
    10  H    0.112830
    11  H    0.110683
    12  H    0.118564
    13  H    0.110660
 Sum of Mulliken charges =   0.00000

 Dipole moment (field-independent basis, Debye):
    X=              0.5564    Y=              0.2083    Z=              0.0002  Tot=              0.5941
 Quadrupole moment (field-independent basis, Debye-Ang):
   XX=            -26.5270   YY=            -32.2844   ZZ=            -32.6985
   XY=              0.6702   XZ=              0.0005   YZ=             -0.0004

  Exact polarizability:  52.839  -0.707  54.445   0.001   0.001  31.378
 Approx polarizability:  62.887  -1.698  85.657   0.002   0.002  43.250

                      1                      2                      3
                      A                      A                      A
 Frequencies --    145.3000               170.1535               264.0950
 Red. masses --      3.0288                 1.0395                 1.0628
 Frc consts  --      0.0377                 0.0177                 0.0437
 IR Inten    --      6.9630                 0.0340                 0.0721

                      4                      5                      6
                      A                      A                      A
 Frequencies --    312.9477               414.1417               517.5242
 Red. masses --      2.6729                 2.3963                 2.1712
 Frc consts  --      0.1542                 0.2422                 0.3426
 IR Inten    --      4.3903                 1.5156                 0.3352

                      7                      8                      9
                      A                      A                      A
 Frequencies --    544.6002               736.7866               818.4790
 Red. masses --      2.6618                 1.1669                 1.3555
 Frc consts  --      0.4651                 0.3732                 0.5350
 IR Inten    --      2.0316                 0.2096                61.3656

                     10                     11                     12
                      A                      A                      A
 Frequencies --    845.7275               955.4427              1017.3426
 Red. masses --      3.3836                 1.8951                 1.4949
 Frc consts  --      1.4259                 1.0193                 0.9116
 IR Inten    --     14.6721                10.5922                 4.9056

                     13                     14                     15
                      A                      A                      A
 Frequencies --   1079.1765              1127.6684              1181.5205
 Red. masses --      1.5031                 3.7918                 1.2825
 Frc consts  --      1.0314                 2.8409                 1.0548
 IR Inten    --      1.9233                67.9871                 0.9572

                     16                     17                     18
                      A                      A                      A
 Frequencies --   1227.2993              1326.2534              1418.9996
 Red. masses --      1.4583                 3.2171                 1.2399
 Frc consts  --      1.2942                 3.3340                 1.4710
 IR Inten    --      9.1054               163.7069                22.3138

                     19                     20                     21
                      A                      A                      A
 Frequencies --   1450.9414              1485.9522              1493.2194
 Red. masses --      1.3072                 1.0440                 1.1527
 Frc consts  --      1.6214                 1.3582                 1.5143
 IR Inten    --      3.5952                 5.7058                 3.3999

                     22                     23                     24
                      A                      A                      A
 Frequencies --   1501.6675              1507.7257              1523.6924
 Red. masses --      1.0462                 1.0849                 1.0505
 Frc consts  --      1.3900                 1.4531                 1.4370
 IR Inten    --      5.6755                10.0605                 8.3942

                     25                     26                     27
                      A                      A                      A
 Frequencies --   1725.3862              3017.7622              3048.0669
 Red. masses --      5.2068                 1.0341                 1.0376
 Frc consts  --      9.1326                 5.5484                 5.6795
 IR Inten    --    110.3347                38.2957                19.5663

                     28                     29                     30
                      A                      A                      A
 Frequencies --   3078.5724              3104.3131              3147.6119
 Red. masses --      1.1057                 1.1007                 1.1009
 Frc consts  --      6.1746                 6.2497                 6.4261
 IR Inten    --     42.9554                17.9121                22.6505

                     31                     32                     33
                      A                      A                      A
 Frequencies --   3151.9652              3195.4463              3278.4791
 Red. masses --      1.1013                 1.0605                 1.1160
 Frc consts  --      6.4466                 6.3801                 7.0674
 IR Inten    --     16.6354                 0.6133                11.2249

 - Thermochemistry -
 -------------------
 Temperature   298.150 Kelvin.  Pressure   1.00000 Atm.
 Atom     1 has atomic number  6 and mass  12.00000

 Molecular mass:    72.05751 amu.
 Principal axes and moments of inertia in atomic units:
                           1         2         3
     Eigenvalues --   200.53602 443.39173 621.28687
           X            0.99943   0.03376   0.00002
           Y           -0.03376   0.99943   0.00000
           Z           -0.00002   0.00000   1.00000
 This molecule is an asymmetric top.
 Rotational symmetry number  1.
 Rotational temperatures (Kelvin)      0.43191     0.19534     0.13941
 Rotational constants (GHZ):           8.99959     4.07031     2.90484
 Zero-point vibrational energy     297955.4 (Joules/Mol)
                                   71.21306 (Kcal/Mol)
 Warning -- explicit consideration of   7 degrees of freedom as
           vibrations may cause significant error
 Vibrational temperatures:    209.05   244.81   379.97   450.26   595.86
          (Kelvin)            744.60   783.56  1060.07  1177.61  1216.81
                             1374.67  1463.73  1552.69  1622.46  1699.94
                             1765.81  1908.18  2041.62  2087.58  2137.95
                             2148.41  2160.56  2169.28  2192.25  2482.44
                             4341.88  4385.48  4429.37  4466.41  4528.71
                             4534.97  4597.53  4716.99

 Zero-point correction=                           0.113485 (Hartree/Particle)
 Thermal correction to Energy=                    0.119598
 Thermal correction to Enthalpy=                  0.120542
 Thermal correction to Gibbs Free Energy=         0.084602
 Sum of electronic and zero-point Energies=           -232.334171
 Sum of electronic and thermal Energies=              -232.328058
 Sum of electronic and thermal Enthalpies=            -232.327114
 Sum of electronic and thermal Free Energies=         -232.363055

                     E (Thermal)             CV                S
                      KCal/Mol        Cal/Mol-Kelvin    Cal/Mol-Kelvin
 Total                   75.049             21.376             75.643
 Electronic               0.000              0.000              0.000
 Translational            0.889              2.981             38.741
 Rotational               0.889              2.981             25.516
 Vibrational             73.271             15.414             11.385
 Vibration     1          0.617              1.908              2.733
 Vibration     2          0.625              1.879              2.434
 Vibration     3          0.671              1.739              1.635
 Vibration     4          0.701              1.649              1.347
 Vibration     5          0.778              1.440              0.912
 Vibration     6          0.873              1.211              0.616
 Vibration     7          0.900              1.152              0.555

 Optimization completed.
    -- Stationary point found.
 Normal termination of Gaussian 09 at Fri Jul 23 04:53:37 2021.
