 Gaussian 09, Revision E.01,
 Gaussian 09:  ES64L-G09RevE.01 30-Nov-2015

 -------------------------
 #P OPT Freq B3LYP/6-31G**
 -------------------------

 --------
 Frag_279
 --------
 Symbolic Z-matrix:
 Charge =  0 Multiplicity = 1

 SCF Done:  E(RB3LYP) =  -280.558521196     A.U. after   14 cycles
 SCF Done:  E(RB3LYP) =  -280.573763873     A.U. after   12 cycles
 SCF Done:  E(RB3LYP) =  -280.574443470     A.U. after   12 cycles
 SCF Done:  E(RB3LYP) =  -280.574792474     A.U. after   12 cycles
 SCF Done:  E(RB3LYP) =  -280.575955532     A.U. after   12 cycles
 SCF Done:  E(RB3LYP) =  -280.578249530     A.U. after   12 cycles
 SCF Done:  E(RB3LYP) =  -280.580370644     A.U. after   12 cycles
 SCF Done:  E(RB3LYP) =  -280.581252974     A.U. after   12 cycles
 SCF Done:  E(RB3LYP) =  -280.581679651     A.U. after   12 cycles
 SCF Done:  E(RB3LYP) =  -280.581804590     A.U. after   11 cycles
 SCF Done:  E(RB3LYP) =  -280.581990158     A.U. after   11 cycles
 SCF Done:  E(RB3LYP) =  -280.582159253     A.U. after   11 cycles
 SCF Done:  E(RB3LYP) =  -280.582176660     A.U. after   10 cycles
 SCF Done:  E(RB3LYP) =  -280.582177983     A.U. after    8 cycles
 SCF Done:  E(RB3LYP) =  -280.582178346     A.U. after    7 cycles
 Optimization completed.
    -- Stationary point found.
 Normal termination of Gaussian 09 at Sat Aug 21 01:35:10 2021.

 ----------------------------------------------------------------------
 #P Geom=AllCheck Guess=TCheck SCRF=Check GenChk RB3LYP/6-31G(d,p) Freq
 ----------------------------------------------------------------------

 Structure from the checkpoint file:  "/public/home/users/caep010/.cache/gau_scr/Gau-32306.chk"
 --------
 Frag_279
 --------
 Charge =  0 Multiplicity = 1

                         Standard orientation:
 ---------------------------------------------------------------------
 Center     Atomic      Atomic             Coordinates (Angstroms)
 Number     Number       Type             X           Y           Z
 ---------------------------------------------------------------------
      1          7           0       -1.879926    0.058366   -0.032158
      2          7           0       -0.652649   -0.619864   -0.062869
      3          6           0        0.509568    0.155005   -0.011340
      4          7           0        1.650450   -0.645874    0.090223
      5          8           0        0.544750    1.369067   -0.022198
      6          1           0       -2.550043   -0.453308   -0.595419
      7          1           0       -2.234066    0.148366    0.917879
      8          1           0       -0.588683   -1.502903    0.436596
      9          1           0        2.493403   -0.106994   -0.053535
     10          1           0        1.638851   -1.516123   -0.426269
 ---------------------------------------------------------------------

 SCF Done:  E(RB3LYP) =  -280.582178346     A.U. after    1 cycles

 The electronic state is 1-A.
 Alpha  occ. eigenvalues --  -19.09983 -14.37513 -14.35458 -14.34449 -10.30115
 Alpha  occ. eigenvalues --   -1.03876  -0.96728  -0.89687  -0.78513  -0.58752
 Alpha  occ. eigenvalues --   -0.54950  -0.52710  -0.50892  -0.45809  -0.40533
 Alpha  occ. eigenvalues --   -0.40228  -0.27249  -0.26995  -0.25237  -0.24430
 Alpha virt. eigenvalues --    0.05403   0.06611   0.07802   0.13214   0.14046
 Alpha virt. eigenvalues --    0.15663   0.21762   0.25657   0.36640   0.38167
 Alpha virt. eigenvalues --    0.56353   0.58414   0.60679   0.64717   0.66898

 Mulliken charges:
               1
     1  N   -0.427752
     2  N   -0.455244
     3  C    0.704790
     4  N   -0.636034
     5  O   -0.485522
     6  H    0.259256
     7  H    0.254217
     8  H    0.251453
     9  H    0.276224
    10  H    0.258612
 Sum of Mulliken charges =  -0.00000

 Dipole moment (field-independent basis, Debye):
    X=             -0.6474    Y=             -4.5123    Z=              0.3408  Tot=              4.5712
 Quadrupole moment (field-independent basis, Debye-Ang):
   XX=            -20.2194   YY=            -31.2602   ZZ=            -28.8956
   XY=              0.7678   XZ=             -3.5525   YZ=              1.1389

  Exact polarizability:  43.920  -0.819  36.327  -0.055   0.862  21.132
 Approx polarizability:  52.879  -0.890  59.924   1.345   1.091  29.428

                      1                      2                      3
                      A                      A                      A
 Frequencies --    160.8164               201.2637               316.5584
 Red. masses --      2.1810                 1.7008                 2.8000
 Frc consts  --      0.0332                 0.0406                 0.1653
 IR Inten    --     21.8736                71.5101                10.0081

                      4                      5                      6
                      A                      A                      A
 Frequencies --    406.0739               473.3640               548.4815
 Red. masses --      1.0888                 2.9904                 1.5223
 Frc consts  --      0.1058                 0.3948                 0.2698
 IR Inten    --     38.6280                11.4709               120.0342

                      7                      8                      9
                      A                      A                      A
 Frequencies --    612.7882               675.0507               772.5375
 Red. masses --      1.3653                 2.6705                 4.5918
 Frc consts  --      0.3021                 0.7170                 1.6146
 IR Inten    --    128.5166                62.6083               109.0370

                     10                     11                     12
                      A                      A                      A
 Frequencies --    837.4292               961.7336              1101.4282
 Red. masses --      1.6167                 2.9971                 2.0671
 Frc consts  --      0.6680                 1.6333                 1.4775
 IR Inten    --    110.1197                10.2050                38.4381

                     13                     14                     15
                      A                      A                      A
 Frequencies --   1214.5345              1323.4965              1332.2678
 Red. masses --      2.7550                 1.7996                 1.2917
 Frc consts  --      2.3944                 1.8572                 1.3508
 IR Inten    --      2.4520               113.5170                56.1791

                     16                     17                     18
                      A                      A                      A
 Frequencies --   1524.1049              1631.0533              1692.5210
 Red. masses --      1.6116                 1.1747                 1.1256
 Frc consts  --      2.2057                 1.8412                 1.8997
 IR Inten    --     87.1050                86.6782                24.8295

                     19                     20                     21
                      A                      A                      A
 Frequencies --   1851.4456              3475.0768              3504.0019
 Red. masses --      7.8019                 1.0491                 1.0755
 Frc consts  --     15.7570                 7.4645                 7.7800
 IR Inten    --    306.8273                 6.0572                10.8402

                     22                     23                     24
                      A                      A                      A
 Frequencies --   3565.8068              3593.5206              3685.8789
 Red. masses --      1.0481                 1.0948                 1.0983
 Frc consts  --      7.8521                 8.3299                 8.7915
 IR Inten    --     16.9355                 1.1443                25.8495

 - Thermochemistry -
 -------------------
 Temperature   298.150 Kelvin.  Pressure   1.00000 Atm.
 Atom     1 has atomic number  7 and mass  14.00307

 Molecular mass:    75.04326 amu.
 Principal axes and moments of inertia in atomic units:
                           1         2         3
     Eigenvalues --   171.27217 443.27901 602.04138
           X            0.99983  -0.01258  -0.01345
           Y            0.01270   0.99988   0.00898
           Z            0.01334  -0.00915   0.99987
 This molecule is an asymmetric top.
 Rotational symmetry number  1.
 Rotational temperatures (Kelvin)      0.50571     0.19539     0.14387
 Rotational constants (GHZ):          10.53727     4.07134     2.99770
 Zero-point vibrational energy     212105.3 (Joules/Mol)
                                   50.69438 (Kcal/Mol)
 Warning -- explicit consideration of   7 degrees of freedom as
           vibrations may cause significant error
 Vibrational temperatures:    231.38   289.57   455.46   584.25   681.06
          (Kelvin)            789.14   881.66   971.25  1111.51  1204.87
                             1383.72  1584.71  1747.44  1904.21  1916.83
                             2192.84  2346.72  2435.16  2663.81  4999.85
                             5041.47  5130.39  5170.27  5303.15

 Zero-point correction=                           0.080787 (Hartree/Particle)
 Thermal correction to Energy=                    0.086486
 Thermal correction to Enthalpy=                  0.087430
 Thermal correction to Gibbs Free Energy=         0.052340
 Sum of electronic and zero-point Energies=           -280.501392
 Sum of electronic and thermal Energies=              -280.495692
 Sum of electronic and thermal Enthalpies=            -280.494748
 Sum of electronic and thermal Free Energies=         -280.529839

                     E (Thermal)             CV                S
                      KCal/Mol        Cal/Mol-Kelvin    Cal/Mol-Kelvin
 Total                   54.271             19.752             73.855
 Electronic               0.000              0.000              0.000
 Translational            0.889              2.981             38.862
 Rotational               0.889              2.981             25.328
 Vibrational             52.493             13.790              9.664
 Vibration     1          0.622              1.890              2.540
 Vibration     2          0.638              1.838              2.122
 Vibration     3          0.703              1.642              1.328
 Vibration     4          0.771              1.457              0.941
 Vibration     5          0.830              1.309              0.728
 Vibration     6          0.904              1.143              0.547
 Vibration     7          0.972              1.005              0.428

 Optimization completed.
    -- Stationary point found.
 Normal termination of Gaussian 09 at Sat Aug 21 01:35:17 2021.
