 Gaussian 09, Revision E.01,
 Gaussian 09:  ES64L-G09RevE.01 30-Nov-2015

 ----------------------------
 #P OPT Freq B3LYP/6-31G(d,p)
 ----------------------------

 --------
 Frag_518
 --------
 Symbolic Z-matrix:
 Charge =  0 Multiplicity = 1

 SCF Done:  E(RB3LYP) =  -251.903077825     A.U. after   13 cycles
 SCF Done:  E(RB3LYP) =  -251.903109059     A.U. after    8 cycles
 SCF Done:  E(RB3LYP) =  -251.903114087     A.U. after    8 cycles
 SCF Done:  E(RB3LYP) =  -251.903113972     A.U. after    7 cycles
 Optimization completed.
    -- Stationary point found.
 Normal termination of Gaussian 09 at Thu Sep  8 15:03:50 2022.

 ----------------------------------------------------------------------
 #P Geom=AllCheck Guess=TCheck SCRF=Check GenChk RB3LYP/6-31G(d,p) Freq
 ----------------------------------------------------------------------

 Structure from the checkpoint file:  "B3LYP6-31Gdp.Frag_518.chk"
 --------
 Frag_518
 --------
 Charge =  0 Multiplicity = 1

                         Standard orientation:
 ---------------------------------------------------------------------
 Center     Atomic      Atomic             Coordinates (Angstroms)
 Number     Number       Type             X           Y           Z
 ---------------------------------------------------------------------
      1          6           0       -2.067700   -0.148349    0.000021
      2          7           0       -0.949955   -0.745174    0.000032
      3          6           0        0.323302    0.001521   -0.000001
      4          6           0        1.078868   -0.465949   -1.259584
      5          6           0        0.202489    1.534880   -0.000048
      6          6           0        1.078873   -0.465864    1.259609
      7          1           0       -2.979688   -0.750047   -0.000042
      8          1           0       -2.209126    0.939637   -0.000060
      9          1           0        0.555557   -0.146869   -2.166792
     10          1           0        1.150984   -1.556679   -1.275693
     11          1           0        2.089847   -0.045939   -1.280446
     12          1           0       -0.324476    1.901316   -0.887593
     13          1           0       -0.324482    1.901375    0.887468
     14          1           0        1.199665    1.985157   -0.000061
     15          1           0        1.150985   -1.556593    1.275787
     16          1           0        2.089852   -0.045854    1.280431
     17          1           0        0.555569   -0.146723    2.166800
 ---------------------------------------------------------------------

 SCF Done:  E(RB3LYP) =  -251.903113972     A.U. after    1 cycles

 The electronic state is 1-A.
 Alpha  occ. eigenvalues --  -14.32496 -10.22178 -10.21882 -10.17560 -10.17149
 Alpha  occ. eigenvalues --  -10.17149  -0.91443  -0.78707  -0.68926  -0.68263
 Alpha  occ. eigenvalues --   -0.62233  -0.53009  -0.48075  -0.45412  -0.44032
 Alpha  occ. eigenvalues --   -0.42083  -0.39196  -0.38395  -0.36394  -0.36296
 Alpha  occ. eigenvalues --   -0.34305  -0.32779  -0.29416  -0.24150
 Alpha virt. eigenvalues --    0.00106   0.08751   0.12575   0.12768   0.15098
 Alpha virt. eigenvalues --    0.15589   0.16083   0.16691   0.19195   0.19864
 Alpha virt. eigenvalues --    0.20590   0.22146   0.22543   0.24620   0.24660

 Mulliken charges:
               1
     1  C   -0.032963
     2  N   -0.319634
     3  C    0.131817
     4  C   -0.288556
     5  C   -0.320660
     6  C   -0.288554
     7  H    0.100848
     8  H    0.084287
     9  H    0.101217
    10  H    0.115188
    11  H    0.095953
    12  H    0.102747
    13  H    0.102748
    14  H    0.103205
    15  H    0.115188
    16  H    0.095951
    17  H    0.101217
 Sum of Mulliken charges =  -0.00000

 Dipole moment (field-independent basis, Debye):
    X=              0.0219    Y=              1.3526    Z=             -0.0001  Tot=              1.3528
 Quadrupole moment (field-independent basis, Debye-Ang):
   XX=            -36.1146   YY=            -40.7036   ZZ=            -39.2951
   XY=             -1.2883   XZ=              0.0002   YZ=              0.0001

  Exact polarizability:  73.843  -1.836  57.153   0.000  -0.000  51.581
 Approx polarizability: 102.814  -6.323  81.676  -0.000  -0.000  69.646

                      1                      2                      3
                      A                      A                      A
 Frequencies --    104.0261               224.6309               269.5494
 Red. masses --      2.8447                 1.0185                 1.0332
 Frc consts  --      0.0181                 0.0303                 0.0442
 IR Inten    --      6.9737                 0.0902                 0.1794

                      4                      5                      6
                      A                      A                      A
 Frequencies --    298.7963               319.4518               342.0530
 Red. masses --      1.0348                 2.4570                 2.2740
 Frc consts  --      0.0544                 0.1477                 0.1568
 IR Inten    --      0.0078                 0.8663                 3.6362

                      7                      8                      9
                      A                      A                      A
 Frequencies --    367.3069               411.8501               416.6171
 Red. masses --      2.3980                 2.3025                 1.9458
 Frc consts  --      0.1906                 0.2301                 0.1990
 IR Inten    --      1.5099                 0.6130                 4.3599

                     10                     11                     12
                      A                      A                      A
 Frequencies --    534.1616               718.1346               750.5735
 Red. masses --      2.7518                 3.7349                 1.3720
 Frc consts  --      0.4626                 1.1349                 0.4554
 IR Inten    --      4.1545                 2.6085                 2.0899

                     13                     14                     15
                      A                      A                      A
 Frequencies --    864.8575               927.7894               931.6563
 Red. masses --      2.4196                 1.6158                 1.6641
 Frc consts  --      1.0663                 0.8195                 0.8510
 IR Inten    --      4.9647                 0.0177                 0.3324

                     16                     17                     18
                      A                      A                      A
 Frequencies --    965.1964              1048.3889              1052.1982
 Red. masses --      1.2067                 1.4092                 1.3663
 Frc consts  --      0.6623                 0.9126                 0.8913
 IR Inten    --      0.0042                 0.5468                 1.7540

                     19                     20                     21
                      A                      A                      A
 Frequencies --   1059.5992              1212.3409              1242.8555
 Red. masses --      1.3762                 1.5633                 2.4127
 Frc consts  --      0.9104                 1.3538                 2.1958
 IR Inten    --     13.5418                 0.5406                26.9809

                     22                     23                     24
                      A                      A                      A
 Frequencies --   1255.1908              1276.4218              1405.3849
 Red. masses --      2.8511                 2.4613                 1.2422
 Frc consts  --      2.6465                 2.3627                 1.4455
 IR Inten    --     10.2267                21.1110                 5.2274

                     25                     26                     27
                      A                      A                      A
 Frequencies --   1407.8867              1433.8882              1488.8656
 Red. masses --      1.2676                 1.2249                 1.0482
 Frc consts  --      1.4804                 1.4838                 1.3690
 IR Inten    --     10.8101                 2.8944                 0.0097

                     28                     29                     30
                      A                      A                      A
 Frequencies --   1498.1744              1501.4376              1511.6379
 Red. masses --      1.0570                 1.0446                 1.0596
 Frc consts  --      1.3978                 1.3874                 1.4266
 IR Inten    --      0.3699                 0.3138                 4.9472

                     31                     32                     33
                      A                      A                      A
 Frequencies --   1515.0940              1516.0867              1536.3866
 Red. masses --      1.1156                 1.0520                 1.0781
 Frc consts  --      1.5088                 1.4246                 1.4994
 IR Inten    --      5.7290                 3.7974                 5.4441

                     34                     35                     36
                      A                      A                      A
 Frequencies --   1746.5993              3037.2478              3043.3412
 Red. masses --      6.0966                 1.0445                 1.0345
 Frc consts  --     10.9579                 5.6768                 5.6455
 IR Inten    --     18.2584                 2.3674                28.4827

                     37                     38                     39
                      A                      A                      A
 Frequencies --   3044.4752              3050.4878              3110.5109
 Red. masses --      1.0472                 1.0381                 1.1028
 Frc consts  --      5.7187                 5.6916                 6.2865
 IR Inten    --     58.3514                 8.1437                11.1941

                     40                     41                     42
                      A                      A                      A
 Frequencies --   3114.8107              3116.4848              3122.0168
 Red. masses --      1.1022                 1.1028                 1.1015
 Frc consts  --      6.3003                 6.3108                 6.3259
 IR Inten    --      0.3348                35.3188                66.4090

                     43                     44                     45
                      A                      A                      A
 Frequencies --   3131.3420              3135.3032              3136.2480
 Red. masses --      1.1029                 1.1077                 1.1049
 Frc consts  --      6.3715                 6.4155                 6.4030
 IR Inten    --      3.0552                 4.7138                77.4566

 - Thermochemistry -
 -------------------
 Temperature   298.150 Kelvin.  Pressure   1.00000 Atm.
 Atom     1 has atomic number  6 and mass  12.00000

 Molecular mass:    85.08915 amu.
 Principal axes and moments of inertia in atomic units:
                           1         2         3
     Eigenvalues --   409.62694 631.94786 643.65502
           X            0.99917  -0.04064   0.00000
           Y            0.04064   0.99917   0.00001
           Z           -0.00000  -0.00001   1.00000
 This molecule is an asymmetric top.
 Rotational symmetry number  1.
 Rotational temperatures (Kelvin)      0.21145     0.13706     0.13457
 Rotational constants (GHZ):           4.40582     2.85584     2.80390
 Zero-point vibrational energy     401929.4 (Joules/Mol)
                                   96.06344 (Kcal/Mol)
 Warning -- explicit consideration of  10 degrees of freedom as
           vibrations may cause significant error
 Vibrational temperatures:    149.67   323.19   387.82   429.90   459.62
          (Kelvin)            492.14   528.47   592.56   599.42   768.54
                             1033.23  1079.91  1244.34  1334.88  1340.44
                             1388.70  1508.40  1513.88  1524.52  1744.29
                             1788.19  1805.94  1836.48  2022.03  2025.63
                             2063.04  2142.14  2155.54  2160.23  2174.91
                             2179.88  2181.31  2210.51  2512.96  4369.92
                             4378.68  4380.32  4388.97  4475.33  4481.51
                             4483.92  4491.88  4505.30  4511.00  4512.36

 Zero-point correction=                           0.153087 (Hartree/Particle)
 Thermal correction to Energy=                    0.160553
 Thermal correction to Enthalpy=                  0.161497
 Thermal correction to Gibbs Free Energy=         0.122664
 Sum of electronic and zero-point Energies=           -251.750027
 Sum of electronic and thermal Energies=              -251.742561
 Sum of electronic and thermal Enthalpies=            -251.741617
 Sum of electronic and thermal Free Energies=         -251.780450

                     E (Thermal)             CV                S
                      KCal/Mol        Cal/Mol-Kelvin    Cal/Mol-Kelvin
 Total                  100.748             27.870             81.730
 Electronic               0.000              0.000              0.000
 Translational            0.889              2.981             39.237
 Rotational               0.889              2.981             26.613
 Vibrational             98.971             21.909             15.880
 Vibration     1          0.605              1.946              3.377
 Vibration     2          0.649              1.804              1.921
 Vibration     3          0.674              1.729              1.599
 Vibration     4          0.692              1.676              1.424
 Vibration     5          0.705              1.636              1.313
 Vibration     6          0.721              1.591              1.203
 Vibration     7          0.740              1.539              1.091
 Vibration     8          0.776              1.445              0.920
 Vibration     9          0.780              1.434              0.904
 Vibration    10          0.889              1.174              0.578

 Optimization completed.
    -- Stationary point found.
 Normal termination of Gaussian 09 at Thu Sep  8 15:04:05 2022.
