 Gaussian 09, Revision E.01,
 Gaussian 09:  ES64L-G09RevE.01 30-Nov-2015

 --------------------------------
 #P OPT=calcfc Freq B3LYP/6-31G**
 --------------------------------

 --------
 Frag_422
 --------
 Symbolic Z-matrix:
 Charge =  0 Multiplicity = 1

 SCF Done:  E(RB3LYP) =  -225.107232220     A.U. after   14 cycles
 SCF Done:  E(RB3LYP) =  -225.127965002     A.U. after   13 cycles
 SCF Done:  E(RB3LYP) =  -225.132572880     A.U. after   15 cycles
 SCF Done:  E(RB3LYP) =  -225.132937569     A.U. after   12 cycles
 SCF Done:  E(RB3LYP) =  -225.131898267     A.U. after   13 cycles
 SCF Done:  E(RB3LYP) =  -225.133913828     A.U. after   11 cycles
 SCF Done:  E(RB3LYP) =  -225.134580761     A.U. after   13 cycles
 SCF Done:  E(RB3LYP) =  -225.134665244     A.U. after   11 cycles
 SCF Done:  E(RB3LYP) =  -225.134688147     A.U. after   11 cycles
 SCF Done:  E(RB3LYP) =  -225.134692449     A.U. after   11 cycles
 SCF Done:  E(RB3LYP) =  -225.134694205     A.U. after    8 cycles
 SCF Done:  E(RB3LYP) =  -225.134694262     A.U. after    8 cycles
 Optimization completed.
    -- Stationary point found.
 Normal termination of Gaussian 09 at Fri Sep 10 20:45:14 2021.

 ----------------------------------------------------------------------
 #P Geom=AllCheck Guess=TCheck SCRF=Check GenChk RB3LYP/6-31G(d,p) Freq
 ----------------------------------------------------------------------

 Structure from the checkpoint file:  "/public/home/users/caep010/.cache/gau_scr/Gau-163227.chk"
 --------
 Frag_422
 --------
 Charge =  0 Multiplicity = 1

                         Standard orientation:
 ---------------------------------------------------------------------
 Center     Atomic      Atomic             Coordinates (Angstroms)
 Number     Number       Type             X           Y           Z
 ---------------------------------------------------------------------
      1          6           0        1.215961    0.588567   -0.003735
      2          7           0        0.093684   -0.081241   -0.008562
      3          7           0       -1.123658    0.676649   -0.104185
      4          8           0       -0.048347   -1.329075    0.020279
      5          1           0        1.184294    1.660699   -0.118246
      6          1           0        2.128252    0.019632    0.076279
      7          1           0       -1.840021   -0.040470   -0.013491
      8          1           0       -1.171701    1.293481    0.704873
 ---------------------------------------------------------------------

 SCF Done:  E(RB3LYP) =  -225.134694262     A.U. after    1 cycles

 The electronic state is 1-A.
 Alpha  occ. eigenvalues --  -19.13273 -14.51254 -14.38196 -10.21913  -1.13578
 Alpha  occ. eigenvalues --   -0.93136  -0.82847  -0.61874  -0.54359  -0.52718
 Alpha  occ. eigenvalues --   -0.48184  -0.45171  -0.42093  -0.30940  -0.25799
 Alpha  occ. eigenvalues --   -0.22544
 Alpha virt. eigenvalues --   -0.01905   0.07339   0.11257   0.12690   0.14053
 Alpha virt. eigenvalues --    0.17634   0.26574   0.31053   0.53950   0.57077
 Alpha virt. eigenvalues --    0.60361   0.61299   0.62959   0.67965   0.73564

 Mulliken charges:
               1
     1  C   -0.106748
     2  N    0.214891
     3  N   -0.427210
     4  O   -0.492226
     5  H    0.121562
     6  H    0.139664
     7  H    0.277862
     8  H    0.272203
 Sum of Mulliken charges =  -0.00000

 Dipole moment (field-independent basis, Debye):
    X=             -0.4152    Y=              2.6769    Z=              1.3095  Tot=              3.0088
 Quadrupole moment (field-independent basis, Debye-Ang):
   XX=            -18.9387   YY=            -25.8925   ZZ=            -24.5329
   XY=              0.3836   XZ=             -1.7842   YZ=              1.8833

  Exact polarizability:  40.376   5.141  36.672  -0.249   0.824  14.794
 Approx polarizability:  61.607  18.643  70.758   0.765   1.211  20.600

                      1                      2                      3
                      A                      A                      A
 Frequencies --    119.4586               491.5638               576.7822
 Red. masses --      1.1050                 2.3690                 4.6149
 Frc consts  --      0.0093                 0.3373                 0.9046
 IR Inten    --     38.6645                 0.9540                 4.8756

                      4                      5                      6
                      A                      A                      A
 Frequencies --    613.6458               668.1263               719.8798
 Red. masses --      1.9615                 1.2896                 1.5877
 Frc consts  --      0.4352                 0.3392                 0.4848
 IR Inten    --      4.5188                49.5267                58.1620

                      7                      8                      9
                      A                      A                      A
 Frequencies --    817.5457              1032.9384              1104.0370
 Red. masses --      3.1524                 1.4494                 1.8993
 Frc consts  --      1.2414                 0.9111                 1.3640
 IR Inten    --    126.1320                86.6736                25.5270

                     10                     11                     12
                      A                      A                      A
 Frequencies --   1258.4389              1345.1083              1479.6987
 Red. masses --      1.3696                 2.3945                 1.3794
 Frc consts  --      1.2780                 2.5525                 1.7794
 IR Inten    --     64.7168                40.1179                13.1477

                     13                     14                     15
                      A                      A                      A
 Frequencies --   1621.8766              1722.4921              3219.1144
 Red. masses --      1.2160                 3.6902                 1.0508
 Frc consts  --      1.8846                 6.4509                 6.4160
 IR Inten    --     80.4914               150.6481                 4.8521

                     16                     17                     18
                      A                      A                      A
 Frequencies --   3352.4158              3484.1245              3596.1815
 Red. masses --      1.1268                 1.0480                 1.0958
 Frc consts  --      7.4614                 7.4954                 8.3495
 IR Inten    --      0.2308                10.2946                20.4936

 - Thermochemistry -
 -------------------
 Temperature   298.150 Kelvin.  Pressure   1.00000 Atm.
 Atom     1 has atomic number  6 and mass  12.00000

 Molecular mass:    60.03236 amu.
 Principal axes and moments of inertia in atomic units:
                           1         2         3
     Eigenvalues --   156.39130 168.29063 320.05292
           X            0.98333   0.18108  -0.01662
           Y           -0.18080   0.98337   0.01721
           Z            0.01946  -0.01392   0.99971
 This molecule is an asymmetric top.
 Rotational symmetry number  1.
 Rotational temperatures (Kelvin)      0.55383     0.51467     0.27062
 Rotational constants (GHZ):          11.53991    10.72396     5.63888
 Zero-point vibrational energy     162832.3 (Joules/Mol)
                                   38.91784 (Kcal/Mol)
 Warning -- explicit consideration of   4 degrees of freedom as
           vibrations may cause significant error
 Vibrational temperatures:    171.87   707.25   829.86   882.90   961.28
          (Kelvin)           1035.75  1176.26  1486.17  1588.46  1810.61
                             1935.31  2128.95  2333.52  2478.28  4631.58
                             4823.37  5012.87  5174.10

 Zero-point correction=                           0.062020 (Hartree/Particle)
 Thermal correction to Energy=                    0.066501
 Thermal correction to Enthalpy=                  0.067445
 Thermal correction to Gibbs Free Energy=         0.035327
 Sum of electronic and zero-point Energies=           -225.072675
 Sum of electronic and thermal Energies=              -225.068194
 Sum of electronic and thermal Enthalpies=            -225.067249
 Sum of electronic and thermal Free Energies=         -225.099367

                     E (Thermal)             CV                S
                      KCal/Mol        Cal/Mol-Kelvin    Cal/Mol-Kelvin
 Total                   41.730             14.632             67.597
 Electronic               0.000              0.000              0.000
 Translational            0.889              2.981             38.197
 Rotational               0.889              2.981             23.647
 Vibrational             39.952              8.671              5.753
 Vibration     1          0.609              1.933              3.109
 Vibration     2          0.847              1.269              0.680
 Vibration     3          0.933              1.081              0.491
 Vibration     4          0.973              1.003              0.427

 Optimization completed.
    -- Stationary point found.
 Normal termination of Gaussian 09 at Fri Sep 10 20:45:20 2021.
