 Gaussian 09, Revision E.01,
 Gaussian 09:  ES64L-G09RevE.01 30-Nov-2015

 ----------------------------
 #P OPT Freq B3LYP/6-31G(d,p)
 ----------------------------

 --------
 Frag_856
 --------
 Symbolic Z-matrix:
 Charge =  0 Multiplicity = 1

 SCF Done:  E(RB3LYP) =  -344.390048186     A.U. after   13 cycles
 SCF Done:  E(RB3LYP) =  -344.390093835     A.U. after   10 cycles
 SCF Done:  E(RB3LYP) =  -344.390095206     A.U. after    9 cycles
 SCF Done:  E(RB3LYP) =  -344.390105244     A.U. after    9 cycles
 SCF Done:  E(RB3LYP) =  -344.390110638     A.U. after    8 cycles
 SCF Done:  E(RB3LYP) =  -344.390114992     A.U. after    9 cycles
 SCF Done:  E(RB3LYP) =  -344.390115727     A.U. after    7 cycles
 SCF Done:  E(RB3LYP) =  -344.390116155     A.U. after    7 cycles
 Optimization completed.
    -- Stationary point found.
 Normal termination of Gaussian 09 at Thu Sep  8 14:56:33 2022.

 ----------------------------------------------------------------------
 #P Geom=AllCheck Guess=TCheck SCRF=Check GenChk RB3LYP/6-31G(d,p) Freq
 ----------------------------------------------------------------------

 Structure from the checkpoint file:  "B3LYP6-31Gdp.Frag_856.chk"
 --------
 Frag_856
 --------
 Charge =  0 Multiplicity = 1

                         Standard orientation:
 ---------------------------------------------------------------------
 Center     Atomic      Atomic             Coordinates (Angstroms)
 Number     Number       Type             X           Y           Z
 ---------------------------------------------------------------------
      1          6           0       -1.368039    1.207805   -0.594464
      2          6           0       -0.629205   -0.008525   -0.021075
      3          6           0       -0.757765   -0.036260    1.517650
      4          7           0       -1.185233   -1.215758   -0.659581
      5          6           0        0.858902    0.036106   -0.445765
      6          7           0        1.529697    1.227762    0.024139
      7          8           0        1.449896   -1.187548    0.034655
      8          1           0       -2.431460    1.159728   -0.332068
      9          1           0       -0.953612    2.139283   -0.204586
     10          1           0       -1.293469    1.218507   -1.685925
     11          1           0       -0.386784    0.885338    1.981334
     12          1           0       -0.207188   -0.882291    1.938373
     13          1           0       -1.811871   -0.136226    1.799378
     14          1           0       -0.673285   -2.025343   -0.316193
     15          1           0       -2.154787   -1.330998   -0.371015
     16          1           0        0.883009    0.048025   -1.542906
     17          1           0        2.445001    1.318172   -0.408474
     18          1           0        1.680770    1.161811    1.027909
     19          1           0        2.269900   -1.334402   -0.453048
 ---------------------------------------------------------------------

 SCF Done:  E(RB3LYP) =  -344.390116155     A.U. after    1 cycles

 The electronic state is 1-A.
 Alpha  occ. eigenvalues --  -19.14260 -14.31667 -14.29474 -10.25213 -10.20989
 Alpha  occ. eigenvalues --  -10.16466 -10.15857  -1.01989  -0.88230  -0.86497
 Alpha  occ. eigenvalues --   -0.73897  -0.67652  -0.65395  -0.54000  -0.52351
 Alpha  occ. eigenvalues --   -0.49049  -0.47218  -0.44006  -0.41784  -0.41110
 Alpha  occ. eigenvalues --   -0.38373  -0.37850  -0.36643  -0.34854  -0.32731
 Alpha  occ. eigenvalues --   -0.31162  -0.29084  -0.24317  -0.22301
 Alpha virt. eigenvalues --    0.06151   0.09825   0.10508   0.12973   0.15059
 Alpha virt. eigenvalues --    0.15490   0.17164   0.17690   0.18731   0.19373
 Alpha virt. eigenvalues --    0.20762   0.22705   0.23334   0.24448   0.25774

 Mulliken charges:
               1
     1  C   -0.288580
     2  C    0.140697
     3  C   -0.323522
     4  N   -0.597583
     5  C    0.259514
     6  N   -0.582249
     7  O   -0.551664
     8  H    0.084460
     9  H    0.117454
    10  H    0.104896
    11  H    0.094541
    12  H    0.114817
    13  H    0.090879
    14  H    0.245200
    15  H    0.224698
    16  H    0.095207
    17  H    0.232295
    18  H    0.242677
    19  H    0.296265
 Sum of Mulliken charges =  -0.00000

 Dipole moment (field-independent basis, Debye):
    X=              1.6668    Y=             -0.2052    Z=              0.5194  Tot=              1.7578
 Quadrupole moment (field-independent basis, Debye-Ang):
   XX=            -35.5754   YY=            -46.7087   ZZ=            -45.7876
   XY=              0.5645   XZ=             -3.6076   YZ=              0.2302

  Exact polarizability:  66.383   0.744  60.314  -1.400   0.742  56.750
 Approx polarizability:  86.324   1.007  84.202  -1.754   1.870  79.262

                      1                      2                      3
                      A                      A                      A
 Frequencies --    110.9648               213.3048               216.9350
 Red. masses --      3.6080                 1.0661                 1.0617
 Frc consts  --      0.0262                 0.0286                 0.0294
 IR Inten    --      0.6121                55.2204                28.8470

                      4                      5                      6
                      A                      A                      A
 Frequencies --    253.3859               270.4011               291.8538
 Red. masses --      2.3031                 1.6346                 1.5890
 Frc consts  --      0.0871                 0.0704                 0.0797
 IR Inten    --      3.6824                 9.1974                 7.1395

                      7                      8                      9
                      A                      A                      A
 Frequencies --    312.0276               339.8882               357.1971
 Red. masses --      1.0931                 1.2161                 2.5944
 Frc consts  --      0.0627                 0.0828                 0.1950
 IR Inten    --     33.3704                61.0243                 1.5571

                     10                     11                     12
                      A                      A                      A
 Frequencies --    378.0810               428.1074               486.3839
 Red. masses --      2.8759                 2.6766                 2.2336
 Frc consts  --      0.2422                 0.2890                 0.3113
 IR Inten    --      6.8739                 0.1070                36.0595

                     13                     14                     15
                      A                      A                      A
 Frequencies --    514.6402               591.7781               737.8782
 Red. masses --      3.3745                 2.8548                 2.9311
 Frc consts  --      0.5266                 0.5890                 0.9403
 IR Inten    --     14.7635                30.0106                 3.4990

                     16                     17                     18
                      A                      A                      A
 Frequencies --    840.2622               874.6570               927.1562
 Red. masses --      1.7973                 2.0553                 1.3602
 Frc consts  --      0.7477                 0.9264                 0.6889
 IR Inten    --    112.1840                53.3923                88.9633

                     19                     20                     21
                      A                      A                      A
 Frequencies --    937.6768               974.8592               998.4272
 Red. masses --      1.5848                 1.7954                 2.3374
 Frc consts  --      0.8210                 1.0053                 1.3728
 IR Inten    --     14.0797                 8.0209               130.5194

                     22                     23                     24
                      A                      A                      A
 Frequencies --   1038.8672              1089.3366              1099.6823
 Red. masses --      1.8474                 1.4316                 1.6270
 Frc consts  --      1.1747                 1.0009                 1.1592
 IR Inten    --     65.5470                 7.7406                21.1530

                     25                     26                     27
                      A                      A                      A
 Frequencies --   1170.7039              1201.2527              1270.0256
 Red. masses --      1.3352                 1.9824                 2.5139
 Frc consts  --      1.0782                 1.6854                 2.3890
 IR Inten    --     41.7167                33.9395                 5.9932

                     28                     29                     30
                      A                      A                      A
 Frequencies --   1292.6816              1353.3424              1398.7333
 Red. masses --      1.7967                 1.6525                 1.1760
 Frc consts  --      1.7689                 1.7833                 1.3555
 IR Inten    --     13.9380                 5.7415                 6.6606

                     31                     32                     33
                      A                      A                      A
 Frequencies --   1407.5912              1422.9669              1452.7435
 Red. masses --      1.2648                 1.3434                 1.5493
 Frc consts  --      1.4764                 1.6027                 1.9265
 IR Inten    --      7.0466                 7.9024                 7.5144

                     34                     35                     36
                      A                      A                      A
 Frequencies --   1496.6117              1501.7811              1515.8489
 Red. masses --      1.0508                 1.0493                 1.0557
 Frc consts  --      1.3867                 1.3943                 1.4292
 IR Inten    --      0.9240                 0.6052                 1.5619

                     37                     38                     39
                      A                      A                      A
 Frequencies --   1530.5006              1649.5662              1672.6382
 Red. masses --      1.0862                 1.0964                 1.0985
 Frc consts  --      1.4990                 1.7578                 1.8108
 IR Inten    --      8.6011                45.0213                24.4653

                     40                     41                     42
                      A                      A                      A
 Frequencies --   3036.0842              3044.3814              3048.9675
 Red. masses --      1.0366                 1.0480                 1.0772
 Frc consts  --      5.6296                 5.7231                 5.9000
 IR Inten    --     25.1409                25.2036                36.0477

                     43                     44                     45
                      A                      A                      A
 Frequencies --   3099.0986              3112.7865              3128.9567
 Red. masses --      1.1010                 1.0987                 1.1016
 Frc consts  --      6.2303                 6.2722                 6.3545
 IR Inten    --     29.8401                37.1436                20.7417

                     46                     47                     48
                      A                      A                      A
 Frequencies --   3150.6204              3483.6788              3500.5865
 Red. masses --      1.1014                 1.0492                 1.0489
 Frc consts  --      6.4414                 7.5022                 7.5727
 IR Inten    --     18.9644                 3.9319                 0.4969

                     49                     50                     51
                      A                      A                      A
 Frequencies --   3574.7331              3585.9754              3824.8696
 Red. masses --      1.0921                 1.0930                 1.0668
 Frc consts  --      8.2226                 8.2809                 9.1955
 IR Inten    --      0.3425                 0.6163                14.2450

 - Thermochemistry -
 -------------------
 Temperature   298.150 Kelvin.  Pressure   1.00000 Atm.
 Atom     1 has atomic number  6 and mass  12.00000

 Molecular mass:   104.09496 amu.
 Principal axes and moments of inertia in atomic units:
                           1         2         3
     Eigenvalues --   571.99858 783.70496 938.43039
           X            0.99983  -0.00058  -0.01869
           Y            0.00027   0.99986  -0.01672
           Z            0.01870   0.01671   0.99969
 This molecule is an asymmetric top.
 Rotational symmetry number  1.
 Warning -- assumption of classical behavior for rotation
           may cause significant error
 Rotational temperatures (Kelvin)      0.15142     0.11052     0.09230
 Rotational constants (GHZ):           3.15515     2.30283     1.92315
 Zero-point vibrational energy     449864.5 (Joules/Mol)
                                  107.52020 (Kcal/Mol)
 Warning -- explicit consideration of  14 degrees of freedom as
           vibrations may cause significant error
 Vibrational temperatures:    159.65   306.90   312.12   364.57   389.05
          (Kelvin)            419.91   448.94   489.02   513.93   543.97
                              615.95   699.80   740.45   851.44  1061.64
                             1208.95  1258.43  1333.97  1349.11  1402.60
                             1436.51  1494.70  1567.31  1582.20  1684.38
                             1728.33  1827.28  1859.88  1947.16  2012.46
                             2025.21  2047.33  2090.17  2153.29  2160.73
                             2180.97  2202.05  2373.35  2406.55  4368.24
                             4380.18  4386.78  4458.91  4478.60  4501.87
                             4533.03  5012.23  5036.56  5143.24  5159.41
                             5503.13

 Zero-point correction=                           0.171344 (Hartree/Particle)
 Thermal correction to Energy=                    0.180295
 Thermal correction to Enthalpy=                  0.181240
 Thermal correction to Gibbs Free Energy=         0.139279
 Sum of electronic and zero-point Energies=           -344.218772
 Sum of electronic and thermal Energies=              -344.209821
 Sum of electronic and thermal Enthalpies=            -344.208877
 Sum of electronic and thermal Free Energies=         -344.250838

                     E (Thermal)             CV                S
                      KCal/Mol        Cal/Mol-Kelvin    Cal/Mol-Kelvin
 Total                  113.137             34.115             88.314
 Electronic               0.000              0.000              0.000
 Translational            0.889              2.981             39.838
 Rotational               0.889              2.981             27.533
 Vibrational            111.360             28.153             20.943
 Vibration     1          0.607              1.940              3.252
 Vibration     2          0.644              1.821              2.015
 Vibration     3          0.646              1.815              1.985
 Vibration     4          0.665              1.757              1.707
 Vibration     5          0.674              1.728              1.594
 Vibration     6          0.687              1.689              1.463
 Vibration     7          0.700              1.651              1.352
 Vibration     8          0.720              1.596              1.213
 Vibration     9          0.732              1.560              1.134
 Vibration    10          0.748              1.517              1.047
 Vibration    11          0.790              1.409              0.865
 Vibration    12          0.842              1.280              0.693
 Vibration    13          0.870              1.218              0.623
 Vibration    14          0.949              1.049              0.464

 Optimization completed.
    -- Stationary point found.
 Normal termination of Gaussian 09 at Thu Sep  8 14:56:53 2022.
