 Gaussian 09, Revision E.01,
 Gaussian 09:  ES64L-G09RevE.01 30-Nov-2015

 ----------------------------
 #P OPT Freq B3LYP/6-31G(d,p)
 ----------------------------

 ---------
 Frag_1148
 ---------
 Symbolic Z-matrix:
 Charge =  0 Multiplicity = 1

 SCF Done:  E(RB3LYP) =  -243.449855352     A.U. after   13 cycles
 SCF Done:  E(RB3LYP) =  -243.449879092     A.U. after   12 cycles
 SCF Done:  E(RB3LYP) =  -243.449623146     A.U. after   12 cycles
 SCF Done:  E(RB3LYP) =  -243.449926375     A.U. after    8 cycles
 SCF Done:  E(RB3LYP) =  -243.449928659     A.U. after   10 cycles
 SCF Done:  E(RB3LYP) =  -243.449948111     A.U. after   10 cycles
 SCF Done:  E(RB3LYP) =  -243.449948793     A.U. after    8 cycles
 Optimization completed.
    -- Stationary point found.
 Normal termination of Gaussian 09 at Thu Sep  8 14:48:02 2022.

 ----------------------------------------------------------------------
 #P Geom=AllCheck Guess=TCheck SCRF=Check GenChk RB3LYP/6-31G(d,p) Freq
 ----------------------------------------------------------------------

 Structure from the checkpoint file:  "B3LYP6-31Gdp.Frag_1148.chk"
 ---------
 Frag_1148
 ---------
 Charge =  0 Multiplicity = 1

                         Standard orientation:
 ---------------------------------------------------------------------
 Center     Atomic      Atomic             Coordinates (Angstroms)
 Number     Number       Type             X           Y           Z
 ---------------------------------------------------------------------
      1          7           0        2.193827   -0.000057   -0.125070
      2          6           0        1.058670   -0.000167    0.112457
      3          6           0       -0.399995   -0.000006    0.375976
      4          7           0       -0.941959    1.267830   -0.110260
      5          7           0       -0.942262   -1.267698   -0.110295
      6          1           0       -0.529793   -0.000007    1.464989
      7          1           0       -0.868470    1.324826   -1.123478
      8          1           0       -1.925934    1.341090    0.135386
      9          1           0       -1.926239   -1.340749    0.135403
     10          1           0       -0.868849   -1.324653   -1.123520
 ---------------------------------------------------------------------

 SCF Done:  E(RB3LYP) =  -243.449948793     A.U. after    1 cycles

 The electronic state is 1-A.
 Alpha  occ. eigenvalues --  -14.34416 -14.34416 -14.33430 -10.29521 -10.22550
 Alpha  occ. eigenvalues --   -0.95310  -0.89514  -0.86662  -0.70764  -0.57005
 Alpha  occ. eigenvalues --   -0.50305  -0.48771  -0.47848  -0.42145  -0.35730
 Alpha  occ. eigenvalues --   -0.33143  -0.33082  -0.30676  -0.25151
 Alpha virt. eigenvalues --    0.01621   0.03443   0.07747   0.10169   0.11607
 Alpha virt. eigenvalues --    0.13315   0.16211   0.18288   0.23131   0.27678
 Alpha virt. eigenvalues --    0.34364   0.54319   0.55434   0.56277   0.58993

 Mulliken charges:
               1
     1  N   -0.464932
     2  C    0.377355
     3  C    0.068134
     4  N   -0.562085
     5  N   -0.562091
     6  H    0.161519
     7  H    0.246252
     8  H    0.244799
     9  H    0.244799
    10  H    0.246250
 Sum of Mulliken charges =  -0.00000

 Dipole moment (field-independent basis, Debye):
    X=             -5.2611    Y=              0.0003    Z=             -0.6768  Tot=              5.3045
 Quadrupole moment (field-independent basis, Debye-Ang):
   XX=            -32.0432   YY=            -33.9030   ZZ=            -26.0040
   XY=             -0.0009   XZ=              1.2115   YZ=             -0.0003

  Exact polarizability:  48.545   0.001  32.631  -3.165  -0.000  30.846
 Approx polarizability:  74.253   0.003  43.807  -8.586  -0.001  44.157

                      1                      2                      3
                      A                      A                      A
 Frequencies --    203.6105               232.0109               259.6695
 Red. masses --      4.3832                 2.2587                 1.1014
 Frc consts  --      0.1071                 0.0716                 0.0438
 IR Inten    --      1.1092                18.0831                 1.0715

                      4                      5                      6
                      A                      A                      A
 Frequencies --    375.5288               421.4142               586.2640
 Red. masses --      1.4633                 2.7677                 6.7237
 Frc consts  --      0.1216                 0.2896                 1.3616
 IR Inten    --     97.1706                 6.8495                24.2202

                      7                      8                      9
                      A                      A                      A
 Frequencies --    597.6879               763.2084               815.8199
 Red. masses --      3.5554                 1.3128                 3.5518
 Frc consts  --      0.7483                 0.4506                 1.3928
 IR Inten    --      1.9104               419.7463                 5.7765

                     10                     11                     12
                      A                      A                      A
 Frequencies --    829.3701              1079.3314              1119.9317
 Red. masses --      1.9841                 2.9084                 2.0583
 Frc consts  --      0.8041                 1.9963                 1.5210
 IR Inten    --      2.9312                54.8464                51.7476

                     13                     14                     15
                      A                      A                      A
 Frequencies --   1137.5349              1223.6549              1392.3142
 Red. masses --      1.2919                 1.4494                 1.1220
 Frc consts  --      0.9849                 1.2787                 1.2815
 IR Inten    --     16.6566                14.7973                 4.1106

                     16                     17                     18
                      A                      A                      A
 Frequencies --   1432.8707              1656.7456              1671.7930
 Red. masses --      1.5584                 1.0987                 1.0872
 Frc consts  --      1.8852                 1.7768                 1.7903
 IR Inten    --     19.5492                 4.6445                41.7421

                     19                     20                     21
                      A                      A                      A
 Frequencies --   2376.9677              3066.7154              3494.4483
 Red. masses --     12.6718                 1.0845                 1.0493
 Frc consts  --     42.1829                 6.0091                 7.5490
 IR Inten    --      0.2089                10.9007                 0.8687

                     22                     23                     24
                      A                      A                      A
 Frequencies --   3494.5255              3590.3603              3591.5868
 Red. masses --      1.0477                 1.0940                 1.0949
 Frc consts  --      7.5382                 8.3087                 8.3214
 IR Inten    --      0.4368                 2.7101                 0.0538

 - Thermochemistry -
 -------------------
 Temperature   298.150 Kelvin.  Pressure   1.00000 Atm.
 Atom     1 has atomic number  7 and mass  14.00307

 Molecular mass:    71.04835 amu.
 Principal axes and moments of inertia in atomic units:
                           1         2         3
     Eigenvalues --   211.82730 441.14305 601.94786
           X            0.99998   0.00000   0.00634
           Y           -0.00000   1.00000  -0.00000
           Z           -0.00634   0.00000   0.99998
 This molecule is an asymmetric top.
 Rotational symmetry number  1.
 Rotational temperatures (Kelvin)      0.40889     0.19634     0.14389
 Rotational constants (GHZ):           8.51987     4.09106     2.99817
 Zero-point vibrational energy     211819.0 (Joules/Mol)
                                   50.62595 (Kcal/Mol)
 Warning -- explicit consideration of   7 degrees of freedom as
           vibrations may cause significant error
 Vibrational temperatures:    292.95   333.81   373.61   540.30   606.32
          (Kelvin)            843.50   859.94  1098.09  1173.78  1193.28
                             1552.92  1611.33  1636.66  1760.56  2003.23
                             2061.58  2383.68  2405.33  3419.92  4412.31
                             5027.73  5027.84  5165.72  5167.49

 Zero-point correction=                           0.080678 (Hartree/Particle)
 Thermal correction to Energy=                    0.086343
 Thermal correction to Enthalpy=                  0.087287
 Thermal correction to Gibbs Free Energy=         0.052310
 Sum of electronic and zero-point Energies=           -243.369271
 Sum of electronic and thermal Energies=              -243.363606
 Sum of electronic and thermal Enthalpies=            -243.362662
 Sum of electronic and thermal Free Energies=         -243.397638

                     E (Thermal)             CV                S
                      KCal/Mol        Cal/Mol-Kelvin    Cal/Mol-Kelvin
 Total                   54.181             19.611             73.614
 Electronic               0.000              0.000              0.000
 Translational            0.889              2.981             38.699
 Rotational               0.889              2.981             25.534
 Vibrational             52.403             13.649              9.381
 Vibration     1          0.639              1.835              2.100
 Vibration     2          0.653              1.792              1.863
 Vibration     3          0.668              1.746              1.664
 Vibration     4          0.746              1.522              1.057
 Vibration     5          0.784              1.424              0.887
 Vibration     6          0.943              1.061              0.474
 Vibration     7          0.956              1.037              0.454

 Optimization completed.
    -- Stationary point found.
 Normal termination of Gaussian 09 at Thu Sep  8 14:48:10 2022.
