 Gaussian 09, Revision D.01,
 Gaussian 09:  ES64L-G09RevD.01 24-Apr-2013

 -------------------------
 #P OPT Freq B3LYP/6-31G**
 -------------------------

 -------
 Frag_51
 -------
 Symbolic Z-matrix:
 Charge =  0 Multiplicity = 1

 SCF Done:  E(RB3LYP) =  -251.920785019     A.U. after   12 cycles
 Optimization completed.
    -- Stationary point found.
 Normal termination of Gaussian 09 at Fri Jul 23 19:04:54 2021.

 ----------------------------------------------------------------------
 #P Geom=AllCheck Guess=TCheck SCRF=Check GenChk RB3LYP/6-31G(d,p) Freq
 ----------------------------------------------------------------------

 Structure from the checkpoint file:  "/vol2/users/liuj201281/HOFBenchmark/IsodesmicSplit/Sample60/Ring26/Running/Gau-538806.chk"
 -------
 Frag_51
 -------
 Charge =  0 Multiplicity = 1

                         Standard orientation:
 ---------------------------------------------------------------------
 Center     Atomic      Atomic             Coordinates (Angstroms)
 Number     Number       Type             X           Y           Z
 ---------------------------------------------------------------------
      1          6           0        0.000564    1.460110    0.220594
      2          6           0       -1.264875    0.711984   -0.227806
      3          6           0       -1.216742   -0.758638    0.224194
      4          7           0       -0.000566   -1.473189   -0.179106
      5          6           0        1.216158   -0.759541    0.224194
      6          6           0        1.265425    0.711037   -0.227806
      7          1           0        0.000929    2.485810   -0.166606
      8          1           0        0.000601    1.541010    1.317194
      9          1           0       -1.341559    0.747919   -1.324206
     10          1           0       -2.164954    1.200492    0.166894
     11          1           0       -2.083992   -1.310245   -0.156006
     12          1           0       -1.273961   -0.800512    1.321494
     13          1           0       -0.000612   -1.574289   -1.193306
     14          1           0        1.273339   -0.801467    1.321494
     15          1           0        2.083008   -1.311834   -0.156006
     16          1           0        1.342141    0.746902   -1.324306
     17          1           0        2.165846    1.198829    0.166894
 ---------------------------------------------------------------------

 SCF Done:  E(RB3LYP) =  -251.920785019     A.U. after    1 cycles

 The electronic state is 1-A.
 Alpha  occ. eigenvalues --  -14.30901 -10.19929 -10.19928 -10.17846 -10.17600
 Alpha  occ. eigenvalues --  -10.17598  -0.89900  -0.77612  -0.74210  -0.62740
 Alpha  occ. eigenvalues --   -0.61474  -0.56203  -0.48371  -0.44574  -0.44095
 Alpha  occ. eigenvalues --   -0.43438  -0.39365  -0.37500  -0.36642  -0.34129
 Alpha  occ. eigenvalues --   -0.33981  -0.31734  -0.30956  -0.20924
 Alpha virt. eigenvalues --    0.08284   0.10945   0.13261   0.13376   0.15743
 Alpha virt. eigenvalues --    0.16367   0.17240   0.17368   0.18015   0.18249
 Alpha virt. eigenvalues --    0.18903   0.22509   0.23848   0.25157   0.27249

 Mulliken charges:
               1
     1  C   -0.176414
     2  C   -0.178944
     3  C   -0.057807
     4  N   -0.479154
     5  C   -0.057809
     6  C   -0.178932
     7  H    0.089582
     8  H    0.090238
     9  H    0.083980
    10  H    0.086607
    11  H    0.092998
    12  H    0.097856
    13  H    0.226369
    14  H    0.097858
    15  H    0.092995
    16  H    0.083960
    17  H    0.086617
 Sum of Mulliken charges =   0.00000

 Dipole moment (field-independent basis, Debye):
    X=              0.0004    Y=              0.9869    Z=             -0.5995  Tot=              1.1548
 Quadrupole moment (field-independent basis, Debye-Ang):
   XX=            -37.8333   YY=            -42.7939   ZZ=            -37.2591
   XY=             -0.0018   XZ=              0.0008   YZ=              1.5787

  Exact polarizability:  63.266  -0.003  57.749   0.000   1.090  54.394
 Approx polarizability:  82.089  -0.003  76.819   0.000   2.334  82.263

                      1                      2                      3
                      A                      A                      A
 Frequencies --    240.9402               241.8528               391.1449
 Red. masses --      1.7210                 1.9141                 1.5560
 Frc consts  --      0.0589                 0.0660                 0.1403
 IR Inten    --      0.0384                 4.7083                 5.4319

                      4                      5                      6
                      A                      A                      A
 Frequencies --    439.4921               457.4353               556.0873
 Red. masses --      3.4582                 2.7686                 1.3722
 Frc consts  --      0.3935                 0.3413                 0.2500
 IR Inten    --      1.0535                 0.7759                 1.7375

                      7                      8                      9
                      A                      A                      A
 Frequencies --    774.0380               811.4772               819.4238
 Red. masses --      1.6876                 1.5132                 2.6038
 Frc consts  --      0.5957                 0.5871                 1.0301
 IR Inten    --     97.1083                 0.1591                 3.3094

                     10                     11                     12
                      A                      A                      A
 Frequencies --    867.0301               874.4776               923.7118
 Red. masses --      1.7912                 2.4841                 1.5749
 Frc consts  --      0.7934                 1.1192                 0.7917
 IR Inten    --     32.0523                 0.0005                17.8063

                     13                     14                     15
                      A                      A                      A
 Frequencies --    953.3299              1014.7965              1053.1633
 Red. masses --      1.3190                 2.0199                 2.4110
 Frc consts  --      0.7063                 1.2256                 1.5756
 IR Inten    --      4.4806                 7.7323                 1.1640

                     16                     17                     18
                      A                      A                      A
 Frequencies --   1065.2099              1120.9865              1128.9713
 Red. masses --      1.6143                 2.0265                 1.3466
 Frc consts  --      1.0792                 1.5004                 1.0112
 IR Inten    --      2.3940                 8.6560                13.3152

                     19                     20                     21
                      A                      A                      A
 Frequencies --   1196.4338              1219.2313              1286.6430
 Red. masses --      2.1794                 1.5775                 1.2404
 Frc consts  --      1.8381                 1.3817                 1.2098
 IR Inten    --      3.2956                12.3851                 9.1597

                     22                     23                     24
                      A                      A                      A
 Frequencies --   1305.4044              1346.7586              1356.3231
 Red. masses --      1.2009                 1.3812                 1.2841
 Frc consts  --      1.2057                 1.4760                 1.3918
 IR Inten    --      0.8435                 0.3387                 0.5810

                     25                     26                     27
                      A                      A                      A
 Frequencies --   1378.6764              1389.6716              1390.7595
 Red. masses --      1.3010                 1.4768                 1.3616
 Frc consts  --      1.4570                 1.6804                 1.5516
 IR Inten    --      2.3433                 3.3467                 0.3475

                     28                     29                     30
                      A                      A                      A
 Frequencies --   1407.4162              1481.8901              1495.7501
 Red. masses --      1.3314                 1.1086                 1.0905
 Frc consts  --      1.5539                 1.4343                 1.4374
 IR Inten    --      7.6111                 4.9433                 2.9473

                     31                     32                     33
                      A                      A                      A
 Frequencies --   1497.3128              1499.4136              1502.6607
 Red. masses --      1.0935                 1.0944                 1.1677
 Frc consts  --      1.4445                 1.4496                 1.5534
 IR Inten    --      1.5253                 8.3091                 4.5841

                     34                     35                     36
                      A                      A                      A
 Frequencies --   1516.6626              3012.4620              3016.0751
 Red. masses --      1.0993                 1.0669                 1.0683
 Frc consts  --      1.4898                 5.7044                 5.7257
 IR Inten    --      1.5872                42.7109                16.0806

                     37                     38                     39
                      A                      A                      A
 Frequencies --   3018.4060              3019.2853              3022.8965
 Red. masses --      1.0619                 1.0646                 1.0642
 Frc consts  --      5.7002                 5.7181                 5.7294
 IR Inten    --      1.6189                17.9622                67.1336

                     40                     41                     42
                      A                      A                      A
 Frequencies --   3063.5731              3065.2589              3072.1987
 Red. masses --      1.0984                 1.0937                 1.1011
 Frc consts  --      6.0742                 6.0545                 6.1233
 IR Inten    --     76.4362                49.5358                47.8518

                     43                     44                     45
                      A                      A                      A
 Frequencies --   3077.7433              3079.9675              3486.3202
 Red. masses --      1.1009                 1.1025                 1.0737
 Frc consts  --      6.1439                 6.1619                 7.6886
 IR Inten    --     37.4898                75.6131                 2.1236

 - Thermochemistry -
 -------------------
 Temperature   298.150 Kelvin.  Pressure   1.00000 Atm.
 Atom     1 has atomic number  6 and mass  12.00000

 Molecular mass:    85.08915 amu.
 Principal axes and moments of inertia in atomic units:
                           1         2         3
     Eigenvalues --   403.11920 413.03103 717.18808
           X            0.00071   1.00000   0.00000
           Y            1.00000  -0.00071   0.00233
           Z           -0.00233   0.00000   1.00000
 This molecule is an asymmetric top.
 Rotational symmetry number  1.
 Rotational temperatures (Kelvin)      0.21486     0.20970     0.12077
 Rotational constants (GHZ):           4.47694     4.36951     2.51641
 Zero-point vibrational energy     418326.7 (Joules/Mol)
                                   99.98248 (Kcal/Mol)
 Warning -- explicit consideration of   6 degrees of freedom as
           vibrations may cause significant error
 Vibrational temperatures:    346.66   347.97   562.77   632.33   658.15
          (Kelvin)            800.08  1113.67  1167.53  1178.97  1247.46
                             1258.18  1329.01  1371.63  1460.06  1515.27
                             1532.60  1612.85  1624.34  1721.40  1754.20
                             1851.19  1878.18  1937.68  1951.44  1983.61
                             1999.43  2000.99  2024.96  2132.11  2152.05
                             2154.30  2157.32  2161.99  2182.14  4334.26
                             4339.45  4342.81  4344.07  4349.27  4407.79
                             4410.22  4420.20  4428.18  4431.38  5016.03

 Zero-point correction=                           0.159332 (Hartree/Particle)
 Thermal correction to Energy=                    0.164917
 Thermal correction to Enthalpy=                  0.165861
 Thermal correction to Gibbs Free Energy=         0.130664
 Sum of electronic and zero-point Energies=           -251.761453
 Sum of electronic and thermal Energies=              -251.755868
 Sum of electronic and thermal Enthalpies=            -251.754924
 Sum of electronic and thermal Free Energies=         -251.790121

                     E (Thermal)             CV                S
                      KCal/Mol        Cal/Mol-Kelvin    Cal/Mol-Kelvin
 Total                  103.487             22.139             74.080
 Electronic               0.000              0.000              0.000
 Translational            0.889              2.981             39.237
 Rotational               0.889              2.981             26.282
 Vibrational            101.710             16.178              8.561
 Vibration     1          0.658              1.778              1.796
 Vibration     2          0.658              1.776              1.789
 Vibration     3          0.759              1.489              0.996
 Vibration     4          0.800              1.384              0.828
 Vibration     5          0.816              1.344              0.774
 Vibration     6          0.912              1.126              0.532

 Optimization completed.
    -- Stationary point found.
 Normal termination of Gaussian 09 at Fri Jul 23 19:05:11 2021.
