 Gaussian 09, Revision E.01,
 Gaussian 09:  ES64L-G09RevE.01 30-Nov-2015

 -------------------------
 #P OPT Freq B3LYP/6-31G**
 -------------------------

 --------
 Frag_208
 --------
 Symbolic Z-matrix:
 Charge =  0 Multiplicity = 1

 SCF Done:  E(RB3LYP) =  -190.522720788     A.U. after   11 cycles
 SCF Done:  E(RB3LYP) =  -190.527293297     A.U. after   11 cycles
 SCF Done:  E(RB3LYP) =  -190.527489706     A.U. after   10 cycles
 SCF Done:  E(RB3LYP) =  -190.527521002     A.U. after   10 cycles
 SCF Done:  E(RB3LYP) =  -190.527523723     A.U. after    7 cycles
 SCF Done:  E(RB3LYP) =  -190.527524131     A.U. after    7 cycles
 SCF Done:  E(RB3LYP) =  -190.527524242     A.U. after    6 cycles
 SCF Done:  E(RB3LYP) =  -190.527524280     A.U. after    6 cycles
 Optimization completed.
    -- Stationary point found.
 Normal termination of Gaussian 09 at Sat Aug 21 01:36:33 2021.

 ----------------------------------------------------------------------
 #P Geom=AllCheck Guess=TCheck SCRF=Check GenChk RB3LYP/6-31G(d,p) Freq
 ----------------------------------------------------------------------

 Structure from the checkpoint file:  "/public/home/users/caep010/.cache/gau_scr/Gau-32428.chk"
 --------
 Frag_208
 --------
 Charge =  0 Multiplicity = 1

                         Standard orientation:
 ---------------------------------------------------------------------
 Center     Atomic      Atomic             Coordinates (Angstroms)
 Number     Number       Type             X           Y           Z
 ---------------------------------------------------------------------
      1          7           0        1.862178   -0.207295   -0.047893
      2          6           0        0.578117    0.499615   -0.038143
      3          6           0       -0.578117   -0.499616   -0.038143
      4          7           0       -1.862178    0.207295   -0.047894
      5          1           0        2.012344   -0.662107    0.850459
      6          1           0        2.623062    0.458367   -0.155659
      7          1           0        0.450267    1.193731    0.814743
      8          1           0        0.506777    1.108343   -0.945430
      9          1           0       -0.506777   -1.108343   -0.945430
     10          1           0       -0.450267   -1.193731    0.814743
     11          1           0       -2.623063   -0.458367   -0.155657
     12          1           0       -2.012344    0.662108    0.850459
 ---------------------------------------------------------------------

 SCF Done:  E(RB3LYP) =  -190.527524280     A.U. after    1 cycles

 The electronic state is 1-A.
 Alpha  occ. eigenvalues --  -14.30781 -14.30781 -10.19900 -10.19878  -0.88415
 Alpha  occ. eigenvalues --   -0.85909  -0.69482  -0.58868  -0.49383  -0.47378
 Alpha  occ. eigenvalues --   -0.44218  -0.43136  -0.38538  -0.34459  -0.34296
 Alpha  occ. eigenvalues --   -0.23401  -0.22652
 Alpha virt. eigenvalues --    0.08400   0.08439   0.14066   0.14287   0.15859
 Alpha virt. eigenvalues --    0.18117   0.18588   0.21446   0.23981   0.26351
 Alpha virt. eigenvalues --    0.26652   0.53586   0.55650   0.56811   0.59168

 Mulliken charges:
               1
     1  N   -0.605351
     2  C   -0.044121
     3  C   -0.044121
     4  N   -0.605351
     5  H    0.232370
     6  H    0.237236
     7  H    0.064242
     8  H    0.115624
     9  H    0.115624
    10  H    0.064242
    11  H    0.237236
    12  H    0.232370
 Sum of Mulliken charges =   0.00000

 Dipole moment (field-independent basis, Debye):
    X=              0.0000    Y=              0.0000    Z=              1.9947  Tot=              1.9947
 Quadrupole moment (field-independent basis, Debye-Ang):
   XX=            -22.9565   YY=            -26.9288   ZZ=            -25.9539
   XY=              4.0936   XZ=             -0.0000   YZ=             -0.0000

  Exact polarizability:  43.754  -0.243  34.529  -0.000  -0.000  32.633
 Approx polarizability:  51.301  -1.366  46.803  -0.000  -0.000  45.576

                      1                      2                      3
                      A                      A                      A
 Frequencies --    138.9078               234.7641               247.0451
 Red. masses --      2.4843                 1.0380                 1.2487
 Frc consts  --      0.0282                 0.0337                 0.0449
 IR Inten    --      2.0441                32.8503                37.5338

                      4                      5                      6
                      A                      A                      A
 Frequencies --    303.0935               475.9912               807.7875
 Red. masses --      2.1987                 4.3341                 1.0975
 Frc consts  --      0.1190                 0.5786                 0.4219
 IR Inten    --     35.0820                 4.8120                10.8789

                      7                      8                      9
                      A                      A                      A
 Frequencies --    850.7174               871.2841               954.0451
 Red. masses --      1.2690                 1.2884                 2.0688
 Frc consts  --      0.5411                 0.5763                 1.1095
 IR Inten    --    231.0533                52.3200                 8.2790

                     10                     11                     12
                      A                      A                      A
 Frequencies --   1043.4147              1083.1481              1103.8788
 Red. masses --      1.3598                 2.5899                 2.4461
 Frc consts  --      0.8722                 1.7902                 1.7562
 IR Inten    --     18.1732                15.4424                 0.3224

                     13                     14                     15
                      A                      A                      A
 Frequencies --   1181.5836              1245.0042              1331.4989
 Red. masses --      1.3337                 1.5129                 1.0582
 Frc consts  --      1.0970                 1.3817                 1.1054
 IR Inten    --      7.7880                 4.8936                 6.3904

                     16                     17                     18
                      A                      A                      A
 Frequencies --   1346.0795              1395.1807              1456.3733
 Red. masses --      1.2880                 1.3490                 1.5558
 Frc consts  --      1.3751                 1.5471                 1.9442
 IR Inten    --      0.1811                17.1430                 0.1281

                     19                     20                     21
                      A                      A                      A
 Frequencies --   1518.9627              1533.3330              1664.9524
 Red. masses --      1.0765                 1.0909                 1.0911
 Frc consts  --      1.4634                 1.5111                 1.7820
 IR Inten    --      0.0216                 2.7484                25.9310

                     22                     23                     24
                      A                      A                      A
 Frequencies --   1670.1015              2922.3725              2929.5767
 Red. masses --      1.0914                 1.0750                 1.0727
 Frc consts  --      1.7936                 5.4092                 5.4244
 IR Inten    --     24.7356               132.8846                66.3741

                     25                     26                     27
                      A                      A                      A
 Frequencies --   3080.9016              3093.7509              3487.3436
 Red. masses --      1.0847                 1.0916                 1.0502
 Frc consts  --      6.0660                 6.1560                 7.5252
 IR Inten    --     18.9462                46.9744                 2.8441

                     28                     29                     30
                      A                      A                      A
 Frequencies --   3488.1394              3572.7335              3573.2886
 Red. masses --      1.0502                 1.0917                 1.0919
 Frc consts  --      7.5285                 8.2104                 8.2141
 IR Inten    --      0.7779                 0.2289                 0.3512

 - Thermochemistry -
 -------------------
 Temperature   298.150 Kelvin.  Pressure   1.00000 Atm.
 Atom     1 has atomic number  7 and mass  14.00307

 Molecular mass:    60.06875 amu.
 Principal axes and moments of inertia in atomic units:
                           1         2         3
     Eigenvalues --    66.21447 474.42597 506.89623
           X            0.99986   0.01685  -0.00000
           Y           -0.01685   0.99986  -0.00000
           Z            0.00000   0.00000   1.00000
 This molecule is an asymmetric top.
 Rotational symmetry number  1.
 Rotational temperatures (Kelvin)      1.30808     0.18257     0.17087
 Rotational constants (GHZ):          27.25599     3.80405     3.56038
 Zero-point vibrational energy     290724.0 (Joules/Mol)
                                   69.48470 (Kcal/Mol)
 Warning -- explicit consideration of   5 degrees of freedom as
           vibrations may cause significant error
 Vibrational temperatures:    199.86   337.77   355.44   436.08   684.84
          (Kelvin)           1162.22  1223.99  1253.58  1372.66  1501.24
                             1558.41  1588.23  1700.03  1791.28  1915.73
                             1936.71  2007.35  2095.39  2185.45  2206.12
                             2395.49  2402.90  4204.64  4215.00  4432.72
                             4451.21  5017.50  5018.65  5140.36  5141.16

 Zero-point correction=                           0.110731 (Hartree/Particle)
 Thermal correction to Energy=                    0.116290
 Thermal correction to Enthalpy=                  0.117234
 Thermal correction to Gibbs Free Energy=         0.083001
 Sum of electronic and zero-point Energies=           -190.416793
 Sum of electronic and thermal Energies=              -190.411234
 Sum of electronic and thermal Enthalpies=            -190.410290
 Sum of electronic and thermal Free Energies=         -190.444523

                     E (Thermal)             CV                S
                      KCal/Mol        Cal/Mol-Kelvin    Cal/Mol-Kelvin
 Total                   72.973             18.555             72.049
 Electronic               0.000              0.000              0.000
 Translational            0.889              2.981             38.199
 Rotational               0.889              2.981             24.280
 Vibrational             71.196             12.593              9.570
 Vibration     1          0.615              1.914              2.819
 Vibration     2          0.655              1.788              1.842
 Vibration     3          0.661              1.768              1.752
 Vibration     4          0.695              1.668              1.400
 Vibration     5          0.833              1.303              0.721

 Optimization completed.
    -- Stationary point found.
 Normal termination of Gaussian 09 at Sat Aug 21 01:36:41 2021.
