 Gaussian 09, Revision E.01,
 Gaussian 09:  ES64L-G09RevE.01 30-Nov-2015

 --------------------------------
 #P OPT=calcfc Freq B3LYP/6-31G**
 --------------------------------

 --------
 Frag_161
 --------
 Symbolic Z-matrix:
 Charge =  0 Multiplicity = 1

 SCF Done:  E(RB3LYP) =  -284.425810913     A.U. after   14 cycles
 SCF Done:  E(RB3LYP) =  -284.440641781     A.U. after   13 cycles
 SCF Done:  E(RB3LYP) =  -284.440899143     A.U. after   11 cycles
 SCF Done:  E(RB3LYP) =  -284.441050387     A.U. after   12 cycles
 SCF Done:  E(RB3LYP) =  -284.441687896     A.U. after   13 cycles
 SCF Done:  E(RB3LYP) =  -284.441964612     A.U. after   12 cycles
 SCF Done:  E(RB3LYP) =  -284.441994611     A.U. after   12 cycles
 SCF Done:  E(RB3LYP) =  -284.442042767     A.U. after   11 cycles
 SCF Done:  E(RB3LYP) =  -284.442048801     A.U. after    9 cycles
 SCF Done:  E(RB3LYP) =  -284.442049651     A.U. after    8 cycles
 Optimization completed.
    -- Stationary point found.
 Normal termination of Gaussian 09 at Sat Aug 21 02:19:15 2021.

 ----------------------------------------------------------------------
 #P Geom=AllCheck Guess=TCheck SCRF=Check GenChk RB3LYP/6-31G(d,p) Freq
 ----------------------------------------------------------------------

 Structure from the checkpoint file:  "/public/home/users/caep010/.cache/gau_scr/Gau-215888.chk"
 --------
 Frag_161
 --------
 Charge =  0 Multiplicity = 1

                         Standard orientation:
 ---------------------------------------------------------------------
 Center     Atomic      Atomic             Coordinates (Angstroms)
 Number     Number       Type             X           Y           Z
 ---------------------------------------------------------------------
      1          6           0        1.899726   -0.034350   -0.011599
      2          7           0        0.583709   -0.655391    0.070121
      3          6           0       -0.537006    0.147890    0.001282
      4          8           0       -0.517318    1.356957    0.000414
      5          8           0       -1.719399   -0.537233   -0.035119
      6          1           0        2.180930    0.229473   -1.038943
      7          1           0        2.646491   -0.716826    0.401076
      8          1           0        1.882947    0.880395    0.580656
      9          1           0        0.507967   -1.584895   -0.319723
     10          1           0       -1.586886   -1.459440    0.225627
 ---------------------------------------------------------------------

 SCF Done:  E(RB3LYP) =  -284.442049651     A.U. after    1 cycles

 The electronic state is 1-A.
 Alpha  occ. eigenvalues --  -19.18986 -19.11618 -14.36989 -10.33363 -10.22408
 Alpha  occ. eigenvalues --   -1.09859  -1.01051  -0.92646  -0.71016  -0.61302
 Alpha  occ. eigenvalues --   -0.58160  -0.49295  -0.46635  -0.42786  -0.41694
 Alpha  occ. eigenvalues --   -0.40274  -0.38155  -0.31204  -0.27912  -0.26034
 Alpha virt. eigenvalues --    0.04117   0.04772   0.10050   0.13373   0.14975
 Alpha virt. eigenvalues --    0.17010   0.18472   0.24663   0.34268   0.39572
 Alpha virt. eigenvalues --    0.52052   0.52629   0.55030   0.56366   0.59091

 Mulliken charges:
               1
     1  C   -0.170571
     2  N   -0.546233
     3  C    0.736504
     4  O   -0.475163
     5  O   -0.503138
     6  H    0.122259
     7  H    0.111642
     8  H    0.158720
     9  H    0.254354
    10  H    0.311627
 Sum of Mulliken charges =  -0.00000

 Dipole moment (field-independent basis, Debye):
    X=              2.1471    Y=             -4.3299    Z=             -0.1574  Tot=              4.8355
 Quadrupole moment (field-independent basis, Debye-Ang):
   XX=            -29.0741   YY=            -27.7565   ZZ=            -29.2473
   XY=              3.1981   XZ=             -0.9844   YZ=              0.4593

  Exact polarizability:  39.968   0.073  38.406  -0.170  -0.203  22.304
 Approx polarizability:  49.588  -1.053  62.313   0.578  -0.563  30.539

                      1                      2                      3
                      A                      A                      A
 Frequencies --     85.5972               177.8633               284.8446
 Red. masses --      1.0952                 3.2795                 3.2571
 Frc consts  --      0.0047                 0.0611                 0.1557
 IR Inten    --      0.5477                 4.2793                16.7604

                      4                      5                      6
                      A                      A                      A
 Frequencies --    348.2555               465.3871               537.3756
 Red. masses --      1.2037                 1.3421                 3.4543
 Frc consts  --      0.0860                 0.1713                 0.5877
 IR Inten    --     64.9608               162.7972                 9.3079

                      7                      8                      9
                      A                      A                      A
 Frequencies --    673.8968               753.2747               927.0010
 Red. masses --      4.3588                 8.1436                 3.0618
 Frc consts  --      1.1663                 2.7225                 1.5502
 IR Inten    --     24.6208                18.0332                22.6016

                     10                     11                     12
                      A                      A                      A
 Frequencies --   1118.8033              1144.3744              1163.9760
 Red. masses --      4.0160                 1.3086                 1.4144
 Frc consts  --      2.9618                 1.0097                 1.1290
 IR Inten    --      2.5975                11.6465                 8.4526

                     13                     14                     15
                      A                      A                      A
 Frequencies --   1207.3998              1316.2896              1459.4564
 Red. masses --      1.7938                 2.0100                 1.1497
 Frc consts  --      1.5408                 2.0518                 1.4428
 IR Inten    --     14.4118               422.0878                 9.6827

                     16                     17                     18
                      A                      A                      A
 Frequencies --   1497.5766              1513.2240              1549.9043
 Red. masses --      1.2140                 1.1371                 1.3452
 Frc consts  --      1.6042                 1.5341                 1.9039
 IR Inten    --     78.9037                21.1887               120.3323

                     19                     20                     21
                      A                      A                      A
 Frequencies --   1872.1059              3036.9373              3115.2471
 Red. masses --      9.1961                 1.0455                 1.0941
 Frc consts  --     18.9896                 5.6813                 6.2558
 IR Inten    --    316.9807                47.9984                28.4145

                     22                     23                     24
                      A                      A                      A
 Frequencies --   3171.8293              3610.9170              3802.7306
 Red. masses --      1.1013                 1.0767                 1.0657
 Frc consts  --      6.5280                 8.2715                 9.0801
 IR Inten    --      5.0187                12.1633                25.7763

 - Thermochemistry -
 -------------------
 Temperature   298.150 Kelvin.  Pressure   1.00000 Atm.
 Atom     1 has atomic number  6 and mass  12.00000

 Molecular mass:    75.03203 amu.
 Principal axes and moments of inertia in atomic units:
                           1         2         3
     Eigenvalues --   171.75419 438.46126 597.14512
           X            0.99977   0.02100  -0.00531
           Y           -0.02098   0.99977   0.00357
           Z            0.00538  -0.00346   0.99998
 This molecule is an asymmetric top.
 Rotational symmetry number  1.
 Rotational temperatures (Kelvin)      0.50429     0.19754     0.14505
 Rotational constants (GHZ):          10.50770     4.11608     3.02228
 Zero-point vibrational energy     208355.2 (Joules/Mol)
                                   49.79808 (Kcal/Mol)
 Warning -- explicit consideration of   6 degrees of freedom as
           vibrations may cause significant error
 Vibrational temperatures:    123.16   255.91   409.83   501.06   669.59
          (Kelvin)            773.16   969.59  1083.79  1333.75  1609.71
                             1646.50  1674.70  1737.18  1893.84  2099.83
                             2154.68  2177.19  2229.96  2693.54  4369.47
                             4482.14  4563.55  5195.30  5471.27

 Zero-point correction=                           0.079358 (Hartree/Particle)
 Thermal correction to Energy=                    0.085177
 Thermal correction to Enthalpy=                  0.086121
 Thermal correction to Gibbs Free Energy=         0.050359
 Sum of electronic and zero-point Energies=           -284.362691
 Sum of electronic and thermal Energies=              -284.356872
 Sum of electronic and thermal Enthalpies=            -284.355928
 Sum of electronic and thermal Free Energies=         -284.391690

                     E (Thermal)             CV                S
                      KCal/Mol        Cal/Mol-Kelvin    Cal/Mol-Kelvin
 Total                   53.449             19.035             75.268
 Electronic               0.000              0.000              0.000
 Translational            0.889              2.981             38.862
 Rotational               0.889              2.981             25.312
 Vibrational             51.672             13.073             11.094
 Vibration     1          0.601              1.959              3.758
 Vibration     2          0.628              1.870              2.351
 Vibration     3          0.683              1.702              1.504
 Vibration     4          0.726              1.579              1.174
 Vibration     5          0.823              1.327              0.751
 Vibration     6          0.892              1.167              0.571

 Optimization completed.
    -- Stationary point found.
 Normal termination of Gaussian 09 at Sat Aug 21 02:19:22 2021.
