 Gaussian 09, Revision E.01,
 Gaussian 09:  ES64L-G09RevE.01 30-Nov-2015

 ----------------------------
 #P OPT Freq B3LYP/6-31G(d,p)
 ----------------------------

 --------
 Frag_825
 --------
 Symbolic Z-matrix:
 Charge =  0 Multiplicity = 1

 SCF Done:  E(RB3LYP) =  -300.437293222     A.U. after   13 cycles
 SCF Done:  E(RB3LYP) =  -300.437370997     A.U. after    9 cycles
 SCF Done:  E(RB3LYP) =  -300.437379632     A.U. after    9 cycles
 SCF Done:  E(RB3LYP) =  -300.437380763     A.U. after    8 cycles
 SCF Done:  E(RB3LYP) =  -300.437380729     A.U. after    8 cycles
 SCF Done:  E(RB3LYP) =  -300.437381185     A.U. after    7 cycles
 Optimization completed.
    -- Stationary point found.
 Normal termination of Gaussian 09 at Thu Sep  8 15:08:06 2022.

 ----------------------------------------------------------------------
 #P Geom=AllCheck Guess=TCheck SCRF=Check GenChk RB3LYP/6-31G(d,p) Freq
 ----------------------------------------------------------------------

 Structure from the checkpoint file:  "B3LYP6-31Gdp.Frag_825.chk"
 --------
 Frag_825
 --------
 Charge =  0 Multiplicity = 1

                         Standard orientation:
 ---------------------------------------------------------------------
 Center     Atomic      Atomic             Coordinates (Angstroms)
 Number     Number       Type             X           Y           Z
 ---------------------------------------------------------------------
      1          7           0        1.763702   -0.052661    0.000162
      2          7           0        0.529595   -0.833729   -0.000153
      3          6           0       -0.462351   -0.006461   -0.000116
      4          8           0       -0.378622    1.316158    0.000043
      5          8           0       -1.723201   -0.447581    0.000082
      6          1           0        2.296908   -0.368450    0.809789
      7          1           0        2.296634   -0.367444   -0.810035
      8          1           0        0.604527    1.447194   -0.000156
      9          1           0       -1.662456   -1.416421    0.000032
 ---------------------------------------------------------------------

 SCF Done:  E(RB3LYP) =  -300.437381185     A.U. after    1 cycles

 The electronic state is 1-A.
 Alpha  occ. eigenvalues --  -19.19581 -19.18448 -14.36444 -14.32838 -10.32842
 Alpha  occ. eigenvalues --   -1.12246  -1.05035  -0.95276  -0.79212  -0.64787
 Alpha  occ. eigenvalues --   -0.52649  -0.50621  -0.49903  -0.45962  -0.44611
 Alpha  occ. eigenvalues --   -0.39594  -0.34657  -0.33710  -0.25008  -0.24437
 Alpha virt. eigenvalues --    0.05626   0.07138   0.07607   0.14606   0.14644
 Alpha virt. eigenvalues --    0.16639   0.24998   0.34106   0.43907   0.53245
 Alpha virt. eigenvalues --    0.55124   0.59910   0.63272   0.69174   0.70754

 Mulliken charges:
               1
     1  N   -0.529475
     2  N   -0.438882
     3  C    0.733142
     4  O   -0.492602
     5  O   -0.490023
     6  H    0.271078
     7  H    0.271064
     8  H    0.342559
     9  H    0.333139
 Sum of Mulliken charges =  -0.00000

 Dipole moment (field-independent basis, Debye):
    X=              2.0415    Y=             -1.0192    Z=             -0.0011  Tot=              2.2818
 Quadrupole moment (field-independent basis, Debye-Ang):
   XX=            -24.3561   YY=            -28.9430   ZZ=            -27.6212
   XY=              3.5017   XZ=             -0.0009   YZ=             -0.0027

  Exact polarizability:  43.409  -0.549  31.100  -0.001  -0.002  19.020
 Approx polarizability:  62.140  -5.181  48.475  -0.001  -0.002  26.571

                      1                      2                      3
                      A                      A                      A
 Frequencies --    240.4350               302.1933               341.1138
 Red. masses --      1.5238                 2.1178                 3.6755
 Frc consts  --      0.0519                 0.1140                 0.2520
 IR Inten    --     28.9075                 0.2782                 1.2029

                      4                      5                      6
                      A                      A                      A
 Frequencies --    497.7438               540.3906               670.8604
 Red. masses --      4.4866                 1.1416                 6.8963
 Frc consts  --      0.6549                 0.1964                 1.8287
 IR Inten    --     16.1924                92.3497                19.1770

                      7                      8                      9
                      A                      A                      A
 Frequencies --    726.0444               876.2816               952.0113
 Red. masses --      6.4571                 1.1462                 9.6033
 Frc consts  --      2.0055                 0.5186                 5.1281
 IR Inten    --      5.6123               150.2722                 3.1704

                     10                     11                     12
                      A                      A                      A
 Frequencies --   1021.9692              1097.0626              1244.4322
 Red. masses --      2.7961                 1.6348                 1.5374
 Frc consts  --      1.7206                 1.1593                 1.4027
 IR Inten    --     16.4509                82.1354               294.9762

                     13                     14                     15
                      A                      A                      A
 Frequencies --   1265.2049              1358.7864              1549.9906
 Red. masses --      1.1417                 1.5161                 3.9465
 Frc consts  --      1.0768                 1.6492                 5.5863
 IR Inten    --      1.4715               142.7829                94.8450

                     16                     17                     18
                      A                      A                      A
 Frequencies --   1648.2741              1750.6999              3404.4763
 Red. masses --      1.1714                 3.6838                 1.0618
 Frc consts  --      1.8750                 6.6523                 7.2511
 IR Inten    --     19.5247               493.3960               184.2259

                     19                     20                     21
                      A                      A                      A
 Frequencies --   3464.5226              3536.0093              3777.7554
 Red. masses --      1.0495                 1.0938                 1.0641
 Frc consts  --      7.4221                 8.0578                 8.9475
 IR Inten    --      1.8506                 2.0137                62.5156

 - Thermochemistry -
 -------------------
 Temperature   298.150 Kelvin.  Pressure   1.00000 Atm.
 Atom     1 has atomic number  7 and mass  14.00307

 Molecular mass:    76.02728 amu.
 Principal axes and moments of inertia in atomic units:
                           1         2         3
     Eigenvalues --   165.60227 410.03400 566.19308
           X            0.99976   0.02190  -0.00000
           Y           -0.02190   0.99976  -0.00002
           Z            0.00000   0.00002   1.00000
 This molecule is an asymmetric top.
 Rotational symmetry number  1.
 Rotational temperatures (Kelvin)      0.52302     0.21124     0.15298
 Rotational constants (GHZ):          10.89805     4.40144     3.18750
 Zero-point vibrational energy     181032.4 (Joules/Mol)
                                   43.26779 (Kcal/Mol)
 Warning -- explicit consideration of   5 degrees of freedom as
           vibrations may cause significant error
 Vibrational temperatures:    345.93   434.79   490.79   716.14   777.50
          (Kelvin)            965.22  1044.61  1260.77  1369.73  1470.38
                             1578.43  1790.46  1820.35  1954.99  2230.09
                             2371.50  2518.86  4898.28  4984.67  5087.52
                             5435.34

 Zero-point correction=                           0.068952 (Hartree/Particle)
 Thermal correction to Energy=                    0.073929
 Thermal correction to Enthalpy=                  0.074873
 Thermal correction to Gibbs Free Energy=         0.041215
 Sum of electronic and zero-point Energies=           -300.368430
 Sum of electronic and thermal Energies=              -300.363453
 Sum of electronic and thermal Enthalpies=            -300.362508
 Sum of electronic and thermal Free Energies=         -300.396166

                     E (Thermal)             CV                S
                      KCal/Mol        Cal/Mol-Kelvin    Cal/Mol-Kelvin
 Total                   46.391             17.290             70.839
 Electronic               0.000              0.000              0.000
 Translational            0.889              2.981             38.901
 Rotational               0.889              2.981             25.156
 Vibrational             44.613             11.328              6.782
 Vibration     1          0.658              1.779              1.800
 Vibration     2          0.694              1.670              1.405
 Vibration     3          0.721              1.593              1.207
 Vibration     4          0.853              1.255              0.664
 Vibration     5          0.895              1.161              0.564

 Optimization completed.
    -- Stationary point found.
 Normal termination of Gaussian 09 at Thu Sep  8 15:08:13 2022.
