 Gaussian 09, Revision D.01,
 Gaussian 09:  ES64L-G09RevD.01 24-Apr-2013

 -------------------------
 #P OPT Freq B3LYP/6-31G**
 -------------------------

 -------
 Frag_29
 -------
 Symbolic Z-matrix:
 Charge =  0 Multiplicity = 1

 SCF Done:  E(RB3LYP) =  -284.334951418     A.U. after   15 cycles
 Optimization completed.
    -- Stationary point found.
 Normal termination of Gaussian 09 at Fri Jul 23 00:29:10 2021.

 ----------------------------------------------------------------------
 #P Geom=AllCheck Guess=TCheck SCRF=Check GenChk RB3LYP/6-31G(d,p) Freq
 ----------------------------------------------------------------------

 Structure from the checkpoint file:  "/vol2/users/liuj201281/HOFBenchmark/IsodesmicSplit/Sample60/Ring26/Running/Gau-222862.chk"
 -------
 Frag_29
 -------
 Charge =  0 Multiplicity = 1

                         Standard orientation:
 ---------------------------------------------------------------------
 Center     Atomic      Atomic             Coordinates (Angstroms)
 Number     Number       Type             X           Y           Z
 ---------------------------------------------------------------------
      1          6           0       -1.877587    0.098070    0.000003
      2          6           0       -0.627488   -0.758532    0.000003
      3          7           0        0.653813    0.052867    0.000003
      4          8           0        1.697512   -0.592034    0.000003
      5          8           0        0.569814    1.276367    0.000003
      6          1           0       -1.920987    0.736770   -0.884198
      7          1           0       -1.921087    0.736670    0.884403
      8          1           0       -2.753588   -0.557629   -0.000097
      9          1           0       -0.544589   -1.398832   -0.881598
     10          1           0       -0.544589   -1.398932    0.881403
 ---------------------------------------------------------------------

 SCF Done:  E(RB3LYP) =  -284.334951418     A.U. after    1 cycles

 The electronic state is 1-A.
 Alpha  occ. eigenvalues --  -19.18664 -19.18213 -14.57025 -10.25600 -10.20434
 Alpha  occ. eigenvalues --   -1.22549  -1.05509  -0.83174  -0.70863  -0.60018
 Alpha  occ. eigenvalues --   -0.54819  -0.53887  -0.50999  -0.45954  -0.42789
 Alpha  occ. eigenvalues --   -0.40464  -0.38193  -0.31142  -0.30291  -0.29211
 Alpha virt. eigenvalues --   -0.06534   0.08272   0.10757   0.12997   0.13620
 Alpha virt. eigenvalues --    0.16228   0.17274   0.20498   0.27305   0.36268
 Alpha virt. eigenvalues --    0.48242   0.50195   0.50436   0.54217   0.60140

 Mulliken charges:
               1
     1  C   -0.324956
     2  C   -0.089343
     3  N    0.446144
     4  O   -0.373485
     5  O   -0.371745
     6  H    0.139193
     7  H    0.139170
     8  H    0.117082
     9  H    0.158964
    10  H    0.158976
 Sum of Mulliken charges =   0.00000

 Dipole moment (field-independent basis, Debye):
    X=             -3.2094    Y=             -1.6293    Z=             -0.0001  Tot=              3.5992
 Quadrupole moment (field-independent basis, Debye-Ang):
   XX=            -31.9006   YY=            -31.0278   ZZ=            -27.5537
   XY=              0.9737   XZ=              0.0001   YZ=              0.0000

  Exact polarizability:  41.141  -2.989  39.543   0.000   0.002  26.446
 Approx polarizability:  58.014 -14.067  73.668   0.000   0.002  37.190

                      1                      2                      3
                      A                      A                      A
 Frequencies --     35.3913               218.2376               291.6683
 Red. masses --      2.3646                 1.0988                 3.7474
 Frc consts  --      0.0017                 0.0308                 0.1878
 IR Inten    --      2.0996                 0.7016                 2.4321

                      4                      5                      6
                      A                      A                      A
 Frequencies --    510.7383               587.3346               639.2730
 Red. masses --      5.5639                 2.8282                 4.1162
 Frc consts  --      0.8551                 0.5748                 0.9911
 IR Inten    --      6.8724                 2.5781                10.3102

                      7                      8                      9
                      A                      A                      A
 Frequencies --    815.2047               881.0928              1007.3476
 Red. masses --      1.2805                 5.7027                 1.9256
 Frc consts  --      0.5014                 2.6084                 1.1513
 IR Inten    --      7.2178                26.4430                 1.8248

                     10                     11                     12
                      A                      A                      A
 Frequencies --   1123.1147              1153.1854              1295.6222
 Red. masses --      2.2379                 1.6741                 1.1430
 Frc consts  --      1.6632                 1.3117                 1.1305
 IR Inten    --      4.8186                 0.5017                 0.2723

                     13                     14                     15
                      A                      A                      A
 Frequencies --   1357.8421              1417.4691              1445.3199
 Red. masses --      1.4041                 1.9938                 2.2764
 Frc consts  --      1.5253                 2.3602                 2.8017
 IR Inten    --     15.5713                38.6529                78.7200

                     16                     17                     18
                      A                      A                      A
 Frequencies --   1487.2242              1498.9936              1512.0716
 Red. masses --      1.1684                 1.0372                 1.0517
 Frc consts  --      1.5227                 1.3732                 1.4167
 IR Inten    --      8.0099                 6.9791                 7.7503

                     19                     20                     21
                      A                      A                      A
 Frequencies --   1674.4421              3068.0896              3094.2459
 Red. masses --     11.0386                 1.0374                 1.0607
 Frc consts  --     18.2349                 5.7535                 5.9833
 IR Inten    --    240.5625                10.0348                 4.9488

                     22                     23                     24
                      A                      A                      A
 Frequencies --   3139.8205              3142.3617              3164.4492
 Red. masses --      1.1061                 1.0997                 1.1049
 Frc consts  --      6.4246                 6.3981                 6.5187
 IR Inten    --      0.0989                11.4001                13.1642

 - Thermochemistry -
 -------------------
 Temperature   298.150 Kelvin.  Pressure   1.00000 Atm.
 Atom     1 has atomic number  6 and mass  12.00000

 Molecular mass:    75.03203 amu.
 Principal axes and moments of inertia in atomic units:
                           1         2         3
     Eigenvalues --   168.44151 436.91269 582.91037
           X            0.99998   0.00551   0.00000
           Y           -0.00551   0.99998  -0.00001
           Z            0.00000   0.00001   1.00000
 This molecule is an asymmetric top.
 Rotational symmetry number  1.
 Rotational temperatures (Kelvin)      0.51421     0.19824     0.14859
 Rotational constants (GHZ):          10.71435     4.13067     3.09609
 Zero-point vibrational energy     206717.9 (Joules/Mol)
                                   49.40677 (Kcal/Mol)
 Warning -- explicit consideration of   5 degrees of freedom as
           vibrations may cause significant error
 Vibrational temperatures:     50.92   313.99   419.65   734.84   845.04
          (Kelvin)            919.77  1172.90  1267.69  1449.35  1615.91
                             1659.17  1864.11  1953.63  2039.42  2079.49
                             2139.78  2156.71  2175.53  2409.15  4414.29
                             4451.92  4517.50  4521.15  4552.93

 Zero-point correction=                           0.078735 (Hartree/Particle)
 Thermal correction to Energy=                    0.084181
 Thermal correction to Enthalpy=                  0.085125
 Thermal correction to Gibbs Free Energy=         0.049384
 Sum of electronic and zero-point Energies=           -284.256217
 Sum of electronic and thermal Energies=              -284.250771
 Sum of electronic and thermal Enthalpies=            -284.249826
 Sum of electronic and thermal Free Energies=         -284.285567

                     E (Thermal)             CV                S
                      KCal/Mol        Cal/Mol-Kelvin    Cal/Mol-Kelvin
 Total                   52.824             17.430             75.222
 Electronic               0.000              0.000              0.000
 Translational            0.889              2.981             38.862
 Rotational               0.889              2.981             25.265
 Vibrational             51.047             11.468             11.096
 Vibration     1          0.594              1.982              5.502
 Vibration     2          0.646              1.813              1.974
 Vibration     3          0.687              1.689              1.464
 Vibration     4          0.866              1.226              0.632
 Vibration     5          0.944              1.059              0.472

 Optimization completed.
    -- Stationary point found.
 Normal termination of Gaussian 09 at Fri Jul 23 00:29:22 2021.
