 Gaussian 09, Revision E.01,
 Gaussian 09:  ES64L-G09RevE.01 30-Nov-2015

 ----------------------------
 #P OPT Freq B3LYP/6-31G(d,p)
 ----------------------------

 --------
 Frag_657
 --------
 Symbolic Z-matrix:
 Charge =  0 Multiplicity = 1

 SCF Done:  E(RB3LYP) =  -398.985975308     A.U. after   14 cycles
 SCF Done:  E(RB3LYP) =  -398.986092144     A.U. after   11 cycles
 SCF Done:  E(RB3LYP) =  -398.986075535     A.U. after   11 cycles
 SCF Done:  E(RB3LYP) =  -398.986118157     A.U. after   10 cycles
 SCF Done:  E(RB3LYP) =  -398.986120695     A.U. after    8 cycles
 SCF Done:  E(RB3LYP) =  -398.986121209     A.U. after   10 cycles
 SCF Done:  E(RB3LYP) =  -398.986122559     A.U. after    8 cycles
 SCF Done:  E(RB3LYP) =  -398.986122842     A.U. after    7 cycles
 SCF Done:  E(RB3LYP) =  -398.986122923     A.U. after    7 cycles
 Optimization completed.
    -- Stationary point found.
 Normal termination of Gaussian 09 at Thu Sep  8 15:07:04 2022.

 ----------------------------------------------------------------------
 #P Geom=AllCheck Guess=TCheck SCRF=Check GenChk RB3LYP/6-31G(d,p) Freq
 ----------------------------------------------------------------------

 Structure from the checkpoint file:  "B3LYP6-31Gdp.Frag_657.chk"
 --------
 Frag_657
 --------
 Charge =  0 Multiplicity = 1

                         Standard orientation:
 ---------------------------------------------------------------------
 Center     Atomic      Atomic             Coordinates (Angstroms)
 Number     Number       Type             X           Y           Z
 ---------------------------------------------------------------------
      1          6           0        1.199059   -0.297648    1.330917
      2          6           0        0.600582    0.003246   -0.042013
      3          8           0        0.958925   -1.069255   -0.901043
      4          8           0        1.085693    1.208822   -0.563720
      5          6           0       -0.946942    0.133663    0.038218
      6          7           0       -1.621057   -1.037902    0.044072
      7          8           0       -1.464911    1.244976    0.116906
      8          1           0        0.869145   -1.271328    1.702434
      9          1           0        2.287362   -0.299321    1.236721
     10          1           0        0.901663    0.476400    2.042746
     11          1           0        0.952304   -0.696872   -1.795334
     12          1           0        0.343698    1.836985   -0.466880
     13          1           0       -1.131014   -1.874041   -0.237039
     14          1           0       -2.629606   -1.018414    0.028977
 ---------------------------------------------------------------------

 SCF Done:  E(RB3LYP) =  -398.986122923     A.U. after    1 cycles

 The electronic state is 1-A.
 Alpha  occ. eigenvalues --  -19.16054 -19.14871 -19.13305 -14.37089 -10.29844
 Alpha  occ. eigenvalues --  -10.29655 -10.18049  -1.07824  -1.03807  -0.99797
 Alpha  occ. eigenvalues --   -0.91895  -0.75358  -0.65366  -0.58714  -0.56657
 Alpha  occ. eigenvalues --   -0.53243  -0.51504  -0.45765  -0.43560  -0.41584
 Alpha  occ. eigenvalues --   -0.39294  -0.38673  -0.37119  -0.35446  -0.32504
 Alpha  occ. eigenvalues --   -0.29190  -0.28354  -0.25115
 Alpha virt. eigenvalues --    0.00986   0.06678   0.10162   0.11840   0.13942
 Alpha virt. eigenvalues --    0.14853   0.16884   0.17463   0.21202   0.22882
 Alpha virt. eigenvalues --    0.25945   0.28056   0.33472   0.39397   0.51256

 Mulliken charges:
               1
     1  C   -0.296439
     2  C    0.424216
     3  O   -0.547899
     4  O   -0.560008
     5  C    0.539035
     6  N   -0.598896
     7  O   -0.526169
     8  H    0.107011
     9  H    0.131859
    10  H    0.117256
    11  H    0.311604
    12  H    0.325977
    13  H    0.290962
    14  H    0.281491
 Sum of Mulliken charges =  -0.00000

 Dipole moment (field-independent basis, Debye):
    X=             -1.2963    Y=             -2.4303    Z=             -0.4994  Tot=              2.7993
 Quadrupole moment (field-independent basis, Debye-Ang):
   XX=            -41.3003   YY=            -41.5209   ZZ=            -37.8366
   XY=              5.3422   XZ=              1.8269   YZ=              0.4151

  Exact polarizability:  49.119   1.180  52.372  -0.284  -0.014  39.051
 Approx polarizability:  64.183  -1.274  85.290  -3.069   0.216  52.205

                      1                      2                      3
                      A                      A                      A
 Frequencies --     67.5937               229.5944               237.9575
 Red. masses --      6.6730                 2.2156                 1.2728
 Frc consts  --      0.0180                 0.0688                 0.0425
 IR Inten    --      2.2050                 0.2154                 0.3888

                      4                      5                      6
                      A                      A                      A
 Frequencies --    283.6450               316.4386               370.5811
 Red. masses --      3.2357                 1.2741                 2.6331
 Frc consts  --      0.1534                 0.0752                 0.2131
 IR Inten    --     12.6443               127.6487                15.4534

                      7                      8                      9
                      A                      A                      A
 Frequencies --    386.0496               433.7816               468.6234
 Red. masses --      4.9698                 1.3118                 2.7948
 Frc consts  --      0.4364                 0.1454                 0.3616
 IR Inten    --      7.5052                81.5420               144.3738

                     10                     11                     12
                      A                      A                      A
 Frequencies --    525.2561               555.5961               607.3257
 Red. masses --      2.4315                 1.4856                 2.9759
 Frc consts  --      0.3952                 0.2702                 0.6467
 IR Inten    --      2.8430                39.7173                38.8102

                     13                     14                     15
                      A                      A                      A
 Frequencies --    632.0788               733.0981               768.4987
 Red. masses --      1.1280                 3.5957                 4.3843
 Frc consts  --      0.2655                 1.1386                 1.5256
 IR Inten    --     12.4651                 5.9706                10.3528

                     16                     17                     18
                      A                      A                      A
 Frequencies --    931.4967               982.5989              1076.8085
 Red. masses --      2.4101                 1.8546                 2.2798
 Frc consts  --      1.2321                 1.0550                 1.5575
 IR Inten    --     17.8691                46.3405                88.0715

                     19                     20                     21
                      A                      A                      A
 Frequencies --   1109.0188              1145.7668              1210.1513
 Red. masses --      1.8412                 1.9348                 3.3898
 Frc consts  --      1.3342                 1.4965                 2.9249
 IR Inten    --      7.0923                60.7469               115.3009

                     22                     23                     24
                      A                      A                      A
 Frequencies --   1351.8717              1367.2420              1421.9803
 Red. masses --      2.0539                 1.6110                 1.3909
 Frc consts  --      2.2116                 1.7744                 1.6570
 IR Inten    --    174.1422               110.9341                15.5670

                     25                     26                     27
                      A                      A                      A
 Frequencies --   1445.8032              1497.8071              1506.4457
 Red. masses --      1.6639                 1.0537                 1.1357
 Frc consts  --      2.0492                 1.3927                 1.5185
 IR Inten    --     47.4938                 2.1886                 6.7430

                     28                     29                     30
                      A                      A                      A
 Frequencies --   1614.5041              1793.1657              3063.8787
 Red. masses --      1.3282                 9.1953                 1.0339
 Frc consts  --      2.0398                17.4204                 5.7185
 IR Inten    --    111.6991               269.9598                 8.4052

                     31                     32                     33
                      A                      A                      A
 Frequencies --   3146.1137              3153.5372              3592.9952
 Red. masses --      1.1037                 1.1041                 1.0441
 Frc consts  --      6.4365                 6.4694                 7.9414
 IR Inten    --     16.4197                11.6134                44.0393

                     34                     35                     36
                      A                      A                      A
 Frequencies --   3642.3920              3731.1025              3793.1846
 Red. masses --      1.0648                 1.1056                 1.0653
 Frc consts  --      8.3233                 9.0679                 9.0305
 IR Inten    --    105.8164                62.0506                34.5016

 - Thermochemistry -
 -------------------
 Temperature   298.150 Kelvin.  Pressure   1.00000 Atm.
 Atom     1 has atomic number  6 and mass  12.00000

 Molecular mass:   105.04259 amu.
 Principal axes and moments of inertia in atomic units:
                           1         2         3
     Eigenvalues --   516.09897 732.30452 880.31910
           X            0.99748   0.05615   0.04339
           Y           -0.05550   0.99833  -0.01601
           Z           -0.04421   0.01356   0.99893
 This molecule is an asymmetric top.
 Rotational symmetry number  1.
 Warning -- assumption of classical behavior for rotation
           may cause significant error
 Rotational temperatures (Kelvin)      0.16782     0.11828     0.09839
 Rotational constants (GHZ):           3.49689     2.46447     2.05010
 Zero-point vibrational energy     294245.4 (Joules/Mol)
                                   70.32633 (Kcal/Mol)
 Warning -- explicit consideration of  12 degrees of freedom as
           vibrations may cause significant error
 Vibrational temperatures:     97.25   330.33   342.37   408.10   455.28
          (Kelvin)            533.18   555.44   624.11   674.24   755.73
                              799.38   873.81   909.42  1054.76  1105.70
                             1340.21  1413.74  1549.29  1595.63  1648.50
                             1741.14  1945.04  1967.15  2045.91  2080.19
                             2155.01  2167.44  2322.91  2579.96  4408.23
                             4526.55  4537.23  5169.51  5240.58  5368.22
                             5457.54

 Zero-point correction=                           0.112072 (Hartree/Particle)
 Thermal correction to Energy=                    0.119852
 Thermal correction to Enthalpy=                  0.120796
 Thermal correction to Gibbs Free Energy=         0.080586
 Sum of electronic and zero-point Energies=           -398.874051
 Sum of electronic and thermal Energies=              -398.866271
 Sum of electronic and thermal Enthalpies=            -398.865327
 Sum of electronic and thermal Free Energies=         -398.905536

                     E (Thermal)             CV                S
                      KCal/Mol        Cal/Mol-Kelvin    Cal/Mol-Kelvin
 Total                   75.208             28.904             84.628
 Electronic               0.000              0.000              0.000
 Translational            0.889              2.981             39.865
 Rotational               0.889              2.981             27.300
 Vibrational             73.431             22.943             17.463
 Vibration     1          0.598              1.970              4.222
 Vibration     2          0.652              1.796              1.882
 Vibration     3          0.656              1.783              1.818
 Vibration     4          0.682              1.704              1.512
 Vibration     5          0.703              1.642              1.328
 Vibration     6          0.743              1.533              1.077
 Vibration     7          0.755              1.500              1.015
 Vibration     8          0.795              1.397              0.846
 Vibration     9          0.826              1.320              0.741
 Vibration    10          0.880              1.194              0.598
 Vibration    11          0.911              1.127              0.533
 Vibration    12          0.966              1.016              0.437

 Normal termination of Gaussian 09 at Thu Sep  8 15:07:17 2022.
