 Gaussian 09, Revision E.01,
 Gaussian 09:  ES64L-G09RevE.01 30-Nov-2015

 --------------------------------
 #P OPT=calcfc Freq B3LYP/6-31G**
 --------------------------------

 --------
 Frag_315
 --------
 Symbolic Z-matrix:
 Charge =  0 Multiplicity = 1

 SCF Done:  E(RB3LYP) =  -189.266171888     A.U. after   13 cycles
 SCF Done:  E(RB3LYP) =  -189.273492998     A.U. after   13 cycles
 SCF Done:  E(RB3LYP) =  -189.272183320     A.U. after   13 cycles
 SCF Done:  E(RB3LYP) =  -189.273777044     A.U. after   10 cycles
 SCF Done:  E(RB3LYP) =  -189.274226405     A.U. after   11 cycles
 SCF Done:  E(RB3LYP) =  -189.274279148     A.U. after   10 cycles
 SCF Done:  E(RB3LYP) =  -189.274282640     A.U. after    8 cycles
 Optimization completed.
    -- Stationary point found.
 Normal termination of Gaussian 09 at Fri Sep 10 21:20:39 2021.

 ----------------------------------------------------------------------
 #P Geom=AllCheck Guess=TCheck SCRF=Check GenChk RB3LYP/6-31G(d,p) Freq
 ----------------------------------------------------------------------

 Structure from the checkpoint file:  "/public/home/users/caep010/.cache/gau_scr/Gau-51708.chk"
 --------
 Frag_315
 --------
 Charge =  0 Multiplicity = 1

                         Standard orientation:
 ---------------------------------------------------------------------
 Center     Atomic      Atomic             Coordinates (Angstroms)
 Number     Number       Type             X           Y           Z
 ---------------------------------------------------------------------
      1          6           0        1.484096   -0.539337   -0.004352
      2          6           0        0.732831    0.571872    0.009506
      3          7           0       -0.649108    0.645681   -0.117076
      4          7           0       -1.439193   -0.510846    0.061353
      5          1           0        1.058384   -1.531490   -0.103147
      6          1           0        2.562193   -0.464058    0.055051
      7          1           0        1.197418    1.553034    0.087874
      8          1           0       -1.080192    1.449381    0.318944
      9          1           0       -1.028384   -1.091042    0.798580
     10          1           0       -1.392873   -1.054880   -0.798164
 ---------------------------------------------------------------------

 SCF Done:  E(RB3LYP) =  -189.274282640     A.U. after    1 cycles

 The electronic state is 1-A.
 Alpha  occ. eigenvalues --  -14.36604 -14.35010 -10.21460 -10.15979  -0.97863
 Alpha  occ. eigenvalues --   -0.80160  -0.71883  -0.57522  -0.51527  -0.49869
 Alpha  occ. eigenvalues --   -0.47583  -0.40819  -0.36782  -0.32192  -0.26448
 Alpha  occ. eigenvalues --   -0.20404
 Alpha virt. eigenvalues --    0.04637   0.08380   0.09218   0.14535   0.15901
 Alpha virt. eigenvalues --    0.17173   0.19133   0.22162   0.32797   0.37720
 Alpha virt. eigenvalues --    0.50937   0.56344   0.58701   0.62935   0.64424

 Mulliken charges:
               1
     1  C   -0.295546
     2  C    0.120736
     3  N   -0.391667
     4  N   -0.464177
     5  H    0.070319
     6  H    0.093081
     7  H    0.091950
     8  H    0.267606
     9  H    0.242612
    10  H    0.265084
 Sum of Mulliken charges =  -0.00000

 Dipole moment (field-independent basis, Debye):
    X=              0.2027    Y=              0.1456    Z=              0.4682  Tot=              0.5305
 Quadrupole moment (field-independent basis, Debye-Ang):
   XX=            -27.9571   YY=            -20.4668   ZZ=            -26.0916
   XY=              0.6789   XZ=              0.2349   YZ=              1.5290

  Exact polarizability:  44.996  -3.961  40.953   0.602   0.984  20.152
 Approx polarizability:  62.708 -11.929  62.313   1.828   0.441  28.037

                      1                      2                      3
                      A                      A                      A
 Frequencies --    285.3667               294.7039               339.4375
 Red. masses --      1.7690                 2.9546                 1.1189
 Frc consts  --      0.0849                 0.1512                 0.0760
 IR Inten    --      1.0404                10.5058                22.3222

                      4                      5                      6
                      A                      A                      A
 Frequencies --    563.0682               656.2630               712.9544
 Red. masses --      1.4370                 1.7062                 1.4926
 Frc consts  --      0.2684                 0.4329                 0.4470
 IR Inten    --    167.1683                67.0708                16.2461

                      7                      8                      9
                      A                      A                      A
 Frequencies --    803.0697               915.2685              1003.0678
 Red. masses --      1.3962                 2.0329                 1.1249
 Frc consts  --      0.5305                 1.0034                 0.6668
 IR Inten    --     53.2966                85.4450                 9.3051

                     10                     11                     12
                      A                      A                      A
 Frequencies --   1028.6545              1083.5596              1259.9246
 Red. masses --      2.0893                 1.5599                 2.3730
 Frc consts  --      1.3025                 1.0791                 2.2194
 IR Inten    --      3.8741                21.5063                35.4205

                     13                     14                     15
                      A                      A                      A
 Frequencies --   1330.5013              1339.3774              1460.0470
 Red. masses --      1.2458                 1.2673                 1.2122
 Frc consts  --      1.2994                 1.3395                 1.5225
 IR Inten    --     18.3744                14.0487                 5.2550

                     16                     17                     18
                      A                      A                      A
 Frequencies --   1497.4045              1699.3299              1720.6674
 Red. masses --      1.2648                 1.1115                 3.6256
 Frc consts  --      1.6709                 1.8911                 6.3245
 IR Inten    --     22.0117                48.5333                77.2932

                     19                     20                     21
                      A                      A                      A
 Frequencies --   3169.2709              3184.1318              3270.1886
 Red. masses --      1.0813                 1.0695                 1.1153
 Frc consts  --      6.3989                 6.3888                 7.0272
 IR Inten    --     19.3115                 0.0942                10.9984

                     22                     23                     24
                      A                      A                      A
 Frequencies --   3402.1925              3522.2268              3600.2298
 Red. masses --      1.0536                 1.0874                 1.0773
 Frc consts  --      7.1853                 7.9481                 8.2269
 IR Inten    --     12.1591                 0.2564                15.2654

 - Thermochemistry -
 -------------------
 Temperature   298.150 Kelvin.  Pressure   1.00000 Atm.
 Atom     1 has atomic number  6 and mass  12.00000

 Molecular mass:    58.05310 amu.
 Principal axes and moments of inertia in atomic units:
                           1         2         3
     Eigenvalues --    99.94592 295.57800 383.85900
           X            1.00000   0.00084   0.00116
           Y           -0.00087   0.99961   0.02791
           Z           -0.00113  -0.02791   0.99961
 This molecule is an asymmetric top.
 Rotational symmetry number  1.
 Rotational temperatures (Kelvin)      0.86661     0.29303     0.22564
 Rotational constants (GHZ):          18.05718     6.10580     4.70157
 Zero-point vibrational energy     228133.3 (Joules/Mol)
                                   54.52516 (Kcal/Mol)
 Warning -- explicit consideration of   4 degrees of freedom as
           vibrations may cause significant error
 Vibrational temperatures:    410.58   424.01   488.37   810.13   944.21
          (Kelvin)           1025.78  1155.44  1316.87  1443.19  1480.00
                             1559.00  1812.75  1914.29  1927.06  2100.68
                             2154.43  2444.95  2475.65  4559.87  4581.25
                             4705.07  4894.99  5067.69  5179.92

 Zero-point correction=                           0.086891 (Hartree/Particle)
 Thermal correction to Energy=                    0.091655
 Thermal correction to Enthalpy=                  0.092599
 Thermal correction to Gibbs Free Energy=         0.060258
 Sum of electronic and zero-point Energies=           -189.187391
 Sum of electronic and thermal Energies=              -189.182628
 Sum of electronic and thermal Enthalpies=            -189.181683
 Sum of electronic and thermal Free Energies=         -189.214024

                     E (Thermal)             CV                S
                      KCal/Mol        Cal/Mol-Kelvin    Cal/Mol-Kelvin
 Total                   57.514             16.579             68.068
 Electronic               0.000              0.000              0.000
 Translational            0.889              2.981             38.097
 Rotational               0.889              2.981             23.943
 Vibrational             55.737             10.618              6.028
 Vibration     1          0.683              1.701              1.501
 Vibration     2          0.689              1.684              1.447
 Vibration     3          0.719              1.597              1.215
 Vibration     4          0.919              1.111              0.518

 Optimization completed.
    -- Stationary point found.
 Normal termination of Gaussian 09 at Fri Sep 10 21:20:46 2021.
