 Gaussian 09, Revision D.01,
 Gaussian 09:  ES64L-G09RevD.01 24-Apr-2013

 -------------------------
 #P OPT Freq B3LYP/6-31G**
 -------------------------

 -------
 Frag_93
 -------
 Symbolic Z-matrix:
 Charge =  0 Multiplicity = 1

 SCF Done:  E(RB3LYP) =  -286.580498370     A.U. after   14 cycles
 Optimization completed.
    -- Stationary point found.
 Normal termination of Gaussian 09 at Thu Jul 22 15:57:43 2021.

 ----------------------------------------------------------------------
 #P Geom=AllCheck Guess=TCheck SCRF=Check GenChk RB3LYP/6-31G(d,p) Freq
 ----------------------------------------------------------------------

 Structure from the checkpoint file:  "/vol2/users/liuj201281/HOFBenchmark/IsodesmicSplit/Sample60/Ring26/Running/Gau-521009.chk"
 -------
 Frag_93
 -------
 Charge =  0 Multiplicity = 1

                         Standard orientation:
 ---------------------------------------------------------------------
 Center     Atomic      Atomic             Coordinates (Angstroms)
 Number     Number       Type             X           Y           Z
 ---------------------------------------------------------------------
      1          6           0        1.346693   -1.264198   -0.172793
      2          6           0        0.742702   -0.073494   -0.012293
      3          7           0        1.430610    1.147601    0.088707
      4          6           0       -0.733997    0.050416   -0.008393
      5          6           0       -1.389889    1.207421   -0.195793
      6          8           0       -1.358006   -1.147080    0.216407
      7          1           0        0.766687   -2.158094   -0.352193
      8          1           0        2.428593   -1.352406   -0.156893
      9          1           0        2.431009    1.030094    0.190607
     10          1           0        1.064314    1.754603    0.813107
     11          1           0       -2.473989    1.258428   -0.158393
     12          1           0       -0.852183    2.112817   -0.439593
     13          1           0       -2.307705   -1.022873    0.086807
 ---------------------------------------------------------------------

 SCF Done:  E(RB3LYP) =  -286.580498370     A.U. after    1 cycles

 The electronic state is 1-A.
 Alpha  occ. eigenvalues --  -19.17460 -14.33401 -10.24785 -10.22112 -10.16865
 Alpha  occ. eigenvalues --  -10.16084  -1.05553  -0.90804  -0.76009  -0.72251
 Alpha  occ. eigenvalues --   -0.62058  -0.56268  -0.51250  -0.48397  -0.45613
 Alpha  occ. eigenvalues --   -0.43642  -0.40334  -0.39305  -0.36109  -0.35754
 Alpha  occ. eigenvalues --   -0.32392  -0.23147  -0.20340
 Alpha virt. eigenvalues --   -0.00504   0.07360   0.08791   0.11429   0.13571
 Alpha virt. eigenvalues --    0.14137   0.17284   0.18149   0.19361   0.27565
 Alpha virt. eigenvalues --    0.30905   0.33801   0.36959   0.39024   0.51995

 Mulliken charges:
               1
     1  C   -0.296876
     2  C    0.281377
     3  N   -0.650742
     4  C    0.340048
     5  C   -0.334113
     6  O   -0.544227
     7  H    0.113862
     8  H    0.077533
     9  H    0.252958
    10  H    0.253102
    11  H    0.078848
    12  H    0.112462
    13  H    0.315766
 Sum of Mulliken charges =   0.00000

 Dipole moment (field-independent basis, Debye):
    X=             -0.3968    Y=              0.8618    Z=              0.8557  Tot=              1.2776
 Quadrupole moment (field-independent basis, Debye-Ang):
   XX=            -26.4896   YY=            -36.1122   ZZ=            -38.6570
   XY=              2.1102   XZ=              1.9182   YZ=              2.7753

  Exact polarizability:  66.213 -13.218  71.369   0.383   1.377  23.783
 Approx polarizability:  90.441 -29.291 123.915   0.048   0.873  34.265

                      1                      2                      3
                      A                      A                      A
 Frequencies --     99.5956               289.6185               341.5565
 Red. masses --      4.1505                 3.2874                 1.3774
 Frc consts  --      0.0243                 0.1625                 0.0947
 IR Inten    --      0.0950                 0.7166                32.5886

                      4                      5                      6
                      A                      A                      A
 Frequencies --    381.1891               411.1616               418.7243
 Red. masses --      1.3237                 2.8419                 1.3088
 Frc consts  --      0.1133                 0.2831                 0.1352
 IR Inten    --     39.2965                 3.7252                83.0726

                      7                      8                      9
                      A                      A                      A
 Frequencies --    505.8613               532.9043               641.8894
 Red. masses --      2.1963                 3.9710                 1.2684
 Frc consts  --      0.3311                 0.6644                 0.3079
 IR Inten    --     26.4842                 6.3109               104.6414

                     10                     11                     12
                      A                      A                      A
 Frequencies --    721.3579               751.9879               773.3685
 Red. masses --      1.9574                 1.2023                 1.9381
 Frc consts  --      0.6001                 0.4006                 0.6830
 IR Inten    --      2.3966                11.9613                35.2023

                     13                     14                     15
                      A                      A                      A
 Frequencies --    787.8513               819.7986               839.8087
 Red. masses --      2.1007                 1.4220                 1.4598
 Frc consts  --      0.7682                 0.5631                 0.6066
 IR Inten    --     77.7569                71.3884                53.9498

                     16                     17                     18
                      A                      A                      A
 Frequencies --    986.7169               994.4222              1127.4775
 Red. masses --      1.8042                 1.5819                 1.6253
 Frc consts  --      1.0349                 0.9217                 1.2173
 IR Inten    --     15.5060                 2.9943                43.4760

                     19                     20                     21
                      A                      A                      A
 Frequencies --   1190.3048              1331.4755              1421.3333
 Red. masses --      1.5147                 1.8381                 2.0262
 Frc consts  --      1.2644                 1.9199                 2.4117
 IR Inten    --    130.3135                 3.7898                 9.4504

                     22                     23                     24
                      A                      A                      A
 Frequencies --   1441.2730              1476.6971              1646.7428
 Red. masses --      1.2306                 1.6348                 1.1866
 Frc consts  --      1.5061                 2.1003                 1.8958
 IR Inten    --     20.7717                 6.4383                41.1468

                     25                     26                     27
                      A                      A                      A
 Frequencies --   1676.1793              1732.7128              3171.9677
 Red. masses --      4.5629                 4.9312                 1.0646
 Frc consts  --      7.5532                 8.7228                 6.3109
 IR Inten    --    189.9956                12.9138                 7.5726

                     28                     29                     30
                      A                      A                      A
 Frequencies --   3174.9353              3278.9653              3285.7272
 Red. masses --      1.0637                 1.1117                 1.1121
 Frc consts  --      6.3175                 7.0426                 7.0741
 IR Inten    --      9.8161                 4.0403                 3.8509

                     31                     32                     33
                      A                      A                      A
 Frequencies --   3539.1275              3645.6732              3818.2418
 Red. masses --      1.0483                 1.0964                 1.0657
 Frc consts  --      7.7361                 8.5858                 9.1536
 IR Inten    --      3.5366                 4.9732                25.7584

 - Thermochemistry -
 -------------------
 Temperature   298.150 Kelvin.  Pressure   1.00000 Atm.
 Atom     1 has atomic number  6 and mass  12.00000

 Molecular mass:    85.05276 amu.
 Principal axes and moments of inertia in atomic units:
                           1         2         3
     Eigenvalues --   345.09540 517.85261 843.44929
           X            0.99791  -0.06404   0.00852
           Y            0.06391   0.99785   0.01466
           Z           -0.00944  -0.01408   0.99986
 This molecule is an asymmetric top.
 Rotational symmetry number  1.
 Rotational temperatures (Kelvin)      0.25099     0.16726     0.10269
 Rotational constants (GHZ):           5.22969     3.48505     2.13972
 Zero-point vibrational energy     282657.5 (Joules/Mol)
                                   67.55677 (Kcal/Mol)
 Warning -- explicit consideration of   8 degrees of freedom as
           vibrations may cause significant error
 Vibrational temperatures:    143.30   416.70   491.42   548.45   591.57
          (Kelvin)            602.45   727.82   766.73   923.53  1037.87
                             1081.94  1112.70  1133.54  1179.51  1208.30
                             1419.66  1430.75  1622.19  1712.58  1915.69
                             2044.98  2073.67  2124.64  2369.29  2411.65
                             2492.98  4563.75  4568.02  4717.69  4727.42
                             5092.01  5245.30  5493.59

 Zero-point correction=                           0.107659 (Hartree/Particle)
 Thermal correction to Energy=                    0.114166
 Thermal correction to Enthalpy=                  0.115110
 Thermal correction to Gibbs Free Energy=         0.078012
 Sum of electronic and zero-point Energies=           -286.472840
 Sum of electronic and thermal Energies=              -286.466332
 Sum of electronic and thermal Enthalpies=            -286.465388
 Sum of electronic and thermal Free Energies=         -286.502486

                     E (Thermal)             CV                S
                      KCal/Mol        Cal/Mol-Kelvin    Cal/Mol-Kelvin
 Total                   71.640             24.802             78.079
 Electronic               0.000              0.000              0.000
 Translational            0.889              2.981             39.235
 Rotational               0.889              2.981             26.513
 Vibrational             69.863             18.840             12.330
 Vibration     1          0.604              1.949              3.462
 Vibration     2          0.686              1.693              1.476
 Vibration     3          0.721              1.592              1.205
 Vibration     4          0.751              1.510              1.034
 Vibration     5          0.775              1.446              0.923
 Vibration     6          0.782              1.430              0.896
 Vibration     7          0.861              1.237              0.644
 Vibration     8          0.888              1.177              0.581

 Optimization completed.
    -- Stationary point found.
 Normal termination of Gaussian 09 at Thu Jul 22 15:57:58 2021.
