 Gaussian 09, Revision E.01,
 Gaussian 09:  ES64L-G09RevE.01 30-Nov-2015

 ----------------------------
 #P OPT Freq B3LYP/6-31G(d,p)
 ----------------------------

 --------
 Frag_738
 --------
 Symbolic Z-matrix:
 Charge =  0 Multiplicity = 1

 SCF Done:  E(RB3LYP) =  -229.068233820     A.U. after   14 cycles
 SCF Done:  E(RB3LYP) =  -229.068328173     A.U. after    9 cycles
 SCF Done:  E(RB3LYP) =  -229.068332649     A.U. after    8 cycles
 Optimization completed.
    -- Stationary point found.
 Normal termination of Gaussian 09 at Thu Sep  8 15:12:02 2022.

 ----------------------------------------------------------------------
 #P Geom=AllCheck Guess=TCheck SCRF=Check GenChk RB3LYP/6-31G(d,p) Freq
 ----------------------------------------------------------------------

 Structure from the checkpoint file:  "B3LYP6-31Gdp.Frag_738.chk"
 --------
 Frag_738
 --------
 Charge =  0 Multiplicity = 1

                         Standard orientation:
 ---------------------------------------------------------------------
 Center     Atomic      Atomic             Coordinates (Angstroms)
 Number     Number       Type             X           Y           Z
 ---------------------------------------------------------------------
      1          6           0       -1.365166   -0.404250   -0.000000
      2          8           0       -0.480205    0.732112    0.000000
      3          6           0        0.829528    0.435911    0.000000
      4          8           0        1.302799   -0.674031    0.000000
      5          1           0       -1.200659   -1.017658   -0.889065
      6          1           0       -1.200662   -1.017655    0.889068
      7          1           0       -2.373342    0.008109   -0.000003
      8          1           0        1.407732    1.372591   -0.000000
 ---------------------------------------------------------------------

 SCF Done:  E(RB3LYP) =  -229.068332649     A.U. after    1 cycles

 The electronic state is 1-A.
 Alpha  occ. eigenvalues --  -19.20329 -19.14666 -10.31856 -10.24736  -1.10854
 Alpha  occ. eigenvalues --   -1.02300  -0.74045  -0.59888  -0.53079  -0.48445
 Alpha  occ. eigenvalues --   -0.47260  -0.42554  -0.39790  -0.36456  -0.30971
 Alpha  occ. eigenvalues --   -0.28373
 Alpha virt. eigenvalues --    0.00447   0.10566   0.11565   0.14239   0.16177
 Alpha virt. eigenvalues --    0.16673   0.27739   0.29125   0.50288   0.50671
 Alpha virt. eigenvalues --    0.53260   0.55841   0.59334   0.69025   0.75227

 Mulliken charges:
               1
     1  C   -0.092317
     2  O   -0.418796
     3  C    0.442540
     4  O   -0.427235
     5  H    0.134761
     6  H    0.134761
     7  H    0.126191
     8  H    0.100095
 Sum of Mulliken charges =  -0.00000

 Dipole moment (field-independent basis, Debye):
    X=             -1.6592    Y=              0.7554    Z=             -0.0000  Tot=              1.8231
 Quadrupole moment (field-independent basis, Debye-Ang):
   XX=            -22.7314   YY=            -24.1531   ZZ=            -22.6671
   XY=              4.4510   XZ=              0.0000   YZ=              0.0000

  Exact polarizability:  33.663   0.523  28.167  -0.000  -0.000  19.071
 Approx polarizability:  44.204  -6.092  44.373  -0.000  -0.000  25.622

                      1                      2                      3
                      A                      A                      A
 Frequencies --    117.7679               299.6278               349.0317
 Red. masses --      1.0777                 3.8987                 2.3768
 Frc consts  --      0.0088                 0.2062                 0.1706
 IR Inten    --      0.0801                14.5440                25.6934

                      4                      5                      6
                      A                      A                      A
 Frequencies --    778.8955               946.0439              1038.4840
 Red. masses --      4.9373                 5.1933                 1.6526
 Frc consts  --      1.7648                 2.7385                 1.0501
 IR Inten    --      8.4864                21.5001                 0.4216

                      7                      8                      9
                      A                      A                      A
 Frequencies --   1178.9779              1191.4088              1240.7456
 Red. masses --      1.2760                 1.8740                 3.5021
 Frc consts  --      1.0450                 1.5672                 3.1764
 IR Inten    --      1.0400                75.2397               231.9445

                     10                     11                     12
                      A                      A                      A
 Frequencies --   1410.2096              1476.8972              1497.4780
 Red. masses --      1.1464                 1.1829                 1.0466
 Frc consts  --      1.3433                 1.5202                 1.3827
 IR Inten    --      1.8600                 3.2329                 6.9297

                     13                     14                     15
                      A                      A                      A
 Frequencies --   1509.1375              1829.5259              3057.0586
 Red. masses --      1.0463                 8.8812                 1.0885
 Frc consts  --      1.4039                17.5146                 5.9935
 IR Inten    --      9.4886               263.0427                74.0532

                     16                     17                     18
                      A                      A                      A
 Frequencies --   3067.4243              3145.1393              3180.2237
 Red. masses --      1.0328                 1.1072                 1.1070
 Frc consts  --      5.7252                 6.4528                 6.5964
 IR Inten    --     10.0270                20.2960                14.7239

 - Thermochemistry -
 -------------------
 Temperature   298.150 Kelvin.  Pressure   1.00000 Atm.
 Atom     1 has atomic number  6 and mass  12.00000

 Molecular mass:    60.02113 amu.
 Principal axes and moments of inertia in atomic units:
                           1         2         3
     Eigenvalues --    90.20673 263.68228 342.50983
           X            0.99595   0.08996  -0.00000
           Y           -0.08996   0.99595  -0.00000
           Z            0.00000   0.00000   1.00000
 This molecule is an asymmetric top.
 Rotational symmetry number  1.
 Rotational temperatures (Kelvin)      0.96017     0.32848     0.25288
 Rotational constants (GHZ):          20.00672     6.84438     5.26917
 Zero-point vibrational energy     163374.5 (Joules/Mol)
                                   39.04743 (Kcal/Mol)
 Warning -- explicit consideration of   3 degrees of freedom as
           vibrations may cause significant error
 Vibrational temperatures:    169.44   431.10   502.18  1120.66  1361.14
          (Kelvin)           1494.15  1696.28  1714.17  1785.15  2028.97
                             2124.92  2154.53  2171.31  2632.28  4398.42
                             4413.33  4525.15  4575.63

 Zero-point correction=                           0.062226 (Hartree/Particle)
 Thermal correction to Energy=                    0.066778
 Thermal correction to Enthalpy=                  0.067722
 Thermal correction to Gibbs Free Energy=         0.035348
 Sum of electronic and zero-point Energies=           -229.006107
 Sum of electronic and thermal Energies=              -229.001555
 Sum of electronic and thermal Enthalpies=            -229.000611
 Sum of electronic and thermal Free Energies=         -229.032985

                     E (Thermal)             CV                S
                      KCal/Mol        Cal/Mol-Kelvin    Cal/Mol-Kelvin
 Total                   41.904             13.575             68.138
 Electronic               0.000              0.000              0.000
 Translational            0.889              2.981             38.196
 Rotational               0.889              2.981             23.614
 Vibrational             40.126              7.613              6.327
 Vibration     1          0.608              1.935              3.137
 Vibration     2          0.692              1.674              1.419
 Vibration     3          0.726              1.577              1.171

 Optimization completed.
    -- Stationary point found.
 Normal termination of Gaussian 09 at Thu Sep  8 15:12:08 2022.
