 Gaussian 09, Revision E.01,
 Gaussian 09:  ES64L-G09RevE.01 30-Nov-2015

 ----------------------------
 #P OPT Freq B3LYP/6-31G(d,p)
 ----------------------------

 --------
 Frag_709
 --------
 Symbolic Z-matrix:
 Charge =  0 Multiplicity = 1

 SCF Done:  E(RB3LYP) =  -382.898686777     A.U. after   14 cycles
 SCF Done:  E(RB3LYP) =  -382.898756104     A.U. after   10 cycles
 SCF Done:  E(RB3LYP) =  -382.898667267     A.U. after   11 cycles
 SCF Done:  E(RB3LYP) =  -382.898785854     A.U. after   11 cycles
 SCF Done:  E(RB3LYP) =  -382.898787824     A.U. after    8 cycles
 SCF Done:  E(RB3LYP) =  -382.898788744     A.U. after    8 cycles
 SCF Done:  E(RB3LYP) =  -382.898788900     A.U. after    7 cycles
 SCF Done:  E(RB3LYP) =  -382.898789052     A.U. after    7 cycles
 Optimization completed.
    -- Stationary point found.
 Normal termination of Gaussian 09 at Thu Sep  8 14:59:46 2022.

 ----------------------------------------------------------------------
 #P Geom=AllCheck Guess=TCheck SCRF=Check GenChk RB3LYP/6-31G(d,p) Freq
 ----------------------------------------------------------------------

 Structure from the checkpoint file:  "B3LYP6-31Gdp.Frag_709.chk"
 --------
 Frag_709
 --------
 Charge =  0 Multiplicity = 1

                         Standard orientation:
 ---------------------------------------------------------------------
 Center     Atomic      Atomic             Coordinates (Angstroms)
 Number     Number       Type             X           Y           Z
 ---------------------------------------------------------------------
      1          6           0        1.746149   -1.079929    0.074363
      2          6           0        0.955488   -0.000114    0.038181
      3          8           0        1.445296    1.263015    0.092513
      4          6           0       -0.576749   -0.073964   -0.032612
      5          6           0       -1.228322   -0.122540    1.344136
      6          8           0       -1.039157    1.145469   -0.652574
      7          8           0       -0.994976   -1.188029   -0.776764
      8          1           0        2.823606   -0.978333    0.122797
      9          1           0        1.320384   -2.074695    0.112600
     10          1           0        0.702691    1.838222   -0.171775
     11          1           0       -0.964297    0.770412    1.915770
     12          1           0       -0.888196   -1.006979    1.885699
     13          1           0       -2.313478   -0.159875    1.222714
     14          1           0       -1.099717    0.959747   -1.600608
     15          1           0       -0.249691   -1.452855   -1.337006
 ---------------------------------------------------------------------

 SCF Done:  E(RB3LYP) =  -382.898789052     A.U. after    1 cycles

 The electronic state is 1-A.
 Alpha  occ. eigenvalues --  -19.17051 -19.16947 -19.16943 -10.30673 -10.24789
 Alpha  occ. eigenvalues --  -10.18238 -10.17173  -1.08571  -1.05030  -1.00859
 Alpha  occ. eigenvalues --   -0.77613  -0.73851  -0.63370  -0.57552  -0.56728
 Alpha  occ. eigenvalues --   -0.53926  -0.45826  -0.44679  -0.42534  -0.40925
 Alpha  occ. eigenvalues --   -0.40154  -0.39157  -0.38734  -0.36928  -0.34311
 Alpha  occ. eigenvalues --   -0.30635  -0.29541  -0.23047
 Alpha virt. eigenvalues --    0.02276   0.06286   0.09376   0.12410   0.14080
 Alpha virt. eigenvalues --    0.15085   0.15448   0.17160   0.18470   0.20967
 Alpha virt. eigenvalues --    0.22670   0.25477   0.27368   0.34124   0.35195

 Mulliken charges:
               1
     1  C   -0.332591
     2  C    0.333758
     3  O   -0.542329
     4  C    0.408297
     5  C   -0.283634
     6  O   -0.556831
     7  O   -0.537406
     8  H    0.108126
     9  H    0.100840
    10  H    0.328499
    11  H    0.115788
    12  H    0.120193
    13  H    0.126580
    14  H    0.308752
    15  H    0.301960
 Sum of Mulliken charges =  -0.00000

 Dipole moment (field-independent basis, Debye):
    X=             -0.3734    Y=             -0.3024    Z=             -1.2639  Tot=              1.3521
 Quadrupole moment (field-independent basis, Debye-Ang):
   XX=            -46.5347   YY=            -41.4522   ZZ=            -37.4730
   XY=             -2.7470   XZ=             -0.8898   YZ=             -0.7313

  Exact polarizability:  57.148  -6.962  58.110   0.556   0.320  42.068
 Approx polarizability:  76.563 -11.996  92.739   2.958   1.592  56.757

                      1                      2                      3
                      A                      A                      A
 Frequencies --     67.0322               225.9891               246.0526
 Red. masses --      4.1960                 1.8413                 1.1872
 Frc consts  --      0.0111                 0.0554                 0.0423
 IR Inten    --      3.7779                 1.9927                28.2905

                      4                      5                      6
                      A                      A                      A
 Frequencies --    258.7745               304.7048               359.0349
 Red. masses --      1.3739                 3.5462                 2.8179
 Frc consts  --      0.0542                 0.1940                 0.2140
 IR Inten    --     36.3706                 9.4888                19.0021

                      7                      8                      9
                      A                      A                      A
 Frequencies --    384.4029               414.0227               500.7326
 Red. masses --      3.6013                 1.8075                 1.6090
 Frc consts  --      0.3135                 0.1825                 0.2377
 IR Inten    --      4.2485                88.2988                10.1921

                     10                     11                     12
                      A                      A                      A
 Frequencies --    514.8871               567.2289               668.2951
 Red. masses --      3.3006                 4.3968                 2.6228
 Frc consts  --      0.5156                 0.8335                 0.6902
 IR Inten    --      1.8004                11.1203                27.5765

                     13                     14                     15
                      A                      A                      A
 Frequencies --    679.5576               724.3909               766.4476
 Red. masses --      1.2588                 3.7378                 1.0924
 Frc consts  --      0.3425                 1.1556                 0.3781
 IR Inten    --     67.2452                 8.2531                20.1202

                     16                     17                     18
                      A                      A                      A
 Frequencies --    841.4064               924.5178               970.0269
 Red. masses --      1.3897                 2.4034                 1.9497
 Frc consts  --      0.5797                 1.2103                 1.0809
 IR Inten    --     55.7023                54.7742                24.4966

                     19                     20                     21
                      A                      A                      A
 Frequencies --    990.1757              1058.1183              1139.5494
 Red. masses --      1.9464                 2.1860                 1.7498
 Frc consts  --      1.1244                 1.4420                 1.3387
 IR Inten    --     50.7392               108.2578                61.9781

                     22                     23                     24
                      A                      A                      A
 Frequencies --   1174.9930              1253.6592              1332.2552
 Red. masses --      2.5305                 1.7597                 1.6159
 Frc consts  --      2.0584                 1.6295                 1.6898
 IR Inten    --     56.2991                61.4055               213.8723

                     25                     26                     27
                      A                      A                      A
 Frequencies --   1381.0159              1411.5562              1434.6002
 Red. masses --      1.5286                 1.7105                 1.6054
 Frc consts  --      1.7176                 2.0080                 1.9467
 IR Inten    --    126.1154                67.6439                28.6127

                     28                     29                     30
                      A                      A                      A
 Frequencies --   1451.0559              1495.7233              1501.3588
 Red. masses --      1.2038                 1.0516                 1.0718
 Frc consts  --      1.4934                 1.3862                 1.4234
 IR Inten    --     29.8540                 3.4232                 0.6186

                     31                     32                     33
                      A                      A                      A
 Frequencies --   1742.4247              3069.2798              3151.2031
 Red. masses --      5.3359                 1.0340                 1.1039
 Frc consts  --      9.5447                 5.7392                 6.4583
 IR Inten    --     66.7947                 8.1137                12.5632

                     34                     35                     36
                      A                      A                      A
 Frequencies --   3161.7851              3186.8094              3278.6073
 Red. masses --      1.1044                 1.0593                 1.1177
 Frc consts  --      6.5047                 6.3387                 7.0790
 IR Inten    --     12.3659                 0.0984                 3.8414

                     37                     38                     39
                      A                      A                      A
 Frequencies --   3660.9465              3764.6558              3806.2407
 Red. masses --      1.0640                 1.0657                 1.0658
 Frc consts  --      8.4022                 8.8987                 9.0977
 IR Inten    --    163.2196                33.0525                35.3191

 - Thermochemistry -
 -------------------
 Temperature   298.150 Kelvin.  Pressure   1.00000 Atm.
 Atom     1 has atomic number  6 and mass  12.00000

 Molecular mass:   104.04734 amu.
 Principal axes and moments of inertia in atomic units:
                           1         2         3
     Eigenvalues --   527.73966 738.23470 898.82046
           X            0.99654  -0.07466  -0.03656
           Y            0.07409   0.99711  -0.01672
           Z            0.03770   0.01395   0.99919
 This molecule is an asymmetric top.
 Rotational symmetry number  1.
 Warning -- assumption of classical behavior for rotation
           may cause significant error
 Rotational temperatures (Kelvin)      0.16412     0.11733     0.09636
 Rotational constants (GHZ):           3.41976     2.44467     2.00790
 Zero-point vibrational energy     322175.4 (Joules/Mol)
                                   77.00176 (Kcal/Mol)
 Warning -- explicit consideration of  11 degrees of freedom as
           vibrations may cause significant error
 Vibrational temperatures:     96.44   325.15   354.01   372.32   438.40
          (Kelvin)            516.57   553.07   595.69   720.44   740.81
                              816.11   961.53   977.73  1042.24  1102.75
                             1210.59  1330.17  1395.65  1424.64  1522.39
                             1639.56  1690.55  1803.73  1916.82  1986.97
                             2030.91  2064.07  2087.74  2152.01  2160.12
                             2506.96  4416.00  4533.87  4549.10  4585.10
                             4717.18  5267.28  5416.49  5476.32

 Zero-point correction=                           0.122710 (Hartree/Particle)
 Thermal correction to Energy=                    0.130599
 Thermal correction to Enthalpy=                  0.131543
 Thermal correction to Gibbs Free Energy=         0.091144
 Sum of electronic and zero-point Energies=           -382.776079
 Sum of electronic and thermal Energies=              -382.768190
 Sum of electronic and thermal Enthalpies=            -382.767246
 Sum of electronic and thermal Free Energies=         -382.807645

                     E (Thermal)             CV                S
                      KCal/Mol        Cal/Mol-Kelvin    Cal/Mol-Kelvin
 Total                   81.952             29.758             85.027
 Electronic               0.000              0.000              0.000
 Translational            0.889              2.981             39.836
 Rotational               0.889              2.981             27.351
 Vibrational             80.175             23.796             17.839
 Vibration     1          0.598              1.970              4.239
 Vibration     2          0.650              1.801              1.911
 Vibration     3          0.661              1.769              1.759
 Vibration     4          0.668              1.748              1.670
 Vibration     5          0.696              1.665              1.391
 Vibration     6          0.734              1.557              1.126
 Vibration     7          0.753              1.503              1.022
 Vibration     8          0.778              1.440              0.913
 Vibration     9          0.856              1.248              0.656
 Vibration    10          0.870              1.217              0.622
 Vibration    11          0.923              1.102              0.510

 Normal termination of Gaussian 09 at Thu Sep  8 15:00:00 2022.
