 Gaussian 09, Revision E.01,
 Gaussian 09:  ES64L-G09RevE.01 30-Nov-2015

 ----------------------------
 #P OPT Freq B3LYP/6-31G(d,p)
 ----------------------------

 --------
 Frag_606
 --------
 Symbolic Z-matrix:
 Charge =  0 Multiplicity = 1

 SCF Done:  E(RB3LYP) =  -308.819890272     A.U. after   13 cycles
 SCF Done:  E(RB3LYP) =  -308.819966696     A.U. after    9 cycles
 SCF Done:  E(RB3LYP) =  -308.819976399     A.U. after    9 cycles
 SCF Done:  E(RB3LYP) =  -308.819981168     A.U. after    9 cycles
 SCF Done:  E(RB3LYP) =  -308.819981443     A.U. after    7 cycles
 Optimization completed.
    -- Stationary point found.
 Normal termination of Gaussian 09 at Thu Sep  8 14:55:32 2022.

 ----------------------------------------------------------------------
 #P Geom=AllCheck Guess=TCheck SCRF=Check GenChk RB3LYP/6-31G(d,p) Freq
 ----------------------------------------------------------------------

 Structure from the checkpoint file:  "B3LYP6-31Gdp.Frag_606.chk"
 --------
 Frag_606
 --------
 Charge =  0 Multiplicity = 1

                         Standard orientation:
 ---------------------------------------------------------------------
 Center     Atomic      Atomic             Coordinates (Angstroms)
 Number     Number       Type             X           Y           Z
 ---------------------------------------------------------------------
      1          6           0        0.407657    1.355687    0.749298
      2          6           0        0.387942    0.000271    0.036279
      3          6           0        1.585912   -0.152068   -0.907851
      4          6           0        0.308257   -1.164442    1.029093
      5          8           0       -0.724581   -0.055716   -0.892623
      6          8           0       -1.971615    0.106094   -0.155516
      7          1           0        0.452521    2.167903    0.018050
      8          1           0       -0.494077    1.484033    1.351946
      9          1           0        1.279187    1.431273    1.407573
     10          1           0        1.595296    0.652900   -1.647729
     11          1           0        2.518117   -0.110129   -0.336976
     12          1           0        1.545530   -1.108803   -1.436424
     13          1           0        0.278526   -2.120850    0.496749
     14          1           0       -0.587144   -1.079116    1.649941
     15          1           0        1.180153   -1.168836    1.690435
     16          1           0       -2.337154   -0.788081   -0.249367
 ---------------------------------------------------------------------

 SCF Done:  E(RB3LYP) =  -308.819981443     A.U. after    1 cycles

 The electronic state is 1-A.
 Alpha  occ. eigenvalues --  -19.19347 -19.19141 -10.24333 -10.17856 -10.17600
 Alpha  occ. eigenvalues --  -10.16946  -1.10122  -0.90780  -0.77435  -0.69201
 Alpha  occ. eigenvalues --   -0.68829  -0.55840  -0.50382  -0.47186  -0.45393
 Alpha  occ. eigenvalues --   -0.43575  -0.41052  -0.38716  -0.38377  -0.37041
 Alpha  occ. eigenvalues --   -0.36594  -0.34585  -0.32972  -0.28791  -0.25463
 Alpha virt. eigenvalues --    0.03110   0.07606   0.11028   0.12555   0.14902
 Alpha virt. eigenvalues --    0.15482   0.16500   0.17006   0.19436   0.19791
 Alpha virt. eigenvalues --    0.21035   0.22380   0.22609   0.25733   0.25986

 Mulliken charges:
               1
     1  C   -0.306138
     2  C    0.285071
     3  C   -0.318487
     4  C   -0.323247
     5  O   -0.322192
     6  O   -0.328443
     7  H    0.109665
     8  H    0.124131
     9  H    0.094924
    10  H    0.118771
    11  H    0.107483
    12  H    0.111662
    13  H    0.101142
    14  H    0.111240
    15  H    0.103766
    16  H    0.330651
 Sum of Mulliken charges =  -0.00000

 Dipole moment (field-independent basis, Debye):
    X=              0.7474    Y=             -1.3453    Z=              0.8887  Tot=              1.7771
 Quadrupole moment (field-independent basis, Debye-Ang):
   XX=            -35.6633   YY=            -36.7546   ZZ=            -39.0759
   XY=              3.6983   XZ=             -0.7566   YZ=              0.3882

  Exact polarizability:  58.960   1.330  50.531  -2.024   0.307  48.525
 Approx polarizability:  81.560   0.544  66.591  -3.103   1.048  68.361

                      1                      2                      3
                      A                      A                      A
 Frequencies --    139.8300               193.1761               234.6026
 Red. masses --      2.7614                 1.1594                 1.0599
 Frc consts  --      0.0318                 0.0255                 0.0344
 IR Inten    --      3.6001                 2.3074                37.2617

                      4                      5                      6
                      A                      A                      A
 Frequencies --    250.6302               258.8869               270.9391
 Red. masses --      1.0474                 2.1737                 1.2922
 Frc consts  --      0.0388                 0.0858                 0.0559
 IR Inten    --      4.5754                36.6138                44.6700

                      7                      8                      9
                      A                      A                      A
 Frequencies --    338.8435               357.1727               405.0360
 Red. masses --      2.4364                 2.7075                 2.3368
 Frc consts  --      0.1648                 0.2035                 0.2259
 IR Inten    --      3.5353                 1.7148                 0.3653

                     10                     11                     12
                      A                      A                      A
 Frequencies --    463.2873               530.2844               750.2332
 Red. masses --      2.8724                 3.4076                 3.9490
 Frc consts  --      0.3632                 0.5646                 1.3096
 IR Inten    --      7.3398                 4.2243                 1.6680

                     13                     14                     15
                      A                      A                      A
 Frequencies --    867.8856               920.0210               924.4261
 Red. masses --      3.0075                 1.7272                 1.8549
 Frc consts  --      1.3347                 0.8614                 0.9339
 IR Inten    --     13.6542                 0.9444                 2.2831

                     16                     17                     18
                      A                      A                      A
 Frequencies --    943.0966               965.0601              1044.3085
 Red. masses --      4.5777                 1.2034                 1.4068
 Frc consts  --      2.3989                 0.6603                 0.9039
 IR Inten    --      3.1709                 0.0348                 0.6995

                     19                     20                     21
                      A                      A                      A
 Frequencies --   1055.0692              1232.6597              1269.9041
 Red. masses --      1.4475                 2.2977                 2.6252
 Frc consts  --      0.9493                 2.0570                 2.4943
 IR Inten    --      1.5020                43.4056                20.5301

                     22                     23                     24
                      A                      A                      A
 Frequencies --   1287.1333              1359.4725              1405.7810
 Red. masses --      2.6362                 1.1509                 1.3123
 Frc consts  --      2.5732                 1.2532                 1.5279
 IR Inten    --     21.6133                50.1755                14.4256

                     25                     26                     27
                      A                      A                      A
 Frequencies --   1408.3945              1431.7961              1482.9394
 Red. masses --      1.3114                 1.2335                 1.0477
 Frc consts  --      1.5326                 1.4899                 1.3575
 IR Inten    --     12.3508                 5.5654                 0.2336

                     28                     29                     30
                      A                      A                      A
 Frequencies --   1501.1829              1503.3298              1510.1609
 Red. masses --      1.0489                 1.0465                 1.0645
 Frc consts  --      1.3927                 1.3935                 1.4303
 IR Inten    --      0.4298                 0.3062                 3.7012

                     31                     32                     33
                      A                      A                      A
 Frequencies --   1512.3089              1537.0823              3048.3654
 Red. masses --      1.0535                 1.0575                 1.0356
 Frc consts  --      1.4196                 1.4720                 5.6697
 IR Inten    --      1.4911                 5.3986                21.0741

                     34                     35                     36
                      A                      A                      A
 Frequencies --   3052.2015              3058.4529              3119.9645
 Red. masses --      1.0352                 1.0361                 1.1025
 Frc consts  --      5.6822                 5.7101                 6.3231
 IR Inten    --     14.6934                10.0533                10.3384

                     37                     38                     39
                      A                      A                      A
 Frequencies --   3124.8555              3132.8291              3135.0825
 Red. masses --      1.1024                 1.1027                 1.1025
 Frc consts  --      6.3423                 6.3764                 6.3845
 IR Inten    --     12.2619                35.9181                10.5079

                     40                     41                     42
                      A                      A                      A
 Frequencies --   3137.3025              3146.9363              3762.0989
 Red. masses --      1.1025                 1.1018                 1.0688
 Frc consts  --      6.3938                 6.4287                 8.9122
 IR Inten    --     32.9485                20.1676                23.7937

 - Thermochemistry -
 -------------------
 Temperature   298.150 Kelvin.  Pressure   1.00000 Atm.
 Atom     1 has atomic number  6 and mass  12.00000

 Molecular mass:    90.06808 amu.
 Principal axes and moments of inertia in atomic units:
                           1         2         3
     Eigenvalues --   407.80869 654.49156 655.42797
           X            0.99903   0.00968  -0.04298
           Y           -0.02289   0.94761  -0.31860
           Z            0.03764   0.31928   0.94691
 This molecule is an asymmetric top.
 Rotational symmetry number  1.
 Rotational temperatures (Kelvin)      0.21239     0.13234     0.13215
 Rotational constants (GHZ):           4.42546     2.75747     2.75353
 Zero-point vibrational energy     365297.8 (Joules/Mol)
                                   87.30827 (Kcal/Mol)
 Warning -- explicit consideration of  11 degrees of freedom as
           vibrations may cause significant error
 Vibrational temperatures:    201.18   277.94   337.54   360.60   372.48
          (Kelvin)            389.82   487.52   513.89   582.76   666.57
                              762.96  1079.42  1248.69  1323.70  1330.04
                             1356.90  1388.50  1502.53  1518.01  1773.52
                             1827.11  1851.90  1955.98  2022.60  2026.36
                             2060.03  2133.62  2159.86  2162.95  2172.78
                             2175.87  2211.52  4385.91  4391.43  4400.43
                             4488.93  4495.96  4507.44  4510.68  4513.87
                             4527.73  5412.81

 Zero-point correction=                           0.139135 (Hartree/Particle)
 Thermal correction to Energy=                    0.147113
 Thermal correction to Enthalpy=                  0.148058
 Thermal correction to Gibbs Free Energy=         0.108232
 Sum of electronic and zero-point Energies=           -308.680847
 Sum of electronic and thermal Energies=              -308.672868
 Sum of electronic and thermal Enthalpies=            -308.671924
 Sum of electronic and thermal Free Energies=         -308.711750

                     E (Thermal)             CV                S
                      KCal/Mol        Cal/Mol-Kelvin    Cal/Mol-Kelvin
 Total                   92.315             28.980             83.820
 Electronic               0.000              0.000              0.000
 Translational            0.889              2.981             39.406
 Rotational               0.889              2.981             26.661
 Vibrational             90.538             23.019             17.753
 Vibration     1          0.615              1.913              2.806
 Vibration     2          0.635              1.849              2.197
 Vibration     3          0.654              1.788              1.843
 Vibration     4          0.663              1.762              1.726
 Vibration     5          0.668              1.748              1.669
 Vibration     6          0.675              1.727              1.590
 Vibration     7          0.719              1.598              1.218
 Vibration     8          0.732              1.561              1.134
 Vibration     9          0.770              1.459              0.944
 Vibration    10          0.821              1.331              0.757
 Vibration    11          0.885              1.183              0.587

 Normal termination of Gaussian 09 at Thu Sep  8 14:55:46 2022.
