 Gaussian 09, Revision E.01,
 Gaussian 09:  ES64L-G09RevE.01 30-Nov-2015

 ----------------------------
 #P OPT Freq B3LYP/6-31G(d,p)
 ----------------------------

 --------
 Frag_605
 --------
 Symbolic Z-matrix:
 Charge =  0 Multiplicity = 1

 SCF Done:  E(RB3LYP) =  -324.852340113     A.U. after   14 cycles
 SCF Done:  E(RB3LYP) =  -324.852440070     A.U. after   11 cycles
 SCF Done:  E(RB3LYP) =  -324.852458587     A.U. after   10 cycles
 SCF Done:  E(RB3LYP) =  -324.852466820     A.U. after   10 cycles
 SCF Done:  E(RB3LYP) =  -324.852468009     A.U. after    8 cycles
 SCF Done:  E(RB3LYP) =  -324.852469083     A.U. after    8 cycles
 SCF Done:  E(RB3LYP) =  -324.852469340     A.U. after    8 cycles
 SCF Done:  E(RB3LYP) =  -324.852469751     A.U. after    8 cycles
 SCF Done:  E(RB3LYP) =  -324.852470263     A.U. after    8 cycles
 SCF Done:  E(RB3LYP) =  -324.852471151     A.U. after    9 cycles
 SCF Done:  E(RB3LYP) =  -324.852477003     A.U. after   10 cycles
 SCF Done:  E(RB3LYP) =  -324.852476978     A.U. after    7 cycles
 SCF Done:  E(RB3LYP) =  -324.852477030     A.U. after    7 cycles
 SCF Done:  E(RB3LYP) =  -324.852478082     A.U. after   11 cycles
 SCF Done:  E(RB3LYP) =  -324.852477204     A.U. after   12 cycles
 SCF Done:  E(RB3LYP) =  -324.852478370     A.U. after   11 cycles
 SCF Done:  E(RB3LYP) =  -324.852478342     A.U. after    9 cycles
 SCF Done:  E(RB3LYP) =  -324.852478402     A.U. after    9 cycles
 SCF Done:  E(RB3LYP) =  -324.852478416     A.U. after    8 cycles
 Optimization completed.
    -- Stationary point found.
 Normal termination of Gaussian 09 at Thu Sep  8 15:05:28 2022.

 ----------------------------------------------------------------------
 #P Geom=AllCheck Guess=TCheck SCRF=Check GenChk RB3LYP/6-31G(d,p) Freq
 ----------------------------------------------------------------------

 Structure from the checkpoint file:  "B3LYP6-31Gdp.Frag_605.chk"
 --------
 Frag_605
 --------
 Charge =  0 Multiplicity = 1

                         Standard orientation:
 ---------------------------------------------------------------------
 Center     Atomic      Atomic             Coordinates (Angstroms)
 Number     Number       Type             X           Y           Z
 ---------------------------------------------------------------------
      1          6           0       -0.378632   -1.249580    0.885733
      2          6           0       -0.409251   -0.001053   -0.000935
      3          6           0       -0.422085    1.296074    0.808257
      4          7           0       -1.485652   -0.005268   -0.961422
      5          8           0        0.755808   -0.011688   -0.886260
      6          8           0        1.963521   -0.090021   -0.063889
      7          1           0       -0.361008   -2.146341    0.257730
      8          1           0       -1.268445   -1.282211    1.522708
      9          1           0        0.510194   -1.262452    1.519325
     10          1           0        0.500644    1.382655    1.385117
     11          1           0       -1.265507    1.315175    1.506112
     12          1           0       -0.499805    2.153242    0.132399
     13          1           0       -1.834192   -0.937215   -1.152259
     14          1           0       -2.250675    0.599720   -0.693077
     15          1           0        2.373545    0.755333   -0.305236
 ---------------------------------------------------------------------

 SCF Done:  E(RB3LYP) =  -324.852478416     A.U. after    1 cycles

 The electronic state is 1-A.
 Alpha  occ. eigenvalues --  -19.18708 -19.18299 -14.32052 -10.26649 -10.17851
 Alpha  occ. eigenvalues --  -10.17185  -1.09312  -0.92746  -0.84941  -0.74257
 Alpha  occ. eigenvalues --   -0.69509  -0.57657  -0.50262  -0.49671  -0.47210
 Alpha  occ. eigenvalues --   -0.45258  -0.41562  -0.39897  -0.38116  -0.37904
 Alpha  occ. eigenvalues --   -0.36451  -0.34825  -0.29221  -0.24740  -0.24480
 Alpha virt. eigenvalues --    0.03833   0.07263   0.10782   0.12699   0.13709
 Alpha virt. eigenvalues --    0.14590   0.16480   0.16777   0.19562   0.19705
 Alpha virt. eigenvalues --    0.21585   0.22051   0.27998   0.30289   0.50522

 Mulliken charges:
               1
     1  C   -0.317764
     2  C    0.407568
     3  C   -0.344047
     4  N   -0.589311
     5  O   -0.303837
     6  O   -0.340477
     7  H    0.107563
     8  H    0.092735
     9  H    0.129145
    10  H    0.117940
    11  H    0.100039
    12  H    0.115399
    13  H    0.247931
    14  H    0.247161
    15  H    0.329956
 Sum of Mulliken charges =   0.00000

 Dipole moment (field-independent basis, Debye):
    X=             -1.5363    Y=              0.9596    Z=              1.4875  Tot=              2.3439
 Quadrupole moment (field-independent basis, Debye-Ang):
   XX=            -31.4344   YY=            -34.8423   ZZ=            -40.5023
   XY=              4.1429   XZ=              0.1887   YZ=              0.6960

  Exact polarizability:  56.818   1.153  46.889   2.933   0.402  43.167
 Approx polarizability:  79.243   0.056  60.783   6.870   0.463  62.474

                      1                      2                      3
                      A                      A                      A
 Frequencies --     60.9437               175.4811               230.0496
 Red. masses --      1.2287                 2.4799                 1.1784
 Frc consts  --      0.0027                 0.0450                 0.0367
 IR Inten    --     37.7317                 1.4088                60.1307

                      4                      5                      6
                      A                      A                      A
 Frequencies --    258.8680               274.3900               277.8180
 Red. masses --      1.1657                 1.3844                 1.5754
 Frc consts  --      0.0460                 0.0614                 0.0716
 IR Inten    --     59.4425                 2.6381                12.2798

                      7                      8                      9
                      A                      A                      A
 Frequencies --    363.2010               367.5088               444.6510
 Red. masses --      2.7515                 2.8056                 2.6918
 Frc consts  --      0.2139                 0.2233                 0.3136
 IR Inten    --      2.1989                 4.7603                 9.9353

                     10                     11                     12
                      A                      A                      A
 Frequencies --    482.2521               530.2271               663.6997
 Red. masses --      2.7250                 3.4349                 1.5316
 Frc consts  --      0.3734                 0.5690                 0.3975
 IR Inten    --      8.3512                 4.8711               178.5927

                     13                     14                     15
                      A                      A                      A
 Frequencies --    760.6585               915.8589               922.0322
 Red. masses --      4.2784                 2.5690                 7.2104
 Frc consts  --      1.4585                 1.2696                 3.6116
 IR Inten    --      3.9384                22.7358                28.9221

                     16                     17                     18
                      A                      A                      A
 Frequencies --    930.9737               999.8212              1018.7786
 Red. masses --      1.6292                 1.3918                 1.5491
 Frc consts  --      0.8319                 0.8197                 0.9473
 IR Inten    --      5.7519                 1.2083                 5.0207

                     19                     20                     21
                      A                      A                      A
 Frequencies --   1088.1776              1202.2741              1293.2817
 Red. masses --      1.4578                 2.3251                 2.7988
 Frc consts  --      1.0171                 1.9802                 2.7581
 IR Inten    --      5.9738                71.4738                76.4651

                     22                     23                     24
                      A                      A                      A
 Frequencies --   1342.2625              1357.3677              1410.9786
 Red. masses --      1.5673                 1.2822                 1.4652
 Frc consts  --      1.6637                 1.3919                 1.7187
 IR Inten    --     14.3343                31.5396                27.6763

                     25                     26                     27
                      A                      A                      A
 Frequencies --   1422.2271              1489.4127              1509.3314
 Red. masses --      1.2711                 1.0537                 1.0522
 Frc consts  --      1.5148                 1.3772                 1.4123
 IR Inten    --     13.0438                 0.4971                 0.3560

                     28                     29                     30
                      A                      A                      A
 Frequencies --   1509.7746              1526.3037              1662.5812
 Red. masses --      1.0626                 1.0516                 1.1124
 Frc consts  --      1.4270                 1.4433                 1.8117
 IR Inten    --      1.8782                 2.3960                27.2598

                     31                     32                     33
                      A                      A                      A
 Frequencies --   3048.5036              3054.1899              3119.4274
 Red. masses --      1.0367                 1.0370                 1.1032
 Frc consts  --      5.6763                 5.6992                 6.3249
 IR Inten    --     20.0498                10.2164                16.8165

                     34                     35                     36
                      A                      A                      A
 Frequencies --   3124.7816              3148.5922              3152.4419
 Red. masses --      1.1027                 1.1010                 1.1004
 Frc consts  --      6.3440                 6.4309                 6.4430
 IR Inten    --     32.9731                 1.2977                24.6435

                     37                     38                     39
                      A                      A                      A
 Frequencies --   3551.6980              3653.6971              3771.1112
 Red. masses --      1.0489                 1.0960                 1.0687
 Frc consts  --      7.7958                 8.6204                 8.9544
 IR Inten    --      2.5728                 5.1609                25.6175

 - Thermochemistry -
 -------------------
 Temperature   298.150 Kelvin.  Pressure   1.00000 Atm.
 Atom     1 has atomic number  6 and mass  12.00000

 Molecular mass:    91.06333 amu.
 Principal axes and moments of inertia in atomic units:
                           1         2         3
     Eigenvalues --   394.84156 640.15933 652.84887
           X            0.99964   0.02639   0.00469
           Y           -0.02663   0.99770   0.06238
           Z           -0.00304  -0.06248   0.99804
 This molecule is an asymmetric top.
 Rotational symmetry number  1.
 Rotational temperatures (Kelvin)      0.21936     0.13530     0.13267
 Rotational constants (GHZ):           4.57080     2.81921     2.76441
 Zero-point vibrational energy     335646.0 (Joules/Mol)
                                   80.22132 (Kcal/Mol)
 Warning -- explicit consideration of  11 degrees of freedom as
           vibrations may cause significant error
 Vibrational temperatures:     87.68   252.48   330.99   372.45   394.79
          (Kelvin)            399.72   522.56   528.76   639.75   693.85
                              762.88   954.91  1094.42  1317.72  1326.60
                             1339.46  1438.52  1465.79  1565.64  1729.80
                             1860.74  1931.21  1952.95  2030.08  2046.26
                             2142.93  2171.59  2172.23  2196.01  2392.08
                             4386.11  4394.29  4488.15  4495.86  4530.12
                             4535.66  5110.09  5256.85  5425.78

 Zero-point correction=                           0.127841 (Hartree/Particle)
 Thermal correction to Energy=                    0.135921
 Thermal correction to Enthalpy=                  0.136865
 Thermal correction to Gibbs Free Energy=         0.096370
 Sum of electronic and zero-point Energies=           -324.724638
 Sum of electronic and thermal Energies=              -324.716558
 Sum of electronic and thermal Enthalpies=            -324.715613
 Sum of electronic and thermal Free Energies=         -324.756109

                     E (Thermal)             CV                S
                      KCal/Mol        Cal/Mol-Kelvin    Cal/Mol-Kelvin
 Total                   85.292             28.908             85.230
 Electronic               0.000              0.000              0.000
 Translational            0.889              2.981             39.439
 Rotational               0.889              2.981             26.603
 Vibrational             83.514             22.947             19.188
 Vibration     1          0.597              1.973              4.426
 Vibration     2          0.627              1.873              2.376
 Vibration     3          0.652              1.795              1.879
 Vibration     4          0.668              1.748              1.669
 Vibration     5          0.677              1.721              1.568
 Vibration     6          0.679              1.715              1.547
 Vibration     7          0.737              1.548              1.108
 Vibration     8          0.740              1.539              1.090
 Vibration     9          0.804              1.373              0.812
 Vibration    10          0.838              1.289              0.704
 Vibration    11          0.885              1.183              0.587

 Optimization completed.
    -- Stationary point found.
 Normal termination of Gaussian 09 at Thu Sep  8 15:05:40 2022.
