 Gaussian 09, Revision E.01,
 Gaussian 09:  ES64L-G09RevE.01 30-Nov-2015

 ----------------------------
 #P OPT Freq B3LYP/6-31G(d,p)
 ----------------------------

 --------
 Frag_946
 --------
 Symbolic Z-matrix:
 Charge =  0 Multiplicity = 1

 SCF Done:  E(RB3LYP) =  -285.615736651     A.U. after   13 cycles
 SCF Done:  E(RB3LYP) =  -285.615788848     A.U. after    9 cycles
 SCF Done:  E(RB3LYP) =  -285.615794644     A.U. after    8 cycles
 SCF Done:  E(RB3LYP) =  -285.615796540     A.U. after    7 cycles
 SCF Done:  E(RB3LYP) =  -285.615797408     A.U. after    7 cycles
 Optimization completed.
    -- Stationary point found.
 Normal termination of Gaussian 09 at Thu Sep  8 15:07:46 2022.

 ----------------------------------------------------------------------
 #P Geom=AllCheck Guess=TCheck SCRF=Check GenChk RB3LYP/6-31G(d,p) Freq
 ----------------------------------------------------------------------

 Structure from the checkpoint file:  "B3LYP6-31Gdp.Frag_946.chk"
 --------
 Frag_946
 --------
 Charge =  0 Multiplicity = 1

                         Standard orientation:
 ---------------------------------------------------------------------
 Center     Atomic      Atomic             Coordinates (Angstroms)
 Number     Number       Type             X           Y           Z
 ---------------------------------------------------------------------
      1          7           0       -1.933475    0.011224   -0.187979
      2          6           0       -0.723647   -0.687680    0.219417
      3          6           0        0.506244    0.018627   -0.352456
      4          8           0        1.688413   -0.689168   -0.063133
      5          8           0        0.558758    1.367636    0.084717
      6          1           0       -1.863045    0.984300    0.098596
      7          1           0       -2.751647   -0.387602    0.262384
      8          1           0       -0.574484   -0.761641    1.320824
      9          1           0       -0.748480   -1.713578   -0.164882
     10          1           0        0.433184    0.081354   -1.440654
     11          1           0        1.615867   -1.053378    0.830896
     12          1           0        0.749977    1.358546    1.034252
 ---------------------------------------------------------------------

 SCF Done:  E(RB3LYP) =  -285.615797408     A.U. after    1 cycles

 The electronic state is 1-A.
 Alpha  occ. eigenvalues --  -19.15581 -19.15142 -14.31484 -10.28072 -10.21612
 Alpha  occ. eigenvalues --   -1.06060  -0.99564  -0.88220  -0.71092  -0.63003
 Alpha  occ. eigenvalues --   -0.53341  -0.50023  -0.48321  -0.44876  -0.42855
 Alpha  occ. eigenvalues --   -0.39145  -0.36026  -0.35392  -0.29336  -0.28117
 Alpha  occ. eigenvalues --   -0.23788
 Alpha virt. eigenvalues --    0.05595   0.08033   0.11208   0.13558   0.14746
 Alpha virt. eigenvalues --    0.16279   0.18528   0.23328   0.24788   0.25508
 Alpha virt. eigenvalues --    0.27041   0.53560   0.55911   0.57068   0.59429

 Mulliken charges:
               1
     1  N   -0.597412
     2  C   -0.078057
     3  C    0.356377
     4  O   -0.522371
     5  O   -0.516650
     6  H    0.246878
     7  H    0.238608
     8  H    0.044462
     9  H    0.115927
    10  H    0.125941
    11  H    0.296131
    12  H    0.290165
 Sum of Mulliken charges =  -0.00000

 Dipole moment (field-independent basis, Debye):
    X=             -1.0807    Y=             -0.9614    Z=              3.2940  Tot=              3.5976
 Quadrupole moment (field-independent basis, Debye-Ang):
   XX=            -32.0524   YY=            -31.1027   ZZ=            -28.1923
   XY=             -0.2098   XZ=              0.1225   YZ=              0.4849

  Exact polarizability:  39.279  -1.446  36.119   1.446  -0.702  34.513
 Approx polarizability:  48.890  -2.748  49.896   2.354  -1.426  49.349

                      1                      2                      3
                      A                      A                      A
 Frequencies --    151.3971               206.3388               252.9451
 Red. masses --      2.5266                 1.1584                 2.1145
 Frc consts  --      0.0341                 0.0291                 0.0797
 IR Inten    --     19.7443                39.1595                21.8829

                      4                      5                      6
                      A                      A                      A
 Frequencies --    309.3436               379.9633               454.1973
 Red. masses --      1.3135                 1.1167                 5.5753
 Frc consts  --      0.0741                 0.0950                 0.6776
 IR Inten    --      6.4795               168.2934                17.8762

                      7                      8                      9
                      A                      A                      A
 Frequencies --    491.9138               573.5299               850.1614
 Red. masses --      2.3759                 3.8826                 1.4437
 Frc consts  --      0.3387                 0.7525                 0.6148
 IR Inten    --     15.4044                45.0327               165.2672

                     10                     11                     12
                      A                      A                      A
 Frequencies --    860.0685              1021.8394              1057.6335
 Red. masses --      1.8725                 2.1246                 2.2375
 Frc consts  --      0.8161                 1.3070                 1.4746
 IR Inten    --     29.7569                29.6198               125.7191

                     13                     14                     15
                      A                      A                      A
 Frequencies --   1093.4901              1131.6083              1174.7224
 Red. masses --      4.5613                 1.8816                 1.3072
 Frc consts  --      3.2135                 1.4196                 1.0629
 IR Inten    --    107.1462                45.5618                84.6080

                     16                     17                     18
                      A                      A                      A
 Frequencies --   1228.3334              1275.5386              1355.9499
 Red. masses --      1.2922                 1.4033                 1.2819
 Frc consts  --      1.1487                 1.3452                 1.3886
 IR Inten    --      7.5100                12.8010                 0.4422

                     19                     20                     21
                      A                      A                      A
 Frequencies --   1411.2888              1441.4980              1452.3800
 Red. masses --      1.2589                 1.2134                 1.5726
 Frc consts  --      1.4773                 1.4855                 1.9545
 IR Inten    --     76.2459                33.0177                13.6242

                     22                     23                     24
                      A                      A                      A
 Frequencies --   1521.5631              1654.9275              2853.0682
 Red. masses --      1.0882                 1.0930                 1.0730
 Frc consts  --      1.4843                 1.7637                 5.1461
 IR Inten    --      3.2269                34.5778               125.6295

                     25                     26                     27
                      A                      A                      A
 Frequencies --   3075.6643              3122.8904              3504.8731
 Red. masses --      1.0859                 1.0889                 1.0490
 Frc consts  --      6.0522                 6.2566                 7.5920
 IR Inten    --     28.5021                24.7177                 2.3455

                     28                     29                     30
                      A                      A                      A
 Frequencies --   3596.9171              3780.4682              3782.3380
 Red. masses --      1.0935                 1.0655                 1.0661
 Frc consts  --      8.3358                 8.9720                 8.9857
 IR Inten    --      1.5810                 9.9436                 6.5359

 - Thermochemistry -
 -------------------
 Temperature   298.150 Kelvin.  Pressure   1.00000 Atm.
 Atom     1 has atomic number  7 and mass  14.00307

 Molecular mass:    77.04768 amu.
 Principal axes and moments of inertia in atomic units:
                           1         2         3
     Eigenvalues --   211.57006 485.70199 637.12846
           X            0.99999   0.00467  -0.00108
           Y           -0.00468   0.99996  -0.00824
           Z            0.00104   0.00825   0.99997
 This molecule is an asymmetric top.
 Rotational symmetry number  1.
 Rotational temperatures (Kelvin)      0.40939     0.17833     0.13594
 Rotational constants (GHZ):           8.53023     3.71574     2.83262
 Zero-point vibrational energy     269559.6 (Joules/Mol)
                                   64.42630 (Kcal/Mol)
 Warning -- explicit consideration of   8 degrees of freedom as
           vibrations may cause significant error
 Vibrational temperatures:    217.83   296.88   363.93   445.08   546.68
          (Kelvin)            653.49   707.75   825.18  1223.19  1237.45
                             1470.20  1521.70  1573.29  1628.13  1690.16
                             1767.30  1835.21  1950.91  2030.53  2073.99
                             2089.65  2189.19  2381.07  4104.92  4425.19
                             4493.14  5042.72  5175.15  5439.24  5441.93

 Zero-point correction=                           0.102670 (Hartree/Particle)
 Thermal correction to Energy=                    0.108900
 Thermal correction to Enthalpy=                  0.109844
 Thermal correction to Gibbs Free Energy=         0.073620
 Sum of electronic and zero-point Energies=           -285.513128
 Sum of electronic and thermal Energies=              -285.506897
 Sum of electronic and thermal Enthalpies=            -285.505953
 Sum of electronic and thermal Free Energies=         -285.542178

                     E (Thermal)             CV                S
                      KCal/Mol        Cal/Mol-Kelvin    Cal/Mol-Kelvin
 Total                   68.336             21.756             76.241
 Electronic               0.000              0.000              0.000
 Translational            0.889              2.981             38.941
 Rotational               0.889              2.981             25.685
 Vibrational             66.558             15.795             11.615
 Vibration     1          0.619              1.901              2.655
 Vibration     2          0.641              1.831              2.076
 Vibration     3          0.664              1.758              1.710
 Vibration     4          0.699              1.656              1.366
 Vibration     5          0.750              1.513              1.039
 Vibration     6          0.813              1.352              0.783
 Vibration     7          0.848              1.268              0.679
 Vibration     8          0.930              1.089              0.497

 Normal termination of Gaussian 09 at Thu Sep  8 15:07:55 2022.
