 Gaussian 09, Revision E.01,
 Gaussian 09:  ES64L-G09RevE.01 30-Nov-2015

 --------------------------------
 #P OPT=calcfc Freq B3LYP/6-31G**
 --------------------------------

 --------
 Frag_413
 --------
 Symbolic Z-matrix:
 Charge =  0 Multiplicity = 1

 SCF Done:  E(RB3LYP) =  -264.553067019     A.U. after   14 cycles
 SCF Done:  E(RB3LYP) =  -264.568071714     A.U. after   13 cycles
 SCF Done:  E(RB3LYP) =  -264.567856665     A.U. after   12 cycles
 SCF Done:  E(RB3LYP) =  -264.568605186     A.U. after   11 cycles
 SCF Done:  E(RB3LYP) =  -264.571057142     A.U. after   14 cycles
 SCF Done:  E(RB3LYP) =  -264.572212105     A.U. after   11 cycles
 SCF Done:  E(RB3LYP) =  -264.572633387     A.U. after   12 cycles
 SCF Done:  E(RB3LYP) =  -264.572769116     A.U. after   11 cycles
 SCF Done:  E(RB3LYP) =  -264.572810126     A.U. after   10 cycles
 SCF Done:  E(RB3LYP) =  -264.572815898     A.U. after    8 cycles
 SCF Done:  E(RB3LYP) =  -264.572820065     A.U. after    8 cycles
 SCF Done:  E(RB3LYP) =  -264.572823716     A.U. after    9 cycles
 SCF Done:  E(RB3LYP) =  -264.572824771     A.U. after    8 cycles
 SCF Done:  E(RB3LYP) =  -264.572824937     A.U. after    7 cycles
 Optimization completed.
    -- Stationary point found.
 Normal termination of Gaussian 09 at Fri Sep 10 21:06:26 2021.

 ----------------------------------------------------------------------
 #P Geom=AllCheck Guess=TCheck SCRF=Check GenChk RB3LYP/6-31G(d,p) Freq
 ----------------------------------------------------------------------

 Structure from the checkpoint file:  "/public/home/users/caep010/.cache/gau_scr/Gau-4610.chk"
 --------
 Frag_413
 --------
 Charge =  0 Multiplicity = 1

                         Standard orientation:
 ---------------------------------------------------------------------
 Center     Atomic      Atomic             Coordinates (Angstroms)
 Number     Number       Type             X           Y           Z
 ---------------------------------------------------------------------
      1          7           0        1.821208   -0.189925   -0.084015
      2          6           0        0.713875    0.745896    0.142912
      3          6           0       -0.666537    0.088238    0.007562
      4          7           0       -0.639625   -1.268078    0.059141
      5          8           0       -1.681764    0.760517   -0.109850
      6          1           0        2.677355    0.163740    0.332375
      7          1           0        2.001246   -0.285989   -1.080194
      8          1           0        0.776873    1.116770    1.172381
      9          1           0        0.704023    1.630559   -0.508144
     10          1           0        0.247860   -1.730550    0.197748
     11          1           0       -1.508354   -1.777451    0.035911
 ---------------------------------------------------------------------

 SCF Done:  E(RB3LYP) =  -264.572824937     A.U. after    1 cycles

 The electronic state is 1-A.
 Alpha  occ. eigenvalues --  -19.09643 -14.34287 -14.33525 -10.27515 -10.21958
 Alpha  occ. eigenvalues --   -1.01563  -0.90601  -0.87900  -0.69837  -0.57478
 Alpha  occ. eigenvalues --   -0.53385  -0.50491  -0.46591  -0.43093  -0.41590
 Alpha  occ. eigenvalues --   -0.38498  -0.35680  -0.26724  -0.25483  -0.23199
 Alpha virt. eigenvalues --    0.03814   0.07164   0.11093   0.12882   0.14266
 Alpha virt. eigenvalues --    0.15831   0.19733   0.21879   0.25954   0.32885
 Alpha virt. eigenvalues --    0.39644   0.54374   0.55834   0.57395   0.59783

 Mulliken charges:
               1
     1  N   -0.626665
     2  C   -0.136267
     3  C    0.555121
     4  N   -0.598644
     5  O   -0.513836
     6  H    0.251460
     7  H    0.252855
     8  H    0.138326
     9  H    0.120945
    10  H    0.286051
    11  H    0.270655
 Sum of Mulliken charges =   0.00000

 Dipole moment (field-independent basis, Debye):
    X=              3.4967    Y=             -1.5885    Z=             -0.0572  Tot=              3.8410
 Quadrupole moment (field-independent basis, Debye-Ang):
   XX=            -29.9400   YY=            -28.0183   ZZ=            -28.8339
   XY=              6.3304   XZ=             -1.3614   YZ=              0.6666

  Exact polarizability:  43.397  -1.255  41.259   0.987   0.180  26.191
 Approx polarizability:  58.676  -8.525  61.014   2.547  -0.411  36.942

                      1                      2                      3
                      A                      A                      A
 Frequencies --     90.9589               219.6930               304.1970
 Red. masses --      2.7652                 1.1602                 3.0885
 Frc consts  --      0.0135                 0.0330                 0.1684
 IR Inten    --      1.5740                25.2174                27.0833

                      4                      5                      6
                      A                      A                      A
 Frequencies --    370.3165               498.8322               525.0211
 Red. masses --      1.1116                 5.3725                 2.3205
 Frc consts  --      0.0898                 0.7876                 0.3769
 IR Inten    --    224.5985                 7.1067                19.1509

                      7                      8                      9
                      A                      A                      A
 Frequencies --    584.0935               717.5582               819.2805
 Red. masses --      2.5562                 1.1482                 2.0939
 Frc consts  --      0.5138                 0.3483                 0.8281
 IR Inten    --     13.3038                 1.4455                41.7389

                     10                     11                     12
                      A                      A                      A
 Frequencies --    882.3796               980.5847              1078.7988
 Red. masses --      1.6160                 1.8502                 2.6828
 Frc consts  --      0.7413                 1.0482                 1.8396
 IR Inten    --     76.3746                43.9866                11.6170

                     13                     14                     15
                      A                      A                      A
 Frequencies --   1108.9164              1171.7934              1317.1573
 Red. masses --      1.8479                 1.2463                 1.2813
 Frc consts  --      1.3389                 1.0083                 1.3097
 IR Inten    --      7.4997                 1.0833                15.7809

                     16                     17                     18
                      A                      A                      A
 Frequencies --   1358.3964              1403.9596              1492.7924
 Red. masses --      1.9434                 1.6729                 1.0883
 Frc consts  --      2.1129                 1.9428                 1.4289
 IR Inten    --     48.2640                24.2513                 3.3927

                     19                     20                     21
                      A                      A                      A
 Frequencies --   1588.1862              1670.9661              1813.6968
 Red. masses --      1.3753                 1.0930                 9.8421
 Frc consts  --      2.0439                 1.7981                19.0751
 IR Inten    --    172.3517                31.8136               312.6645

                     22                     23                     24
                      A                      A                      A
 Frequencies --   3030.4821              3086.0536              3506.6129
 Red. masses --      1.0651                 1.0986                 1.0501
 Frc consts  --      5.7632                 6.1647                 7.6078
 IR Inten    --     34.9212                14.8730                 0.1103

                     25                     26                     27
                      A                      A                      A
 Frequencies --   3578.6164              3591.5276              3735.7346
 Red. masses --      1.0452                 1.0929                 1.1051
 Frc consts  --      7.8865                 8.3060                 9.0862
 IR Inten    --     45.1011                 1.7932                72.4724

 - Thermochemistry -
 -------------------
 Temperature   298.150 Kelvin.  Pressure   1.00000 Atm.
 Atom     1 has atomic number  7 and mass  14.00307

 Molecular mass:    74.04801 amu.
 Principal axes and moments of inertia in atomic units:
                           1         2         3
     Eigenvalues --   187.89914 453.67394 616.20476
           X            0.99850   0.05440  -0.00560
           Y           -0.05435   0.99848   0.00897
           Z            0.00608  -0.00865   0.99994
 This molecule is an asymmetric top.
 Rotational symmetry number  1.
 Rotational temperatures (Kelvin)      0.46096     0.19092     0.14056
 Rotational constants (GHZ):           9.60484     3.97806     2.92880
 Zero-point vibrational energy     242402.9 (Joules/Mol)
                                   57.93569 (Kcal/Mol)
 Warning -- explicit consideration of   7 degrees of freedom as
           vibrations may cause significant error
 Vibrational temperatures:    130.87   316.09   437.67   532.80   717.71
          (Kelvin)            755.39   840.38  1032.40  1178.76  1269.55
                             1410.84  1552.15  1595.48  1685.95  1895.09
                             1954.43  2019.98  2147.79  2285.04  2404.14
                             2609.50  4360.18  4440.14  5045.23  5148.82
                             5167.40  5374.88

 Zero-point correction=                           0.092326 (Hartree/Particle)
 Thermal correction to Energy=                    0.098181
 Thermal correction to Enthalpy=                  0.099125
 Thermal correction to Gibbs Free Energy=         0.063445
 Sum of electronic and zero-point Energies=           -264.480499
 Sum of electronic and thermal Energies=              -264.474644
 Sum of electronic and thermal Enthalpies=            -264.473700
 Sum of electronic and thermal Free Energies=         -264.509380

                     E (Thermal)             CV                S
                      KCal/Mol        Cal/Mol-Kelvin    Cal/Mol-Kelvin
 Total                   61.609             20.137             75.096
 Electronic               0.000              0.000              0.000
 Translational            0.889              2.981             38.822
 Rotational               0.889              2.981             25.466
 Vibrational             59.832             14.176             10.808
 Vibration     1          0.602              1.956              3.639
 Vibration     2          0.647              1.811              1.962
 Vibration     3          0.695              1.666              1.394
 Vibration     4          0.742              1.533              1.078
 Vibration     5          0.854              1.253              0.661
 Vibration     6          0.880              1.195              0.598
 Vibration     7          0.941              1.066              0.478

 Optimization completed.
    -- Stationary point found.
 Normal termination of Gaussian 09 at Fri Sep 10 21:06:34 2021.
