 Gaussian 09, Revision E.01,
 Gaussian 09:  ES64L-G09RevE.01 30-Nov-2015

 ----------------------------
 #P OPT Freq B3LYP/6-31G(d,p)
 ----------------------------

 --------
 Frag_861
 --------
 Symbolic Z-matrix:
 Charge =  0 Multiplicity = 1

 SCF Done:  E(RB3LYP) =  -319.826619605     A.U. after   14 cycles
 SCF Done:  E(RB3LYP) =  -319.826691476     A.U. after   11 cycles
 SCF Done:  E(RB3LYP) =  -319.826712991     A.U. after   10 cycles
 SCF Done:  E(RB3LYP) =  -319.826730083     A.U. after   10 cycles
 SCF Done:  E(RB3LYP) =  -319.826733158     A.U. after    8 cycles
 SCF Done:  E(RB3LYP) =  -319.826734358     A.U. after    8 cycles
 SCF Done:  E(RB3LYP) =  -319.826734869     A.U. after    7 cycles
 SCF Done:  E(RB3LYP) =  -319.826735268     A.U. after    8 cycles
 SCF Done:  E(RB3LYP) =  -319.826735498     A.U. after    7 cycles
 SCF Done:  E(RB3LYP) =  -319.826735593     A.U. after    7 cycles
 Optimization completed.
    -- Stationary point found.
 Normal termination of Gaussian 09 at Thu Sep  8 15:03:06 2022.

 ----------------------------------------------------------------------
 #P Geom=AllCheck Guess=TCheck SCRF=Check GenChk RB3LYP/6-31G(d,p) Freq
 ----------------------------------------------------------------------

 Structure from the checkpoint file:  "B3LYP6-31Gdp.Frag_861.chk"
 --------
 Frag_861
 --------
 Charge =  0 Multiplicity = 1

                         Standard orientation:
 ---------------------------------------------------------------------
 Center     Atomic      Atomic             Coordinates (Angstroms)
 Number     Number       Type             X           Y           Z
 ---------------------------------------------------------------------
      1          6           0       -1.681025   -0.936372   -0.072774
      2          6           0       -0.696832    0.203976   -0.041220
      3          7           0       -0.934644    1.446848    0.169293
      4          7           0        0.630036   -0.129625   -0.343490
      5          7           0        1.091287   -1.325648    0.215738
      6          8           0        1.530098    0.948408   -0.077792
      7          1           0       -2.699913   -0.546484   -0.128832
      8          1           0       -1.583647   -1.552636    0.825573
      9          1           0       -1.492689   -1.586689   -0.929453
     10          1           0       -1.927584    1.632472    0.289392
     11          1           0        1.437577   -1.130912    1.159806
     12          1           0        1.888933   -1.624844   -0.339403
     13          1           0        0.896932    1.675171    0.138432
 ---------------------------------------------------------------------

 SCF Done:  E(RB3LYP) =  -319.826735593     A.U. after    1 cycles

 The electronic state is 1-A.
 Alpha  occ. eigenvalues --  -19.15767 -14.41849 -14.36469 -14.31390 -10.26696
 Alpha  occ. eigenvalues --  -10.19818  -1.08147  -0.93197  -0.90734  -0.76903
 Alpha  occ. eigenvalues --   -0.72140  -0.58945  -0.52497  -0.51659  -0.48167
 Alpha  occ. eigenvalues --   -0.46815  -0.43126  -0.41659  -0.37495  -0.35735
 Alpha  occ. eigenvalues --   -0.30558  -0.28944  -0.27186  -0.21969
 Alpha virt. eigenvalues --    0.01005   0.08292   0.09462   0.10960   0.13811
 Alpha virt. eigenvalues --    0.15150   0.16312   0.18298   0.19051   0.21208
 Alpha virt. eigenvalues --    0.24813   0.32109   0.40964   0.52767   0.54348

 Mulliken charges:
               1
     1  C   -0.344599
     2  C    0.479833
     3  N   -0.629196
     4  N   -0.109933
     5  N   -0.433446
     6  O   -0.462461
     7  H    0.111231
     8  H    0.144544
     9  H    0.144277
    10  H    0.232928
    11  H    0.249295
    12  H    0.274935
    13  H    0.342593
 Sum of Mulliken charges =  -0.00000

 Dipole moment (field-independent basis, Debye):
    X=             -1.3826    Y=             -1.7348    Z=              0.9744  Tot=              2.4230
 Quadrupole moment (field-independent basis, Debye-Ang):
   XX=            -31.3724   YY=            -37.0975   ZZ=            -35.8861
   XY=             -3.5501   XZ=              0.9941   YZ=              0.4594

  Exact polarizability:  55.684  -5.417  55.191  -0.785   1.487  30.933
 Approx polarizability:  75.143 -10.476  85.625  -4.095   4.704  45.752

                      1                      2                      3
                      A                      A                      A
 Frequencies --    113.9270               128.6362               275.6627
 Red. masses --      1.2113                 2.8181                 2.8131
 Frc consts  --      0.0093                 0.0275                 0.1259
 IR Inten    --      0.7911                 3.8315                19.4418

                      4                      5                      6
                      A                      A                      A
 Frequencies --    321.8734               421.4097               432.1661
 Red. masses --      3.0353                 1.8560                 1.6851
 Frc consts  --      0.1853                 0.1942                 0.1854
 IR Inten    --     31.9059                11.5124                27.8124

                      7                      8                      9
                      A                      A                      A
 Frequencies --    458.8418               507.3689               601.3232
 Red. masses --      1.7178                 1.8960                 3.7545
 Frc consts  --      0.2131                 0.2876                 0.7999
 IR Inten    --     61.5186                39.7647                14.8856

                     10                     11                     12
                      A                      A                      A
 Frequencies --    609.3890               755.1036               819.0961
 Red. masses --      2.6994                 5.1992                 1.1755
 Frc consts  --      0.5906                 1.7466                 0.4647
 IR Inten    --     37.7851                26.1461                35.7120

                     13                     14                     15
                      A                      A                      A
 Frequencies --    951.3944               968.3555              1060.5560
 Red. masses --      1.8178                 3.0718                 2.1997
 Frc consts  --      0.9695                 1.6971                 1.4578
 IR Inten    --     89.9600                39.7856                45.3040

                     16                     17                     18
                      A                      A                      A
 Frequencies --   1068.6618              1091.7672              1228.2686
 Red. masses --      1.7862                 1.5654                 1.9444
 Frc consts  --      1.2019                 1.0993                 1.7283
 IR Inten    --     10.0534               106.2302                18.2194

                     19                     20                     21
                      A                      A                      A
 Frequencies --   1340.2614              1407.2583              1436.7361
 Red. masses --      1.1950                 1.3549                 2.0762
 Frc consts  --      1.2648                 1.5809                 2.5250
 IR Inten    --     23.3035                 9.4053                69.4575

                     22                     23                     24
                      A                      A                      A
 Frequencies --   1481.5906              1493.2424              1513.3428
 Red. masses --      1.0890                 1.0879                 1.3507
 Frc consts  --      1.4085                 1.4293                 1.8225
 IR Inten    --     18.1848                23.8117               130.2155

                     25                     26                     27
                      A                      A                      A
 Frequencies --   1700.2507              1715.0638              3065.6464
 Red. masses --      2.3233                 1.6311                 1.0355
 Frc consts  --      3.9571                 2.8267                 5.7339
 IR Inten    --     75.1337                80.1741                 6.6210

                     28                     29                     30
                      A                      A                      A
 Frequencies --   3137.1743              3154.6764              3411.0419
 Red. masses --      1.1011                 1.1040                 1.0552
 Frc consts  --      6.3851                 6.4733                 7.2338
 IR Inten    --      8.3507                11.4535                 8.7207

                     31                     32                     33
                      A                      A                      A
 Frequencies --   3445.8378              3543.1473              3549.5180
 Red. masses --      1.0648                 1.0764                 1.0860
 Frc consts  --      7.4492                 7.9619                 8.0614
 IR Inten    --    116.1773                 3.1862                 3.7989

 - Thermochemistry -
 -------------------
 Temperature   298.150 Kelvin.  Pressure   1.00000 Atm.
 Atom     1 has atomic number  6 and mass  12.00000

 Molecular mass:    89.05891 amu.
 Principal axes and moments of inertia in atomic units:
                           1         2         3
     Eigenvalues --   357.83832 499.57895 814.44591
           X            0.99997   0.00248   0.00761
           Y           -0.00249   1.00000   0.00194
           Z           -0.00761  -0.00196   0.99997
 This molecule is an asymmetric top.
 Rotational symmetry number  1.
 Rotational temperatures (Kelvin)      0.24205     0.17337     0.10635
 Rotational constants (GHZ):           5.04345     3.61252     2.21591
 Zero-point vibrational energy     282370.1 (Joules/Mol)
                                   67.48807 (Kcal/Mol)
 Warning -- explicit consideration of  10 degrees of freedom as
           vibrations may cause significant error
 Vibrational temperatures:    163.92   185.08   396.62   463.10   606.31
          (Kelvin)            621.79   660.17   729.99   865.17   876.77
                             1086.42  1178.50  1368.84  1393.25  1525.90
                             1537.56  1570.81  1767.20  1928.33  2024.73
                             2067.14  2131.68  2148.44  2177.36  2446.28
                             2467.59  4410.78  4513.69  4538.87  4907.72
                             4957.79  5097.79  5106.96

 Zero-point correction=                           0.107549 (Hartree/Particle)
 Thermal correction to Energy=                    0.114366
 Thermal correction to Enthalpy=                  0.115310
 Thermal correction to Gibbs Free Energy=         0.077339
 Sum of electronic and zero-point Energies=           -319.719187
 Sum of electronic and thermal Energies=              -319.712370
 Sum of electronic and thermal Enthalpies=            -319.711426
 Sum of electronic and thermal Free Energies=         -319.749396

                     E (Thermal)             CV                S
                      KCal/Mol        Cal/Mol-Kelvin    Cal/Mol-Kelvin
 Total                   71.765             24.531             79.916
 Electronic               0.000              0.000              0.000
 Translational            0.889              2.981             39.373
 Rotational               0.889              2.981             26.479
 Vibrational             69.988             18.570             14.064
 Vibration     1          0.607              1.938              3.201
 Vibration     2          0.611              1.925              2.966
 Vibration     3          0.677              1.718              1.560
 Vibration     4          0.707              1.632              1.301
 Vibration     5          0.784              1.424              0.887
 Vibration     6          0.793              1.400              0.852
 Vibration     7          0.817              1.341              0.769
 Vibration     8          0.863              1.234              0.640
 Vibration     9          0.960              1.029              0.447
 Vibration    10          0.968              1.012              0.434

 Normal termination of Gaussian 09 at Thu Sep  8 15:03:16 2022.
