 Gaussian 09, Revision E.01,
 Gaussian 09:  ES64L-G09RevE.01 30-Nov-2015

 ----------------------------
 #P OPT Freq B3LYP/6-31G(d,p)
 ----------------------------

 --------
 Frag_540
 --------
 Symbolic Z-matrix:
 Charge =  0 Multiplicity = 1

 SCF Done:  E(RB3LYP) =  -235.865536482     A.U. after   13 cycles
 SCF Done:  E(RB3LYP) =  -235.865565524     A.U. after    8 cycles
 SCF Done:  E(RB3LYP) =  -235.865566823     A.U. after    7 cycles
 Optimization completed.
    -- Stationary point found.
 Normal termination of Gaussian 09 at Thu Sep  8 14:58:18 2022.

 ----------------------------------------------------------------------
 #P Geom=AllCheck Guess=TCheck SCRF=Check GenChk RB3LYP/6-31G(d,p) Freq
 ----------------------------------------------------------------------

 Structure from the checkpoint file:  "B3LYP6-31Gdp.Frag_540.chk"
 --------
 Frag_540
 --------
 Charge =  0 Multiplicity = 1

                         Standard orientation:
 ---------------------------------------------------------------------
 Center     Atomic      Atomic             Coordinates (Angstroms)
 Number     Number       Type             X           Y           Z
 ---------------------------------------------------------------------
      1          6           0       -2.207845   -0.082158    0.000021
      2          6           0       -1.009751   -0.666442    0.000040
      3          6           0        0.353574    0.001619    0.000006
      4          6           0        1.121287   -0.465014    1.258562
      5          6           0        1.121226   -0.465074   -1.258581
      6          6           0        0.255453    1.535207   -0.000030
      7          1           0       -3.119821   -0.671951    0.000031
      8          1           0       -2.333459    0.996370   -0.000047
      9          1           0       -0.967384   -1.757684    0.000063
     10          1           0        2.135692   -0.050279    1.268986
     11          1           0        1.206535   -1.556946    1.289380
     12          1           0        0.611292   -0.142638    2.172062
     13          1           0        0.611087   -0.142873   -2.172060
     14          1           0        2.135576   -0.050206   -1.269155
     15          1           0        1.206609   -1.556998   -1.289258
     16          1           0       -0.273053    1.901954   -0.886047
     17          1           0       -0.272736    1.902018    0.886149
     18          1           0        1.255996    1.980405   -0.000216
 ---------------------------------------------------------------------

 SCF Done:  E(RB3LYP) =  -235.865566823     A.U. after    1 cycles

 The electronic state is 1-A.
 Alpha  occ. eigenvalues --  -10.19867 -10.18146 -10.17250 -10.17249 -10.17203
 Alpha  occ. eigenvalues --  -10.17035  -0.82217  -0.73432  -0.68229  -0.68063
 Alpha  occ. eigenvalues --   -0.59438  -0.51642  -0.46551  -0.44623  -0.43255
 Alpha  occ. eigenvalues --   -0.41551  -0.38627  -0.37578  -0.37112  -0.36125
 Alpha  occ. eigenvalues --   -0.32984  -0.32155  -0.31580  -0.25007
 Alpha virt. eigenvalues --    0.02645   0.08581   0.12662   0.13528   0.13715
 Alpha virt. eigenvalues --    0.15504   0.15826   0.16758   0.19096   0.20038
 Alpha virt. eigenvalues --    0.20663   0.21584   0.22496   0.22654   0.24180

 Mulliken charges:
               1
     1  C   -0.254917
     2  C   -0.002479
     3  C    0.009128
     4  C   -0.298508
     5  C   -0.298509
     6  C   -0.309820
     7  H    0.091514
     8  H    0.092577
     9  H    0.073921
    10  H    0.097044
    11  H    0.096164
    12  H    0.105287
    13  H    0.105289
    14  H    0.097045
    15  H    0.096164
    16  H    0.102384
    17  H    0.102384
    18  H    0.095332
 Sum of Mulliken charges =   0.00000

 Dipole moment (field-independent basis, Debye):
    X=              0.3318    Y=             -0.0122    Z=             -0.0000  Tot=              0.3320
 Quadrupole moment (field-independent basis, Debye-Ang):
   XX=            -39.4196   YY=            -38.8518   ZZ=            -41.1493
   XY=             -0.0279   XZ=              0.0001   YZ=             -0.0001

  Exact polarizability:  77.182  -3.071  62.315  -0.000  -0.000  52.489
 Approx polarizability: 107.483  -8.690  87.889  -0.000  -0.001  70.982

                      1                      2                      3
                      A                      A                      A
 Frequencies --    108.7340               232.6778               270.0111
 Red. masses --      2.3549                 1.0179                 1.2129
 Frc consts  --      0.0164                 0.0325                 0.0521
 IR Inten    --      0.0083                 0.0381                 0.0273

                      4                      5                      6
                      A                      A                      A
 Frequencies --    293.7660               293.9843               314.8899
 Red. masses --      1.0544                 1.8398                 1.7206
 Frc consts  --      0.0536                 0.0937                 0.1005
 IR Inten    --      0.0170                 0.1136                 0.0461

                      7                      8                      9
                      A                      A                      A
 Frequencies --    350.8438               384.7557               401.5821
 Red. masses --      2.2939                 1.9062                 2.2631
 Frc consts  --      0.1664                 0.1663                 0.2150
 IR Inten    --      0.0893                 0.1792                 0.0895

                     10                     11                     12
                      A                      A                      A
 Frequencies --    527.0488               696.5917               717.3565
 Red. masses --      2.4949                 1.7442                 3.0962
 Frc consts  --      0.4083                 0.4986                 0.9388
 IR Inten    --      0.1146                 7.0275                 0.1230

                     13                     14                     15
                      A                      A                      A
 Frequencies --    888.8320               933.4529               939.9964
 Red. masses --      1.9696                 1.7482                 1.3611
 Frc consts  --      0.9168                 0.8975                 0.7086
 IR Inten    --      3.3365                 0.1270                32.8366

                     16                     17                     18
                      A                      A                      A
 Frequencies --    944.4897               965.9442              1019.6529
 Red. masses --      1.7173                 1.2012                 1.3044
 Frc consts  --      0.9026                 0.6603                 0.7991
 IR Inten    --      0.4711                 0.0053                 2.7419

                     19                     20                     21
                      A                      A                      A
 Frequencies --   1044.6726              1052.8323              1095.2345
 Red. masses --      1.1518                 1.3284                 1.4134
 Frc consts  --      0.7406                 0.8675                 0.9989
 IR Inten    --      4.1069                 5.5755                 2.9242

                     22                     23                     24
                      A                      A                      A
 Frequencies --   1232.4815              1238.9117              1298.6081
 Red. masses --      2.6700                 2.4129                 2.7779
 Frc consts  --      2.3896                 2.1821                 2.7601
 IR Inten    --      6.3749                 7.1908                 3.8921

                     25                     26                     27
                      A                      A                      A
 Frequencies --   1344.7509              1408.5243              1411.1511
 Red. masses --      1.2808                 1.2193                 1.2567
 Frc consts  --      1.3646                 1.4252                 1.4744
 IR Inten    --      0.1858                 3.0680                 5.2227

                     28                     29                     30
                      A                      A                      A
 Frequencies --   1435.3171              1466.4686              1494.6309
 Red. masses --      1.2279                 1.1877                 1.0481
 Frc consts  --      1.4904                 1.5049                 1.3795
 IR Inten    --      2.1298                 2.7022                 0.0072

                     31                     32                     33
                      A                      A                      A
 Frequencies --   1500.2980              1505.2540              1517.8639
 Red. masses --      1.0456                 1.0451                 1.0503
 Frc consts  --      1.3866                 1.3952                 1.4257
 IR Inten    --      0.3252                 0.4462                 4.5399

                     34                     35                     36
                      A                      A                      A
 Frequencies --   1518.4955              1536.0163              1723.7506
 Red. masses --      1.0587                 1.0685                 4.5654
 Frc consts  --      1.4383                 1.4853                 7.9923
 IR Inten    --      4.1574                 7.5824                10.2417

                     37                     38                     39
                      A                      A                      A
 Frequencies --   3032.3678              3035.3485              3043.0905
 Red. masses --      1.0345                 1.0346                 1.0357
 Frc consts  --      5.6047                 5.6164                 5.6511
 IR Inten    --     27.1746                33.8968                14.8940

                     40                     41                     42
                      A                      A                      A
 Frequencies --   3101.7156              3105.6327              3111.0821
 Red. masses --      1.1026                 1.1021                 1.1018
 Frc consts  --      6.2501                 6.2628                 6.2831
 IR Inten    --      0.2760                27.5809                31.4573

                     43                     44                     45
                      A                      A                      A
 Frequencies --   3112.1846              3115.9210              3116.6927
 Red. masses --      1.1033                 1.1008                 1.1020
 Frc consts  --      6.2964                 6.2972                 6.3069
 IR Inten    --      1.1363                49.3726                51.0344

                     46                     47                     48
                      A                      A                      A
 Frequencies --   3122.0829              3160.1601              3238.7869
 Red. masses --      1.0864                 1.0642                 1.1153
 Frc consts  --      6.2392                 6.2614                 6.8930
 IR Inten    --     41.0496                 7.8804                17.9149

 - Thermochemistry -
 -------------------
 Temperature   298.150 Kelvin.  Pressure   1.00000 Atm.
 Atom     1 has atomic number  6 and mass  12.00000

 Molecular mass:    84.09390 amu.
 Principal axes and moments of inertia in atomic units:
                           1         2         3
     Eigenvalues --   411.76904 677.48551 691.40086
           X            0.99987  -0.01605   0.00000
           Y            0.01605   0.99987  -0.00002
           Z           -0.00000   0.00002   1.00000
 This molecule is an asymmetric top.
 Rotational symmetry number  1.
 Rotational temperatures (Kelvin)      0.21035     0.12785     0.12527
 Rotational constants (GHZ):           4.38290     2.66388     2.61027
 Zero-point vibrational energy     433077.7 (Joules/Mol)
                                  103.50805 (Kcal/Mol)
 Warning -- explicit consideration of  10 degrees of freedom as
           vibrations may cause significant error
 Vibrational temperatures:    156.44   334.77   388.49   422.66   422.98
          (Kelvin)            453.06   504.79   553.58   577.79   758.30
                             1002.24  1032.11  1278.83  1343.03  1352.44
                             1358.91  1389.78  1467.05  1503.05  1514.79
                             1575.80  1773.26  1782.52  1868.41  1934.79
                             2026.55  2030.33  2065.10  2109.92  2150.44
                             2158.59  2165.72  2183.86  2184.77  2209.98
                             2480.09  4362.90  4367.18  4378.32  4462.67
                             4468.31  4476.15  4477.73  4483.11  4484.22
                             4491.98  4546.76  4659.89

 Zero-point correction=                           0.164951 (Hartree/Particle)
 Thermal correction to Energy=                    0.172611
 Thermal correction to Enthalpy=                  0.173555
 Thermal correction to Gibbs Free Energy=         0.134382
 Sum of electronic and zero-point Energies=           -235.700616
 Sum of electronic and thermal Energies=              -235.692956
 Sum of electronic and thermal Enthalpies=            -235.692012
 Sum of electronic and thermal Free Energies=         -235.731185

                     E (Thermal)             CV                S
                      KCal/Mol        Cal/Mol-Kelvin    Cal/Mol-Kelvin
 Total                  108.315             28.866             82.447
 Electronic               0.000              0.000              0.000
 Translational            0.889              2.981             39.202
 Rotational               0.889              2.981             26.758
 Vibrational            106.538             22.904             16.487
 Vibration     1          0.606              1.942              3.291
 Vibration     2          0.653              1.791              1.858
 Vibration     3          0.674              1.728              1.596
 Vibration     4          0.689              1.685              1.452
 Vibration     5          0.689              1.685              1.451
 Vibration     6          0.702              1.645              1.337
 Vibration     7          0.728              1.574              1.162
 Vibration     8          0.754              1.503              1.020
 Vibration     9          0.767              1.467              0.957
 Vibration    10          0.882              1.190              0.594

 Optimization completed.
    -- Stationary point found.
 Normal termination of Gaussian 09 at Thu Sep  8 14:58:34 2022.
