 Gaussian 09, Revision E.01,
 Gaussian 09:  ES64L-G09RevE.01 30-Nov-2015

 --------------------------------
 #P OPT=calcfc Freq B3LYP/6-31G**
 --------------------------------

 --------
 Frag_354
 --------
 Symbolic Z-matrix:
 Charge =  0 Multiplicity = 1

 SCF Done:  E(RB3LYP) =  -266.706634104     A.U. after   15 cycles
 SCF Done:  E(RB3LYP) =  -266.722109152     A.U. after   14 cycles
 SCF Done:  E(RB3LYP) =  -266.718991001     A.U. after   13 cycles
 SCF Done:  E(RB3LYP) =  -266.722284320     A.U. after   11 cycles
 SCF Done:  E(RB3LYP) =  -266.723544543     A.U. after   14 cycles
 SCF Done:  E(RB3LYP) =  -266.723691469     A.U. after   12 cycles
 SCF Done:  E(RB3LYP) =  -266.723808541     A.U. after   11 cycles
 SCF Done:  E(RB3LYP) =  -266.723830507     A.U. after    9 cycles
 SCF Done:  E(RB3LYP) =  -266.723831822     A.U. after    8 cycles
 SCF Done:  E(RB3LYP) =  -266.723831941     A.U. after    7 cycles
 Optimization completed.
    -- Stationary point found.
 Normal termination of Gaussian 09 at Fri Sep 10 18:59:10 2021.

 ----------------------------------------------------------------------
 #P Geom=AllCheck Guess=TCheck SCRF=Check GenChk RB3LYP/6-31G(d,p) Freq
 ----------------------------------------------------------------------

 Structure from the checkpoint file:  "/public/home/users/caep010/.cache/gau_scr/Gau-119463.chk"
 --------
 Frag_354
 --------
 Charge =  0 Multiplicity = 1

                         Standard orientation:
 ---------------------------------------------------------------------
 Center     Atomic      Atomic             Coordinates (Angstroms)
 Number     Number       Type             X           Y           Z
 ---------------------------------------------------------------------
      1          6           0        1.581753    0.994505    0.397731
      2          6           0        0.756875    0.009199   -0.002420
      3          7           0        1.183781   -1.294059   -0.287567
      4          6           0       -0.730619    0.223365   -0.049872
      5          6           0       -1.612087   -0.919210    0.397973
      6          7           0       -1.281695    1.313421   -0.429806
      7          1           0        1.187571    1.935182    0.760715
      8          1           0        2.658723    0.859411    0.430344
      9          1           0        0.728473   -1.727639   -1.081595
     10          1           0        2.189689   -1.391636   -0.349858
     11          1           0       -1.518775   -1.785020   -0.267628
     12          1           0       -2.650988   -0.587564    0.400082
     13          1           0       -1.325841   -1.262835    1.397362
     14          1           0       -0.558984    1.977413   -0.728282
 ---------------------------------------------------------------------

 SCF Done:  E(RB3LYP) =  -266.723831941     A.U. after    1 cycles

 The electronic state is 1-A.
 Alpha  occ. eigenvalues --  -14.34803 -14.31067 -10.23549 -10.23080 -10.18065
 Alpha  occ. eigenvalues --  -10.17294  -0.92743  -0.89024  -0.73938  -0.72663
 Alpha  occ. eigenvalues --   -0.61350  -0.53460  -0.52498  -0.48394  -0.44610
 Alpha  occ. eigenvalues --   -0.41982  -0.40281  -0.38768  -0.37798  -0.34241
 Alpha  occ. eigenvalues --   -0.29411  -0.25790  -0.21719
 Alpha virt. eigenvalues --   -0.02029   0.05855   0.07882   0.11299   0.12592
 Alpha virt. eigenvalues --    0.14980   0.16129   0.17229   0.18367   0.20254
 Alpha virt. eigenvalues --    0.25024   0.26848   0.35977   0.36774   0.42677

 Mulliken charges:
               1
     1  C   -0.312021
     2  C    0.278850
     3  N   -0.637143
     4  C    0.221363
     5  C   -0.340412
     6  N   -0.510077
     7  H    0.103581
     8  H    0.084421
     9  H    0.258935
    10  H    0.257716
    11  H    0.108866
    12  H    0.134409
    13  H    0.130788
    14  H    0.220724
 Sum of Mulliken charges =   0.00000

 Dipole moment (field-independent basis, Debye):
    X=              2.2118    Y=             -1.7451    Z=             -0.8648  Tot=              2.9471
 Quadrupole moment (field-independent basis, Debye-Ang):
   XX=            -36.9898   YY=            -35.7905   ZZ=            -36.8138
   XY=              2.1667   XZ=             -2.3501   YZ=              2.8278

  Exact polarizability:  64.290   3.320  65.924   4.200   2.456  35.292
 Approx polarizability:  89.445   4.043 105.270  10.508   3.760  51.980

                      1                      2                      3
                      A                      A                      A
 Frequencies --     74.3427               157.9355               269.8608
 Red. masses --      2.7076                 1.1242                 3.0457
 Frc consts  --      0.0088                 0.0165                 0.1307
 IR Inten    --      0.6903                 0.3040                 2.3606

                      4                      5                      6
                      A                      A                      A
 Frequencies --    303.3669               370.8789               406.0961
 Red. masses --      2.2220                 1.3598                 2.2931
 Frc consts  --      0.1205                 0.1102                 0.2228
 IR Inten    --     15.5761                31.6334                10.7168

                      7                      8                      9
                      A                      A                      A
 Frequencies --    503.8080               553.2916               618.7834
 Red. masses --      2.3481                 2.8373                 1.5641
 Frc consts  --      0.3512                 0.5118                 0.3528
 IR Inten    --      5.3158                48.4119               130.3646

                     10                     11                     12
                      A                      A                      A
 Frequencies --    680.7474               733.0604               762.3317
 Red. masses --      1.4501                 2.5272                 1.6578
 Frc consts  --      0.3959                 0.8002                 0.5677
 IR Inten    --     38.5023                17.3147                48.5472

                     13                     14                     15
                      A                      A                      A
 Frequencies --    827.9685               946.3852               985.9441
 Red. masses --      1.4052                 1.3934                 1.7783
 Frc consts  --      0.5676                 0.7353                 1.0185
 IR Inten    --     58.6967                40.0966                14.7516

                     16                     17                     18
                      A                      A                      A
 Frequencies --   1008.6614              1085.5797              1100.0785
 Red. masses --      1.7047                 1.4014                 1.6493
 Frc consts  --      1.0219                 0.9731                 1.1760
 IR Inten    --     18.5516                 4.5652                16.3987

                     19                     20                     21
                      A                      A                      A
 Frequencies --   1140.7977              1328.1172              1393.5029
 Red. masses --      1.4447                 1.8886                 1.8661
 Frc consts  --      1.1078                 1.9627                 2.1350
 IR Inten    --     14.9326               101.1709                21.8513

                     22                     23                     24
                      A                      A                      A
 Frequencies --   1424.9722              1455.1278              1479.2315
 Red. masses --      1.5166                 1.2487                 1.0666
 Frc consts  --      1.8144                 1.5577                 1.3751
 IR Inten    --     30.8348                15.3530                 9.6833

                     25                     26                     27
                      A                      A                      A
 Frequencies --   1493.2338              1656.3596              1689.7241
 Red. masses --      1.0473                 1.2761                 4.0824
 Frc consts  --      1.3758                 2.0627                 6.8674
 IR Inten    --      5.6860                25.2702               109.6991

                     28                     29                     30
                      A                      A                      A
 Frequencies --   1725.1247              3049.1740              3106.5804
 Red. masses --      5.8373                 1.0389                 1.0977
 Frc consts  --     10.2354                 5.6909                 6.2418
 IR Inten    --     29.7363                10.5032                14.9324

                     31                     32                     33
                      A                      A                      A
 Frequencies --   3164.1928              3168.1490              3263.2576
 Red. masses --      1.1025                 1.0616                 1.1142
 Frc consts  --      6.5034                 6.2780                 6.9904
 IR Inten    --      9.2358                 6.5475                 7.2122

                     34                     35                     36
                      A                      A                      A
 Frequencies --   3428.9710              3544.8278              3648.7421
 Red. masses --      1.0733                 1.0477                 1.0977
 Frc consts  --      7.4351                 7.7564                 8.6106
 IR Inten    --      4.6339                 5.9148                 5.9668

 - Thermochemistry -
 -------------------
 Temperature   298.150 Kelvin.  Pressure   1.00000 Atm.
 Atom     1 has atomic number  6 and mass  12.00000

 Molecular mass:    84.06875 amu.
 Principal axes and moments of inertia in atomic units:
                           1         2         3
     Eigenvalues --   359.37535 554.77643 826.00888
           X            0.99555   0.09346  -0.01162
           Y           -0.09328   0.99552   0.01510
           Z            0.01298  -0.01395   0.99982
 This molecule is an asymmetric top.
 Rotational symmetry number  1.
 Rotational temperatures (Kelvin)      0.24101     0.15612     0.10486
 Rotational constants (GHZ):           5.02188     3.25310     2.18489
 Zero-point vibrational energy     314314.1 (Joules/Mol)
                                   75.12286 (Kcal/Mol)
 Warning -- explicit consideration of   9 degrees of freedom as
           vibrations may cause significant error
 Vibrational temperatures:    106.96   227.23   388.27   436.48   533.61
          (Kelvin)            584.28   724.87   796.06   890.29   979.44
                             1054.71  1096.82  1191.26  1361.64  1418.55
                             1451.24  1561.91  1582.77  1641.35  1910.86
                             2004.94  2050.21  2093.60  2128.28  2148.43
                             2383.13  2431.13  2482.07  4387.08  4469.67
                             4552.56  4558.25  4695.09  4933.52  5100.21
                             5249.72

 Zero-point correction=                           0.119716 (Hartree/Particle)
 Thermal correction to Energy=                    0.126660
 Thermal correction to Enthalpy=                  0.127605
 Thermal correction to Gibbs Free Energy=         0.089283
 Sum of electronic and zero-point Energies=           -266.604116
 Sum of electronic and thermal Energies=              -266.597172
 Sum of electronic and thermal Enthalpies=            -266.596227
 Sum of electronic and thermal Free Energies=         -266.634549

                     E (Thermal)             CV                S
                      KCal/Mol        Cal/Mol-Kelvin    Cal/Mol-Kelvin
 Total                   79.481             25.247             80.654
 Electronic               0.000              0.000              0.000
 Translational            0.889              2.981             39.201
 Rotational               0.889              2.981             26.601
 Vibrational             77.703             19.285             14.851
 Vibration     1          0.599              1.966              4.035
 Vibration     2          0.621              1.894              2.574
 Vibration     3          0.674              1.729              1.597
 Vibration     4          0.695              1.667              1.398
 Vibration     5          0.743              1.532              1.076
 Vibration     6          0.771              1.457              0.941
 Vibration     7          0.859              1.242              0.649
 Vibration     8          0.909              1.132              0.537
 Vibration     9          0.979              0.992              0.418

 Optimization completed.
    -- Stationary point found.
 Normal termination of Gaussian 09 at Fri Sep 10 18:59:22 2021.
