 Gaussian 09, Revision E.01,
 Gaussian 09:  ES64L-G09RevE.01 30-Nov-2015

 ----------------------------
 #P OPT Freq B3LYP/6-31G(d,p)
 ----------------------------

 --------
 Frag_652
 --------
 Symbolic Z-matrix:
 Charge =  0 Multiplicity = 1

 SCF Done:  E(RB3LYP) =  -323.314445588     A.U. after   14 cycles
 SCF Done:  E(RB3LYP) =  -323.314485965     A.U. after    9 cycles
 SCF Done:  E(RB3LYP) =  -323.314485495     A.U. after    9 cycles
 SCF Done:  E(RB3LYP) =  -323.314488542     A.U. after    8 cycles
 SCF Done:  E(RB3LYP) =  -323.314488402     A.U. after    8 cycles
 SCF Done:  E(RB3LYP) =  -323.314487862     A.U. after    8 cycles
 SCF Done:  E(RB3LYP) =  -323.314487680     A.U. after    7 cycles
 Optimization completed.
    -- Stationary point found.
 Normal termination of Gaussian 09 at Thu Sep  8 15:16:35 2022.

 ----------------------------------------------------------------------
 #P Geom=AllCheck Guess=TCheck SCRF=Check GenChk RB3LYP/6-31G(d,p) Freq
 ----------------------------------------------------------------------

 Structure from the checkpoint file:  "B3LYP6-31Gdp.Frag_652.chk"
 --------
 Frag_652
 --------
 Charge =  0 Multiplicity = 1

                         Standard orientation:
 ---------------------------------------------------------------------
 Center     Atomic      Atomic             Coordinates (Angstroms)
 Number     Number       Type             X           Y           Z
 ---------------------------------------------------------------------
      1          6           0        1.096697   -0.380756    1.380954
      2          6           0        0.577421    0.055082   -0.003557
      3          6           0        1.239278   -0.778087   -1.114947
      4          7           0        1.006595    1.447072   -0.201950
      5          6           0       -0.962971   -0.176054   -0.027813
      6          7           0       -1.552884   -1.314781   -0.017900
      7          7           0       -1.737344    0.968424    0.038071
      8          1           0        0.642245    0.226249    2.171330
      9          1           0        2.181465   -0.250705    1.424478
     10          1           0        0.852146   -1.426518    1.583567
     11          1           0        0.885015   -0.464578   -2.103450
     12          1           0        2.322754   -0.639466   -1.077364
     13          1           0        1.019948   -1.843109   -1.009592
     14          1           0        0.754082    1.793805   -1.124121
     15          1           0        0.602117    2.063480    0.497649
     16          1           0       -0.872595   -2.073741    0.020208
     17          1           0       -1.380813    1.795466   -0.414459
     18          1           0       -2.723481    0.793009   -0.103617
 ---------------------------------------------------------------------

 SCF Done:  E(RB3LYP) =  -323.314487680     A.U. after    1 cycles

 The electronic state is 1-A.
 Alpha  occ. eigenvalues --  -14.33984 -14.32324 -14.28270 -10.24543 -10.23386
 Alpha  occ. eigenvalues --  -10.18085 -10.17829  -0.94273  -0.88772  -0.83878
 Alpha  occ. eigenvalues --   -0.75468  -0.69317  -0.61887  -0.55602  -0.53020
 Alpha  occ. eigenvalues --   -0.49528  -0.47599  -0.44295  -0.43632  -0.40537
 Alpha  occ. eigenvalues --   -0.38478  -0.37194  -0.35763  -0.35147  -0.33086
 Alpha  occ. eigenvalues --   -0.27964  -0.23028  -0.22590
 Alpha virt. eigenvalues --    0.03859   0.05332   0.10302   0.12462   0.13033
 Alpha virt. eigenvalues --    0.13384   0.14440   0.15838   0.16775   0.20169
 Alpha virt. eigenvalues --    0.20949   0.21472   0.22086   0.24237   0.26215

 Mulliken charges:
               1
     1  C   -0.285946
     2  C    0.075748
     3  C   -0.294110
     4  N   -0.598563
     5  C    0.441266
     6  N   -0.579015
     7  N   -0.604737
     8  H    0.107831
     9  H    0.116450
    10  H    0.103524
    11  H    0.100105
    12  H    0.118611
    13  H    0.101540
    14  H    0.233057
    15  H    0.242948
    16  H    0.214817
    17  H    0.236606
    18  H    0.269868
 Sum of Mulliken charges =  -0.00000

 Dipole moment (field-independent basis, Debye):
    X=              0.7316    Y=              1.9325    Z=             -0.8936  Tot=              2.2512
 Quadrupole moment (field-independent basis, Debye-Ang):
   XX=            -49.0102   YY=            -40.8171   ZZ=            -43.3980
   XY=             -7.6189   XZ=              1.5255   YZ=             -1.9188

  Exact polarizability:  64.359  -0.816  69.909   0.046  -0.660  51.951
 Approx polarizability:  86.901   3.267 109.574  -0.390  -0.560  70.995

                      1                      2                      3
                      A                      A                      A
 Frequencies --     46.7021               213.9545               261.7642
 Red. masses --      3.6712                 1.2995                 1.6979
 Frc consts  --      0.0047                 0.0350                 0.0685
 IR Inten    --      2.3283                 0.9676                13.1528

                      4                      5                      6
                      A                      A                      A
 Frequencies --    268.1252               292.4997               337.0632
 Red. masses --      1.0986                 2.4401                 1.5545
 Frc consts  --      0.0465                 0.1230                 0.1041
 IR Inten    --      4.9990                12.9405                52.0490

                      7                      8                      9
                      A                      A                      A
 Frequencies --    350.0070               396.5578               402.9915
 Red. masses --      1.7371                 2.8015                 2.1536
 Frc consts  --      0.1254                 0.2596                 0.2061
 IR Inten    --     35.0939                 6.5909                 7.6121

                     10                     11                     12
                      A                      A                      A
 Frequencies --    466.8967               520.4221               554.3973
 Red. masses --      1.5623                 2.2408                 2.0902
 Frc consts  --      0.2007                 0.3576                 0.3785
 IR Inten    --     38.6217                16.1211                 0.9902

                     13                     14                     15
                      A                      A                      A
 Frequencies --    588.5349               703.4672               735.9868
 Red. masses --      1.2889                 3.1852                 4.4969
 Frc consts  --      0.2630                 0.9287                 1.4352
 IR Inten    --    188.4350                 5.4345                45.9450

                     16                     17                     18
                      A                      A                      A
 Frequencies --    809.6014               841.1984               875.8308
 Red. masses --      1.4052                 1.1473                 2.4056
 Frc consts  --      0.5427                 0.4783                 1.0872
 IR Inten    --    183.5701                27.5183                 2.7348

                     19                     20                     21
                      A                      A                      A
 Frequencies --    947.4027              1004.4628              1014.3158
 Red. masses --      1.5490                 1.7011                 1.2757
 Frc consts  --      0.8192                 1.0112                 0.7733
 IR Inten    --      0.9745                 6.4637                 0.8353

                     22                     23                     24
                      A                      A                      A
 Frequencies --   1072.6111              1113.1203              1156.5607
 Red. masses --      1.5719                 1.7829                 1.3165
 Frc consts  --      1.0655                 1.3016                 1.0376
 IR Inten    --      0.4343                36.9141                54.8345

                     25                     26                     27
                      A                      A                      A
 Frequencies --   1215.1006              1250.8016              1328.0054
 Red. masses --      2.1892                 2.9806                 1.9326
 Frc consts  --      1.9044                 2.7475                 2.0081
 IR Inten    --     69.8600                23.4780                 3.8083

                     28                     29                     30
                      A                      A                      A
 Frequencies --   1406.9152              1415.4978              1430.6525
 Red. masses --      1.4311                 1.7931                 1.3135
 Frc consts  --      1.6690                 2.1167                 1.5840
 IR Inten    --     16.6527                25.4542                23.9946

                     31                     32                     33
                      A                      A                      A
 Frequencies --   1495.1379              1499.8787              1509.8025
 Red. masses --      1.0486                 1.0504                 1.0564
 Frc consts  --      1.3811                 1.3923                 1.4188
 IR Inten    --      1.5951                 0.4858                 4.0197

                     34                     35                     36
                      A                      A                      A
 Frequencies --   1520.4907              1611.4728              1662.6750
 Red. masses --      1.0557                 1.3157                 1.1086
 Frc consts  --      1.4380                 2.0131                 1.8057
 IR Inten    --      8.6844                86.6226                16.2127

                     37                     38                     39
                      A                      A                      A
 Frequencies --   1714.6866              3048.0347              3051.6494
 Red. masses --      5.2418                 1.0365                 1.0374
 Frc consts  --      9.0803                 5.6736                 5.6917
 IR Inten    --    160.3171                32.9244                 4.0064

                     40                     41                     42
                      A                      A                      A
 Frequencies --   3120.5214              3123.1941              3139.4267
 Red. masses --      1.0996                 1.1002                 1.1039
 Frc consts  --      6.3086                 6.3231                 6.4106
 IR Inten    --     15.3575                30.4705                 2.1575

                     43                     44                     45
                      A                      A                      A
 Frequencies --   3144.9643              3490.7202              3503.1107
 Red. masses --      1.1031                 1.0480                 1.0745
 Frc consts  --      6.4286                 7.5236                 7.7689
 IR Inten    --     35.9017                 1.0320                 1.7677

                     46                     47                     48
                      A                      A                      A
 Frequencies --   3578.2352              3591.9653              3704.6922
 Red. masses --      1.0468                 1.0947                 1.0989
 Frc consts  --      7.8966                 8.3219                 8.8862
 IR Inten    --     11.0825                 0.3436                22.9960

 - Thermochemistry -
 -------------------
 Temperature   298.150 Kelvin.  Pressure   1.00000 Atm.
 Atom     1 has atomic number  6 and mass  12.00000

 Molecular mass:   101.09530 amu.
 Principal axes and moments of inertia in atomic units:
                           1         2         3
     Eigenvalues --   548.70243 781.80094 929.94787
           X            0.99628  -0.08583   0.00754
           Y            0.08591   0.99623  -0.01176
           Z           -0.00650   0.01236   0.99990
 This molecule is an asymmetric top.
 Rotational symmetry number  1.
 Warning -- assumption of classical behavior for rotation
           may cause significant error
 Rotational temperatures (Kelvin)      0.15785     0.11079     0.09314
 Rotational constants (GHZ):           3.28911     2.30844     1.94069
 Zero-point vibrational energy     421875.7 (Joules/Mol)
                                  100.83071 (Kcal/Mol)
 Warning -- explicit consideration of  13 degrees of freedom as
           vibrations may cause significant error
 Vibrational temperatures:     67.19   307.83   376.62   385.77   420.84
          (Kelvin)            484.96   503.58   570.56   579.81   671.76
                              748.77   797.65   846.77  1012.13  1058.92
                             1164.83  1210.30  1260.12  1363.10  1445.20
                             1459.37  1543.25  1601.53  1664.03  1748.26
                             1799.62  1910.70  2024.23  2036.58  2058.39
                             2151.17  2157.99  2172.27  2187.64  2318.55
                             2392.22  2467.05  4385.44  4390.64  4489.73
                             4493.57  4516.93  4524.90  5022.36  5040.19
                             5148.28  5168.03  5330.22

 Zero-point correction=                           0.160684 (Hartree/Particle)
 Thermal correction to Energy=                    0.169114
 Thermal correction to Enthalpy=                  0.170059
 Thermal correction to Gibbs Free Energy=         0.128545
 Sum of electronic and zero-point Energies=           -323.153804
 Sum of electronic and thermal Energies=              -323.145373
 Sum of electronic and thermal Enthalpies=            -323.144429
 Sum of electronic and thermal Free Energies=         -323.185943

                     E (Thermal)             CV                S
                      KCal/Mol        Cal/Mol-Kelvin    Cal/Mol-Kelvin
 Total                  106.121             32.299             87.373
 Electronic               0.000              0.000              0.000
 Translational            0.889              2.981             39.751
 Rotational               0.889              2.981             27.481
 Vibrational            104.343             26.337             20.142
 Vibration     1          0.595              1.979              4.952
 Vibration     2          0.644              1.820              2.010
 Vibration     3          0.669              1.743              1.650
 Vibration     4          0.673              1.732              1.608
 Vibration     5          0.688              1.688              1.459
 Vibration     6          0.718              1.601              1.226
 Vibration     7          0.727              1.575              1.166
 Vibration     8          0.763              1.478              0.975
 Vibration     9          0.768              1.464              0.952
 Vibration    10          0.824              1.323              0.746
 Vibration    11          0.875              1.205              0.609
 Vibration    12          0.910              1.130              0.535
 Vibration    13          0.946              1.056              0.470

 Optimization completed.
    -- Stationary point found.
 Normal termination of Gaussian 09 at Thu Sep  8 15:16:53 2022.
