 Gaussian 09, Revision E.01,
 Gaussian 09:  ES64L-G09RevE.01 30-Nov-2015

 ----------------------------
 #P OPT Freq B3LYP/6-31G(d,p)
 ----------------------------

 ---------
 Frag_1059
 ---------
 Symbolic Z-matrix:
 Charge =  0 Multiplicity = 1

 SCF Done:  E(RB3LYP) =  -327.022524312     A.U. after   14 cycles
 SCF Done:  E(RB3LYP) =  -327.022596638     A.U. after    9 cycles
 SCF Done:  E(RB3LYP) =  -327.022601476     A.U. after    8 cycles
 SCF Done:  E(RB3LYP) =  -327.022602653     A.U. after    8 cycles
 Optimization completed.
    -- Stationary point found.
 Normal termination of Gaussian 09 at Thu Sep  8 14:45:57 2022.

 ----------------------------------------------------------------------
 #P Geom=AllCheck Guess=TCheck SCRF=Check GenChk RB3LYP/6-31G(d,p) Freq
 ----------------------------------------------------------------------

 Structure from the checkpoint file:  "B3LYP6-31Gdp.Frag_1059.chk"
 ---------
 Frag_1059
 ---------
 Charge =  0 Multiplicity = 1

                         Standard orientation:
 ---------------------------------------------------------------------
 Center     Atomic      Atomic             Coordinates (Angstroms)
 Number     Number       Type             X           Y           Z
 ---------------------------------------------------------------------
      1          6           0       -1.326125    1.475909    0.000160
      2          6           0       -0.913736    0.209658   -0.000042
      3          6           0       -1.785617   -1.001659   -0.000197
      4          7           0        0.575208   -0.135308   -0.000063
      5          6           0        1.218610    0.443429   -1.235112
      6          6           0        1.218142    0.441946    1.235930
      7          8           0        0.785991   -1.476216   -0.000849
      8          1           0       -2.386753    1.703329    0.000208
      9          1           0       -0.648739    2.322912    0.000299
     10          1           0       -1.566676   -1.625898   -0.869714
     11          1           0       -2.836822   -0.703524   -0.000181
     12          1           0       -1.566764   -1.626115    0.869193
     13          1           0        2.262934    0.135953   -1.200332
     14          1           0        0.728818   -0.028895   -2.084871
     15          1           0        1.120994    1.530918   -1.284493
     16          1           0        1.120458    1.529373    1.286553
     17          1           0        2.262486    0.134528    1.201195
     18          1           0        0.728037   -0.031398    2.084943
 ---------------------------------------------------------------------

 SCF Done:  E(RB3LYP) =  -327.022602653     A.U. after    1 cycles

 The electronic state is 1-A.
 Alpha  occ. eigenvalues --  -19.04511 -14.46561 -10.23578 -10.21944 -10.21943
 Alpha  occ. eigenvalues --  -10.19343 -10.17928  -1.04175  -0.82696  -0.78264
 Alpha  occ. eigenvalues --   -0.73034  -0.69236  -0.65218  -0.54902  -0.50342
 Alpha  occ. eigenvalues --   -0.48897  -0.46883  -0.43096  -0.42621  -0.42180
 Alpha  occ. eigenvalues --   -0.40107  -0.38808  -0.38790  -0.36618  -0.36160
 Alpha  occ. eigenvalues --   -0.26788  -0.18815  -0.18460
 Alpha virt. eigenvalues --    0.00298   0.07326   0.09620   0.11810   0.12740
 Alpha virt. eigenvalues --    0.13693   0.14630   0.15377   0.15834   0.17533
 Alpha virt. eigenvalues --    0.18659   0.19689   0.19750   0.21983   0.21988

 Mulliken charges:
               1
     1  C   -0.280683
     2  C    0.274754
     3  C   -0.328393
     4  N   -0.154524
     5  C   -0.138800
     6  C   -0.138800
     7  O   -0.580435
     8  H    0.112459
     9  H    0.099641
    10  H    0.143865
    11  H    0.093894
    12  H    0.143814
    13  H    0.136636
    14  H    0.141418
    15  H    0.098552
    16  H    0.098562
    17  H    0.136635
    18  H    0.141407
 Sum of Mulliken charges =  -0.00000

 Dipole moment (field-independent basis, Debye):
    X=             -0.6183    Y=              3.7448    Z=              0.0025  Tot=              3.7955
 Quadrupole moment (field-independent basis, Debye-Ang):
   XX=            -40.7978   YY=            -48.2258   ZZ=            -41.9915
   XY=              4.2530   XZ=              0.0022   YZ=             -0.0046

  Exact polarizability:  68.984  -2.882  73.812  -0.000   0.003  51.378
 Approx polarizability:  89.352  -9.590 121.915  -0.002   0.014  69.886

                      1                      2                      3
                      A                      A                      A
 Frequencies --     24.3350               155.7705               243.2004
 Red. masses --      3.0240                 1.0305                 1.3129
 Frc consts  --      0.0011                 0.0147                 0.0458
 IR Inten    --      3.6433                 0.1055                 0.4791

                      4                      5                      6
                      A                      A                      A
 Frequencies --    282.8949               283.4111               320.3668
 Red. masses --      1.1916                 1.7372                 2.2782
 Frc consts  --      0.0562                 0.0822                 0.1378
 IR Inten    --      3.0777                 0.0056                10.2207

                      7                      8                      9
                      A                      A                      A
 Frequencies --    346.6197               404.0906               447.3874
 Red. masses --      2.5159                 2.8712                 3.7209
 Frc consts  --      0.1781                 0.2762                 0.4388
 IR Inten    --      5.2642                 6.2037                 8.7957

                     10                     11                     12
                      A                      A                      A
 Frequencies --    487.9073               509.7656               558.8157
 Red. masses --      2.7071                 3.4539                 2.2280
 Frc consts  --      0.3797                 0.5288                 0.4099
 IR Inten    --      7.4232                 9.0878                15.9712

                     13                     14                     15
                      A                      A                      A
 Frequencies --    660.7540               718.1313               867.9102
 Red. masses --      3.4236                 1.2121                 3.0916
 Frc consts  --      0.8807                 0.3683                 1.3721
 IR Inten    --      0.5979                 2.6206                 2.0952

                     16                     17                     18
                      A                      A                      A
 Frequencies --    909.0827               929.7500               931.9858
 Red. masses --      1.3354                 1.9572                 1.9473
 Frc consts  --      0.6502                 0.9968                 0.9965
 IR Inten    --     37.8287                 0.5367                 3.9865

                     19                     20                     21
                      A                      A                      A
 Frequencies --    973.9552              1023.0598              1072.7843
 Red. masses --      3.5514                 1.6283                 1.4054
 Frc consts  --      1.9848                 1.0041                 0.9529
 IR Inten    --     34.7218                 0.8629                 0.6415

                     22                     23                     24
                      A                      A                      A
 Frequencies --   1102.5666              1196.6035              1212.2025
 Red. masses --      1.2974                 1.6709                 2.4321
 Frc consts  --      0.9292                 1.4096                 2.1057
 IR Inten    --      2.1224                14.2032                 0.0058

                     25                     26                     27
                      A                      A                      A
 Frequencies --   1231.2612              1266.2778              1411.9029
 Red. masses --      2.0517                 2.2145                 1.1814
 Frc consts  --      1.8326                 2.0921                 1.3876
 IR Inten    --     18.2792                 2.3424                 8.2827

                     28                     29                     30
                      A                      A                      A
 Frequencies --   1415.6154              1440.9590              1456.9512
 Red. masses --      1.1635                 1.2576                 1.1804
 Frc consts  --      1.3738                 1.5385                 1.4762
 IR Inten    --      0.0421                 4.7397                 0.0471

                     31                     32                     33
                      A                      A                      A
 Frequencies --   1460.0844              1473.1007              1484.9275
 Red. masses --      1.0489                 1.0497                 1.0594
 Frc consts  --      1.3174                 1.3421                 1.3764
 IR Inten    --      8.2005                 2.1877                17.8818

                     34                     35                     36
                      A                      A                      A
 Frequencies --   1490.3150              1491.4911              1511.2874
 Red. masses --      1.0485                 1.0543                 1.0462
 Frc consts  --      1.3720                 1.3818                 1.4078
 IR Inten    --      7.1860                 7.9171                12.2696

                     37                     38                     39
                      A                      A                      A
 Frequencies --   1735.3160              3063.0017              3065.3745
 Red. masses --      5.4918                 1.0347                 1.0348
 Frc consts  --      9.7436                 5.7197                 5.7289
 IR Inten    --     19.6453                14.9082                14.2428

                     40                     41                     42
                      A                      A                      A
 Frequencies --   3070.3145              3137.3034              3151.4963
 Red. masses --      1.0342                 1.0993                 1.1047
 Frc consts  --      5.7441                 6.3750                 6.4645
 IR Inten    --     29.0319                 3.7859                11.0329

                     43                     44                     45
                      A                      A                      A
 Frequencies --   3166.6885              3169.1288              3174.6025
 Red. masses --      1.1006                 1.0700                 1.0923
 Frc consts  --      6.5027                 6.3314                 6.4860
 IR Inten    --      0.4930                 1.0121                25.9908

                     46                     47                     48
                      A                      A                      A
 Frequencies --   3195.2897              3198.5820              3251.6966
 Red. masses --      1.1072                 1.1072                 1.1161
 Frc consts  --      6.6604                 6.6743                 6.9530
 IR Inten    --      3.1614                10.3460                 9.7566

 - Thermochemistry -
 -------------------
 Temperature   298.150 Kelvin.  Pressure   1.00000 Atm.
 Atom     1 has atomic number  6 and mass  12.00000

 Molecular mass:   101.08406 amu.
 Principal axes and moments of inertia in atomic units:
                           1         2         3
     Eigenvalues --   535.62962 736.89833 892.85963
           X            0.99528   0.09702   0.00002
           Y           -0.09702   0.99528  -0.00008
           Z           -0.00002   0.00008   1.00000
 This molecule is an asymmetric top.
 Rotational symmetry number  1.
 Warning -- assumption of classical behavior for rotation
           may cause significant error
 Rotational temperatures (Kelvin)      0.16170     0.11754     0.09701
 Rotational constants (GHZ):           3.36938     2.44910     2.02130
 Zero-point vibrational energy     413766.3 (Joules/Mol)
                                   98.89251 (Kcal/Mol)
 Warning -- explicit consideration of  12 degrees of freedom as
           vibrations may cause significant error
 Vibrational temperatures:     35.01   224.12   349.91   407.02   407.76
          (Kelvin)            460.94   498.71   581.40   643.69   701.99
                              733.44   804.01   950.68  1033.23  1248.73
                             1307.97  1337.70  1340.92  1401.30  1471.95
                             1543.50  1586.35  1721.64  1744.09  1771.51
                             1821.89  2031.41  2036.75  2073.22  2096.23
                             2100.73  2119.46  2136.48  2144.23  2145.92
                             2174.40  2496.73  4406.97  4410.38  4417.49
                             4513.87  4534.29  4556.15  4559.66  4567.54
                             4597.30  4602.04  4678.46

 Zero-point correction=                           0.157595 (Hartree/Particle)
 Thermal correction to Energy=                    0.165988
 Thermal correction to Enthalpy=                  0.166932
 Thermal correction to Gibbs Free Energy=         0.124813
 Sum of electronic and zero-point Energies=           -326.865007
 Sum of electronic and thermal Energies=              -326.856615
 Sum of electronic and thermal Enthalpies=            -326.855671
 Sum of electronic and thermal Free Energies=         -326.897789

                     E (Thermal)             CV                S
                      KCal/Mol        Cal/Mol-Kelvin    Cal/Mol-Kelvin
 Total                  104.159             31.334             88.646
 Electronic               0.000              0.000              0.000
 Translational            0.889              2.981             39.750
 Rotational               0.889              2.981             27.357
 Vibrational            102.381             25.372             21.538
 Vibration     1          0.593              1.985              6.245
 Vibration     2          0.620              1.896              2.601
 Vibration     3          0.659              1.774              1.779
 Vibration     4          0.682              1.705              1.516
 Vibration     5          0.682              1.704              1.513
 Vibration     6          0.706              1.635              1.308
 Vibration     7          0.725              1.582              1.182
 Vibration     8          0.769              1.461              0.948
 Vibration     9          0.807              1.367              0.804
 Vibration    10          0.844              1.277              0.689
 Vibration    11          0.865              1.228              0.634
 Vibration    12          0.914              1.120              0.526

 Optimization completed.
    -- Stationary point found.
 Normal termination of Gaussian 09 at Thu Sep  8 14:46:15 2022.
