 Gaussian 09, Revision E.01,
 Gaussian 09:  ES64L-G09RevE.01 30-Nov-2015

 ----------------------------
 #P OPT Freq B3LYP/6-31G(d,p)
 ----------------------------

 ---------
 Frag_1086
 ---------
 Symbolic Z-matrix:
 Charge =  0 Multiplicity = 1

 SCF Done:  E(RB3LYP) =  -246.017089800     A.U. after   14 cycles
 SCF Done:  E(RB3LYP) =  -246.017234936     A.U. after   11 cycles
 SCF Done:  E(RB3LYP) =  -246.017235603     A.U. after    9 cycles
 SCF Done:  E(RB3LYP) =  -246.017223007     A.U. after   11 cycles
 SCF Done:  E(RB3LYP) =  -246.017236902     A.U. after   10 cycles
 SCF Done:  E(RB3LYP) =  -246.017238421     A.U. after    9 cycles
 Optimization completed.
    -- Stationary point found.
 Normal termination of Gaussian 09 at Thu Sep  8 14:46:33 2022.

 ----------------------------------------------------------------------
 #P Geom=AllCheck Guess=TCheck SCRF=Check GenChk RB3LYP/6-31G(d,p) Freq
 ----------------------------------------------------------------------

 Structure from the checkpoint file:  "B3LYP6-31Gdp.Frag_1086.chk"
 ---------
 Frag_1086
 ---------
 Charge =  0 Multiplicity = 1

                         Standard orientation:
 ---------------------------------------------------------------------
 Center     Atomic      Atomic             Coordinates (Angstroms)
 Number     Number       Type             X           Y           Z
 ---------------------------------------------------------------------
      1          6           0        2.176257   -0.046969   -0.000000
      2          6           0        0.968598   -0.022983   -0.000011
      3          6           0       -0.468391    0.077617    0.000002
      4          7           0       -1.158902    1.150041    0.000002
      5          8           0       -1.075140   -1.131180    0.000001
      6          1           0        3.241996   -0.076528    0.000033
      7          1           0       -0.558007    1.972895   -0.000004
      8          1           0       -2.029331   -0.943201    0.000005
 ---------------------------------------------------------------------

 SCF Done:  E(RB3LYP) =  -246.017238421     A.U. after    1 cycles

 The electronic state is 1-A.
 Alpha  occ. eigenvalues --  -19.19246 -14.32324 -10.31132 -10.21429 -10.21139
 Alpha  occ. eigenvalues --   -1.08527  -0.90055  -0.77437  -0.67150  -0.56382
 Alpha  occ. eigenvalues --   -0.53255  -0.51041  -0.43154  -0.39906  -0.31879
 Alpha  occ. eigenvalues --   -0.31169  -0.27921  -0.27141
 Alpha virt. eigenvalues --   -0.03523   0.02629   0.08728   0.10619   0.12513
 Alpha virt. eigenvalues --    0.12524   0.23663   0.31670   0.40909   0.42620
 Alpha virt. eigenvalues --    0.50421   0.51554   0.54764   0.58151   0.59630

 Mulliken charges:
               1
     1  C   -0.438360
     2  C    0.381083
     3  C    0.325115
     4  N   -0.541703
     5  O   -0.480677
     6  H    0.180297
     7  H    0.243364
     8  H    0.330880
 Sum of Mulliken charges =  -0.00000

 Dipole moment (field-independent basis, Debye):
    X=              1.3188    Y=              0.3162    Z=              0.0000  Tot=              1.3562
 Quadrupole moment (field-independent basis, Debye-Ang):
   XX=            -21.0057   YY=            -28.7728   ZZ=            -29.2253
   XY=              3.2794   XZ=              0.0001   YZ=             -0.0000

  Exact polarizability:  60.162  -4.140  34.783   0.000  -0.000  15.721
 Approx polarizability: 102.970 -13.211  57.338   0.000  -0.000  21.573

                      1                      2                      3
                      A                      A                      A
 Frequencies --    196.1305               277.1739               509.7387
 Red. masses --      4.4132                 4.1655                 4.0377
 Frc consts  --      0.1000                 0.1886                 0.6181
 IR Inten    --      0.8549                 1.5968                32.5611

                      4                      5                      6
                      A                      A                      A
 Frequencies --    575.8586               588.3114               656.1915
 Red. masses --      1.1870                 6.4589                 1.2500
 Frc consts  --      0.2319                 1.3171                 0.3171
 IR Inten    --    127.8442                 3.2173                41.4624

                      7                      8                      9
                      A                      A                      A
 Frequencies --    659.4922               729.6144               834.1706
 Red. masses --      1.3417                 5.7783                 4.8959
 Frc consts  --      0.3438                 1.8123                 2.0072
 IR Inten    --     19.3359                56.9419                14.7549

                     10                     11                     12
                      A                      A                      A
 Frequencies --    835.7395              1106.4772              1257.4328
 Red. masses --      1.1302                 1.7168                 1.4423
 Frc consts  --      0.4651                 1.2384                 1.3436
 IR Inten    --     41.5336               209.4962               155.2489

                     13                     14                     15
                      A                      A                      A
 Frequencies --   1439.6500              1710.5460              2238.1825
 Red. masses --      2.6507                 8.2387                 6.0039
 Frc consts  --      3.2369                14.2030                17.7204
 IR Inten    --    101.3778               229.7471                25.8496

                     16                     17                     18
                      A                      A                      A
 Frequencies --   3486.0437              3533.0335              3748.0889
 Red. masses --      1.1610                 1.0760                 1.0637
 Frc consts  --      8.3129                 7.9136                 8.8043
 IR Inten    --     61.4261                 6.9040                60.9021

 - Thermochemistry -
 -------------------
 Temperature   298.150 Kelvin.  Pressure   1.00000 Atm.
 Atom     1 has atomic number  6 and mass  12.00000

 Molecular mass:    69.02146 amu.
 Principal axes and moments of inertia in atomic units:
                           1         2         3
     Eigenvalues --   156.77105 439.50882 596.27987
           X            0.99997   0.00732   0.00000
           Y           -0.00732   0.99997  -0.00000
           Z           -0.00000   0.00000   1.00000
 This molecule is an asymmetric top.
 Rotational symmetry number  1.
 Rotational temperatures (Kelvin)      0.55249     0.19707     0.14526
 Rotational constants (GHZ):          11.51195     4.10627     3.02667
 Zero-point vibrational energy     145836.0 (Joules/Mol)
                                   34.85564 (Kcal/Mol)
 Warning -- explicit consideration of   5 degrees of freedom as
           vibrations may cause significant error
 Vibrational temperatures:    282.19   398.79   733.40   828.53   846.45
          (Kelvin)            944.11   948.86  1049.75  1200.18  1202.44
                             1591.97  1809.16  2071.33  2461.09  3220.24
                             5015.63  5083.24  5392.66

 Zero-point correction=                           0.055546 (Hartree/Particle)
 Thermal correction to Energy=                    0.060499
 Thermal correction to Enthalpy=                  0.061443
 Thermal correction to Gibbs Free Energy=         0.027889
 Sum of electronic and zero-point Energies=           -245.961692
 Sum of electronic and thermal Energies=              -245.956739
 Sum of electronic and thermal Enthalpies=            -245.955795
 Sum of electronic and thermal Free Energies=         -245.989350

                     E (Thermal)             CV                S
                      KCal/Mol        Cal/Mol-Kelvin    Cal/Mol-Kelvin
 Total                   37.964             17.256             70.621
 Electronic               0.000              0.000              0.000
 Translational            0.889              2.981             38.613
 Rotational               0.889              2.981             25.222
 Vibrational             36.186             11.294              6.786
 Vibration     1          0.636              1.845              2.169
 Vibration     2          0.678              1.716              1.551
 Vibration     3          0.865              1.228              0.634
 Vibration     4          0.932              1.083              0.493
 Vibration     5          0.946              1.057              0.470

 Optimization completed.
    -- Stationary point found.
 Normal termination of Gaussian 09 at Thu Sep  8 14:46:40 2022.
