 Gaussian 09, Revision D.01,
 Gaussian 09:  ES64L-G09RevD.01 24-Apr-2013

 -------------------------
 #P OPT Freq B3LYP/6-31G**
 -------------------------

 -------
 Frag_75
 -------
 Symbolic Z-matrix:
 Charge =  0 Multiplicity = 1

 SCF Done:  E(RB3LYP) =  -227.372493203     A.U. after   15 cycles
 SCF Done:  E(RB3LYP) =  -227.372492851     A.U. after    9 cycles
 SCF Done:  E(RB3LYP) =  -227.372493331     A.U. after    8 cycles
 Optimization completed.
    -- Stationary point found.
 Normal termination of Gaussian 09 at Fri Jul 23 15:30:54 2021.

 ----------------------------------------------------------------------
 #P Geom=AllCheck Guess=TCheck SCRF=Check GenChk RB3LYP/6-31G(d,p) Freq
 ----------------------------------------------------------------------

 Structure from the checkpoint file:  "/vol2/users/liuj201281/HOFBenchmark/IsodesmicSplit/Sample60/Ring26/Running/Gau-440675.chk"
 -------
 Frag_75
 -------
 Charge =  0 Multiplicity = 1

                         Standard orientation:
 ---------------------------------------------------------------------
 Center     Atomic      Atomic             Coordinates (Angstroms)
 Number     Number       Type             X           Y           Z
 ---------------------------------------------------------------------
      1          6           0        1.523857   -0.904254   -0.000026
      2          6           0        0.464686   -0.081540   -0.000022
      3          6           0        0.534282    1.418968   -0.000071
      4          7           0       -0.799345   -0.746891    0.000041
      5          7           0       -1.778529    0.039559    0.000082
      6          1           0        1.371243   -1.977849    0.000037
      7          1           0        2.540921   -0.527611   -0.000067
      8          1           0        0.022339    1.830878    0.875289
      9          1           0        1.572875    1.756315   -0.000264
     10          1           0        0.022041    1.830829   -0.875281
     11          1           0       -2.621251   -0.560280    0.000138
 ---------------------------------------------------------------------

 SCF Done:  E(RB3LYP) =  -227.372493331     A.U. after    1 cycles

 The electronic state is 1-A.
 Alpha  occ. eigenvalues --  -14.38336 -14.37075 -10.22409 -10.19693 -10.18413
 Alpha  occ. eigenvalues --   -1.02301  -0.81493  -0.70299  -0.67667  -0.53059
 Alpha  occ. eigenvalues --   -0.48797  -0.45662  -0.43140  -0.40612  -0.37882
 Alpha  occ. eigenvalues --   -0.37737  -0.37520  -0.26384  -0.22840
 Alpha virt. eigenvalues --   -0.06180   0.05016   0.10797   0.11843   0.14019
 Alpha virt. eigenvalues --    0.15464   0.18315   0.18598   0.23850   0.29234
 Alpha virt. eigenvalues --    0.34256   0.37599   0.51206   0.51708   0.55581

 Mulliken charges:
               1
     1  C   -0.240599
     2  C    0.277103
     3  C   -0.347524
     4  N   -0.256743
     5  N   -0.285005
     6  H    0.119983
     7  H    0.108151
     8  H    0.134492
     9  H    0.103358
    10  H    0.134494
    11  H    0.252289
 Sum of Mulliken charges =   0.00000

 Dipole moment (field-independent basis, Debye):
    X=              0.7503    Y=              0.0679    Z=              0.0000  Tot=              0.7534
 Quadrupole moment (field-independent basis, Debye-Ang):
   XX=            -25.9254   YY=            -30.5957   ZZ=            -30.9654
   XY=              1.3485   XZ=             -0.0002   YZ=             -0.0002

  Exact polarizability:  71.534  -7.905  46.592  -0.002   0.000  23.945
 Approx polarizability: 118.970 -25.159  68.147  -0.003   0.000  34.683

                      1                      2                      3
                      A                      A                      A
 Frequencies --    170.5616               187.3481               320.6967
 Red. masses --      2.8221                 1.3089                 3.2041
 Frc consts  --      0.0484                 0.0271                 0.1942
 IR Inten    --      0.0041                 0.3627                 2.9823

                      4                      5                      6
                      A                      A                      A
 Frequencies --    414.9144               458.6819               641.3049
 Red. masses --      2.1717                 2.3613                 4.3098
 Frc consts  --      0.2203                 0.2927                 1.0443
 IR Inten    --      0.2353                11.6625                 9.7910

                      7                      8                      9
                      A                      A                      A
 Frequencies --    728.6957               813.7188               957.2997
 Red. masses --      1.0448                 4.1327                 1.7142
 Frc consts  --      0.3269                 1.6122                 0.9256
 IR Inten    --      1.7972                10.6920                11.6684

                     10                     11                     12
                      A                      A                      A
 Frequencies --    958.7031               965.3672              1024.8741
 Red. masses --      1.2080                 1.2867                 1.4653
 Frc consts  --      0.6542                 0.7065                 0.9068
 IR Inten    --      0.1015                59.9604                16.9801

                     13                     14                     15
                      A                      A                      A
 Frequencies --   1082.4335              1281.6183              1411.6493
 Red. masses --      1.5877                 2.7434                 1.2015
 Frc consts  --      1.0960                 2.6550                 1.4107
 IR Inten    --     10.4328                24.2753                 5.6810

                     16                     17                     18
                      A                      A                      A
 Frequencies --   1439.4731              1481.7819              1490.8087
 Red. masses --      1.2683                 1.0445                 1.1708
 Frc consts  --      1.5484                 1.3513                 1.5331
 IR Inten    --      3.6572                 5.7218                30.4125

                     19                     20                     21
                      A                      A                      A
 Frequencies --   1501.4407              1593.8714              1722.3059
 Red. masses --      1.1985                 9.9498                 5.0942
 Frc consts  --      1.5919                14.8926                 8.9032
 IR Inten    --      2.9295                28.6596                 7.4963

                     22                     23                     24
                      A                      A                      A
 Frequencies --   3056.7805              3116.3480              3146.1088
 Red. masses --      1.0356                 1.0996                 1.1041
 Frc consts  --      5.7015                 6.2918                 6.4386
 IR Inten    --     10.6617                10.9541                13.7187

                     25                     26                     27
                      A                      A                      A
 Frequencies --   3175.4804              3271.6413              3284.2204
 Red. masses --      1.0598                 1.1179                 1.0747
 Frc consts  --      6.2965                 7.0498                 6.8299
 IR Inten    --      3.2444                 3.8467                22.2215

 - Thermochemistry -
 -------------------
 Temperature   298.150 Kelvin.  Pressure   1.00000 Atm.
 Atom     1 has atomic number  6 and mass  12.00000

 Molecular mass:    70.05310 amu.
 Principal axes and moments of inertia in atomic units:
                           1         2         3
     Eigenvalues --   206.24865 379.86082 575.08033
           X            0.99997   0.00725   0.00004
           Y           -0.00725   0.99997   0.00003
           Z           -0.00004  -0.00003   1.00000
 This molecule is an asymmetric top.
 Rotational symmetry number  1.
 Rotational temperatures (Kelvin)      0.41995     0.22801     0.15061
 Rotational constants (GHZ):           8.75032     4.75106     3.13824
 Zero-point vibrational energy     237447.5 (Joules/Mol)
                                   56.75132 (Kcal/Mol)
 Warning -- explicit consideration of   5 degrees of freedom as
           vibrations may cause significant error
 Vibrational temperatures:    245.40   269.55   461.41   596.97   659.94
          (Kelvin)            922.69  1048.43  1170.76  1377.34  1379.36
                             1388.95  1474.56  1557.38  1843.96  2031.05
                             2071.08  2131.95  2144.94  2160.24  2293.22
                             2478.01  4398.02  4483.72  4526.54  4568.80
                             4707.16  4725.25

 Zero-point correction=                           0.090439 (Hartree/Particle)
 Thermal correction to Energy=                    0.095957
 Thermal correction to Enthalpy=                  0.096901
 Thermal correction to Gibbs Free Energy=         0.062176
 Sum of electronic and zero-point Energies=           -227.282054
 Sum of electronic and thermal Energies=              -227.276536
 Sum of electronic and thermal Enthalpies=            -227.275592
 Sum of electronic and thermal Free Energies=         -227.310317

                     E (Thermal)             CV                S
                      KCal/Mol        Cal/Mol-Kelvin    Cal/Mol-Kelvin
 Total                   60.214             19.045             73.085
 Electronic               0.000              0.000              0.000
 Translational            0.889              2.981             38.657
 Rotational               0.889              2.981             25.314
 Vibrational             58.436             13.084              9.115
 Vibration     1          0.626              1.879              2.429
 Vibration     2          0.632              1.857              2.254
 Vibration     3          0.706              1.634              1.307
 Vibration     4          0.778              1.438              0.909
 Vibration     5          0.817              1.342              0.770

 Optimization completed.
    -- Stationary point found.
 Normal termination of Gaussian 09 at Fri Jul 23 15:31:06 2021.
