 Gaussian 09, Revision E.01,
 Gaussian 09:  ES64L-G09RevE.01 30-Nov-2015

 ----------------------------
 #P OPT Freq B3LYP/6-31G(d,p)
 ----------------------------

 --------
 Frag_531
 --------
 Symbolic Z-matrix:
 Charge =  0 Multiplicity = 1

 SCF Done:  E(RB3LYP) =  -204.097104586     A.U. after   14 cycles
 SCF Done:  E(RB3LYP) =  -204.097242890     A.U. after   11 cycles
 SCF Done:  E(RB3LYP) =  -204.097245735     A.U. after    9 cycles
 SCF Done:  E(RB3LYP) =  -204.097245816     A.U. after    9 cycles
 SCF Done:  E(RB3LYP) =  -204.097246211     A.U. after    8 cycles
 Optimization completed.
    -- Stationary point found.
 Normal termination of Gaussian 09 at Thu Sep  8 14:55:15 2022.

 ----------------------------------------------------------------------
 #P Geom=AllCheck Guess=TCheck SCRF=Check GenChk RB3LYP/6-31G(d,p) Freq
 ----------------------------------------------------------------------

 Structure from the checkpoint file:  "B3LYP6-31Gdp.Frag_531.chk"
 --------
 Frag_531
 --------
 Charge =  0 Multiplicity = 1

                         Standard orientation:
 ---------------------------------------------------------------------
 Center     Atomic      Atomic             Coordinates (Angstroms)
 Number     Number       Type             X           Y           Z
 ---------------------------------------------------------------------
      1          6           0       -1.548735    0.283985    0.000011
      2          7           0       -0.394423   -0.632956    0.000090
      3          7           0        0.717177   -0.095396   -0.000198
      4          7           0        1.800122    0.270882    0.000108
      5          1           0       -1.563794    0.920442    0.892640
      6          1           0       -1.563728    0.920248   -0.892761
      7          1           0       -2.440201   -0.342309    0.000056
 ---------------------------------------------------------------------

 SCF Done:  E(RB3LYP) =  -204.097246211     A.U. after    1 cycles

 The electronic state is 1-A.
 Alpha  occ. eigenvalues --  -14.51302 -14.40708 -14.38428 -10.24002  -1.13931
 Alpha  occ. eigenvalues --   -0.98059  -0.75061  -0.54410  -0.51640  -0.51466
 Alpha  occ. eigenvalues --   -0.45239  -0.43420  -0.41756  -0.30406  -0.25531
 Alpha virt. eigenvalues --   -0.02797   0.01144   0.10382   0.14247   0.15036
 Alpha virt. eigenvalues --    0.16503   0.26596   0.46234   0.49312   0.52420
 Alpha virt. eigenvalues --    0.54382   0.55975   0.62956   0.65197   0.69884

 Mulliken charges:
               1
     1  C   -0.175176
     2  N   -0.366282
     3  N    0.402956
     4  N   -0.266910
     5  H    0.130749
     6  H    0.130746
     7  H    0.143917
 Sum of Mulliken charges =  -0.00000

 Dipole moment (field-independent basis, Debye):
    X=             -2.1339    Y=              1.0200    Z=             -0.0005  Tot=              2.3652
 Quadrupole moment (field-independent basis, Debye-Ang):
   XX=            -24.0502   YY=            -24.1163   ZZ=            -22.9808
   XY=             -1.8692   XZ=             -0.0004   YZ=              0.0001

  Exact polarizability:  50.864   5.383  22.531   0.000   0.000  19.048
 Approx polarizability: 102.919  24.487  37.896   0.002   0.000  25.443

                      1                      2                      3
                      A                      A                      A
 Frequencies --    101.0680               247.0605               573.2575
 Red. masses --      1.2048                 4.2998                13.5138
 Frc consts  --      0.0073                 0.1546                 2.6165
 IR Inten    --      0.6835                 6.2860                12.6796

                      4                      5                      6
                      A                      A                      A
 Frequencies --    664.6595               924.4598              1110.9235
 Red. masses --      7.3644                 6.2450                 1.2541
 Frc consts  --      1.9168                 3.1446                 0.9119
 IR Inten    --      9.8756                18.5976                 0.1063

                      7                      8                      9
                      A                      A                      A
 Frequencies --   1150.8624              1346.7088              1461.6644
 Red. masses --      1.3880                 8.7705                 1.1758
 Frc consts  --      1.0831                 9.3718                 1.4800
 IR Inten    --     11.0612               118.6207                10.2389

                     10                     11                     12
                      A                      A                      A
 Frequencies --   1505.8035              1506.8871              2263.7626
 Red. masses --      1.0539                 1.0451                13.4429
 Frc consts  --      1.4079                 1.3982                40.5885
 IR Inten    --     14.5439                 6.0769               441.6866

                     13                     14                     15
                      A                      A                      A
 Frequencies --   3029.3546              3093.0550              3166.9820
 Red. masses --      1.0363                 1.1062                 1.0993
 Frc consts  --      5.6034                 6.2354                 6.4961
 IR Inten    --     44.5311                30.9940                11.0469

 - Thermochemistry -
 -------------------
 Temperature   298.150 Kelvin.  Pressure   1.00000 Atm.
 Atom     1 has atomic number  6 and mass  12.00000

 Molecular mass:    57.03270 amu.
 Principal axes and moments of inertia in atomic units:
                           1         2         3
     Eigenvalues --    39.53089 341.37934 369.43782
           X            0.99967  -0.02572  -0.00000
           Y            0.02572   0.99967   0.00001
           Z           -0.00000  -0.00001   1.00000
 This molecule is an asymmetric top.
 Rotational symmetry number  1.
 Rotational temperatures (Kelvin)      2.19104     0.25372     0.23445
 Rotational constants (GHZ):          45.65395     5.28662     4.88510
 Zero-point vibrational energy     132465.5 (Joules/Mol)
                                   31.66002 (Kcal/Mol)
 Warning -- explicit consideration of   3 degrees of freedom as
           vibrations may cause significant error
 Vibrational temperatures:    145.41   355.46   824.79   956.30  1330.09
          (Kelvin)           1598.37  1655.83  1937.61  2103.01  2166.51
                             2168.07  3257.05  4358.56  4450.21  4556.57

 Zero-point correction=                           0.050453 (Hartree/Particle)
 Thermal correction to Energy=                    0.054930
 Thermal correction to Enthalpy=                  0.055875
 Thermal correction to Gibbs Free Energy=         0.023803
 Sum of electronic and zero-point Energies=           -204.046793
 Sum of electronic and thermal Energies=              -204.042316
 Sum of electronic and thermal Enthalpies=            -204.041372
 Sum of electronic and thermal Free Energies=         -204.073443

                     E (Thermal)             CV                S
                      KCal/Mol        Cal/Mol-Kelvin    Cal/Mol-Kelvin
 Total                   34.469             13.006             67.501
 Electronic               0.000              0.000              0.000
 Translational            0.889              2.981             38.044
 Rotational               0.889              2.981             23.126
 Vibrational             32.692              7.044              6.331
 Vibration     1          0.604              1.948              3.434
 Vibration     2          0.661              1.768              1.751
 Vibration     3          0.930              1.089              0.498

 Optimization completed.
    -- Stationary point found.
 Normal termination of Gaussian 09 at Thu Sep  8 14:55:20 2022.
