 Gaussian 09, Revision E.01,
 Gaussian 09:  ES64L-G09RevE.01 30-Nov-2015

 ----------------------------
 #P OPT Freq B3LYP/6-31G(d,p)
 ----------------------------

 --------
 Frag_725
 --------
 Symbolic Z-matrix:
 Charge =  0 Multiplicity = 1

 SCF Done:  E(RB3LYP) =  -227.382811991     A.U. after   14 cycles
 SCF Done:  E(RB3LYP) =  -227.382929412     A.U. after    9 cycles
 SCF Done:  E(RB3LYP) =  -227.382931696     A.U. after    8 cycles
 Optimization completed.
    -- Stationary point found.
 Normal termination of Gaussian 09 at Thu Sep  8 15:14:39 2022.

 ----------------------------------------------------------------------
 #P Geom=AllCheck Guess=TCheck SCRF=Check GenChk RB3LYP/6-31G(d,p) Freq
 ----------------------------------------------------------------------

 Structure from the checkpoint file:  "B3LYP6-31Gdp.Frag_725.chk"
 --------
 Frag_725
 --------
 Charge =  0 Multiplicity = 1

                         Standard orientation:
 ---------------------------------------------------------------------
 Center     Atomic      Atomic             Coordinates (Angstroms)
 Number     Number       Type             X           Y           Z
 ---------------------------------------------------------------------
      1          6           0        1.043286    1.315444   -0.000010
      2          6           0        0.310508    0.000000    0.000018
      3          6           0        1.043244   -1.315467   -0.000009
      4          7           0       -0.982911    0.000023    0.000051
      5          7           0       -2.136492    0.000010   -0.000035
      6          1           0        1.688694    1.408983    0.883701
      7          1           0        0.349684    2.159773    0.000116
      8          1           0        1.688497    1.409081   -0.883856
      9          1           0        1.688338   -1.409239    0.883910
     10          1           0        0.349615   -2.159774   -0.000334
     11          1           0        1.688764   -1.408913   -0.883646
 ---------------------------------------------------------------------

 SCF Done:  E(RB3LYP) =  -227.382931696     A.U. after    1 cycles

 The electronic state is 1-A.
 Alpha  occ. eigenvalues --  -14.45871 -14.38728 -10.22662 -10.19908 -10.19907
 Alpha  occ. eigenvalues --   -1.08383  -0.85767  -0.71540  -0.71072  -0.49708
 Alpha  occ. eigenvalues --   -0.48573  -0.47481  -0.43497  -0.41720  -0.40035
 Alpha  occ. eigenvalues --   -0.39864  -0.39234  -0.36277  -0.19335
 Alpha virt. eigenvalues --   -0.03451   0.04178   0.09378   0.12292   0.14525
 Alpha virt. eigenvalues --    0.16923   0.17057   0.17524   0.19639   0.29238
 Alpha virt. eigenvalues --    0.32430   0.35742   0.48747   0.53731   0.54234

 Mulliken charges:
               1
     1  C   -0.342689
     2  C    0.171265
     3  C   -0.342687
     4  N    0.062855
     5  N   -0.276843
     6  H    0.120079
     7  H    0.123889
     8  H    0.120081
     9  H    0.120081
    10  H    0.123890
    11  H    0.120080
 Sum of Mulliken charges =  -0.00000

 Dipole moment (field-independent basis, Debye):
    X=              2.3820    Y=             -0.0000    Z=              0.0000  Tot=              2.3820
 Quadrupole moment (field-independent basis, Debye-Ang):
   XX=            -35.2037   YY=            -28.0519   ZZ=            -30.9573
   XY=              0.0000   XZ=             -0.0002   YZ=              0.0001

  Exact polarizability:  71.096  -0.000  39.901   0.001  -0.000  30.515
 Approx polarizability: 138.780  -0.000  49.452   0.002  -0.001  42.551

                      1                      2                      3
                      A                      A                      A
 Frequencies --    121.8780               146.1095               218.1260
 Red. masses --      1.1433                 1.0276                 4.7172
 Frc consts  --      0.0100                 0.0129                 0.1322
 IR Inten    --      0.0220                 0.0000                 3.0871

                      4                      5                      6
                      A                      A                      A
 Frequencies --    240.9746               326.2601               523.9463
 Red. masses --      2.5894                 2.3437                12.8113
 Frc consts  --      0.0886                 0.1470                 2.0721
 IR Inten    --      2.7340                 0.9002                 5.6356

                      7                      8                      9
                      A                      A                      A
 Frequencies --    625.7023               755.0155               993.8770
 Red. masses --      5.8359                 4.2808                 1.3581
 Frc consts  --      1.3462                 1.4378                 0.7904
 IR Inten    --      3.8695                 0.5641                 1.1836

                     10                     11                     12
                      A                      A                      A
 Frequencies --   1002.6266              1037.8298              1088.7886
 Red. masses --      1.2046                 1.5619                 1.4030
 Frc consts  --      0.7134                 0.9912                 0.9799
 IR Inten    --      0.0000                15.6865                 0.0740

                     13                     14                     15
                      A                      A                      A
 Frequencies --   1267.1994              1421.6597              1425.6272
 Red. masses --      5.0202                 1.2374                 2.9652
 Frc consts  --      4.7497                 1.4736                 3.5507
 IR Inten    --      1.6486                 0.2165                 1.9668

                     16                     17                     18
                      A                      A                      A
 Frequencies --   1436.5139              1481.9777              1493.2647
 Red. masses --      1.2605                 1.0444                 1.0423
 Frc consts  --      1.5325                 1.3515                 1.3694
 IR Inten    --     19.2711                 0.0000                13.8398

                     19                     20                     21
                      A                      A                      A
 Frequencies --   1507.6314              1538.8872              2173.7564
 Red. masses --      1.0446                 1.2227                13.3359
 Frc consts  --      1.3989                 1.7060                37.1274
 IR Inten    --      9.0913                 0.8704               455.6032

                     22                     23                     24
                      A                      A                      A
 Frequencies --   3013.5214              3017.9489              3058.5904
 Red. masses --      1.0386                 1.0391                 1.1021
 Frc consts  --      5.5569                 5.5763                 6.0745
 IR Inten    --     31.8163                66.2607                58.4164

                     25                     26                     27
                      A                      A                      A
 Frequencies --   3061.2022              3132.2275              3132.5631
 Red. masses --      1.1023                 1.0979                 1.0981
 Frc consts  --      6.0859                 6.3462                 6.3486
 IR Inten    --      0.0000                10.7126                16.3620

 - Thermochemistry -
 -------------------
 Temperature   298.150 Kelvin.  Pressure   1.00000 Atm.
 Atom     1 has atomic number  6 and mass  12.00000

 Molecular mass:    70.05310 amu.
 Principal axes and moments of inertia in atomic units:
                           1         2         3
     Eigenvalues --   221.70944 424.35810 623.57908
           X            1.00000   0.00000  -0.00000
           Y           -0.00000   1.00000   0.00000
           Z            0.00000  -0.00000   1.00000
 This molecule is an asymmetric top.
 Rotational symmetry number  1.
 Rotational temperatures (Kelvin)      0.39066     0.20411     0.13890
 Rotational constants (GHZ):           8.14012     4.25287     2.89417
 Zero-point vibrational energy     234729.5 (Joules/Mol)
                                   56.10169 (Kcal/Mol)
 Warning -- explicit consideration of   6 degrees of freedom as
           vibrations may cause significant error
 Vibrational temperatures:    175.36   210.22   313.83   346.71   469.41
          (Kelvin)            753.84   900.24  1086.30  1429.97  1442.55
                             1493.20  1566.52  1823.22  2045.45  2051.16
                             2066.82  2132.23  2148.47  2169.14  2214.11
                             3127.55  4335.78  4342.15  4400.62  4404.38
                             4506.57  4507.05

 Zero-point correction=                           0.089404 (Hartree/Particle)
 Thermal correction to Energy=                    0.095631
 Thermal correction to Enthalpy=                  0.096575
 Thermal correction to Gibbs Free Energy=         0.060089
 Sum of electronic and zero-point Energies=           -227.293528
 Sum of electronic and thermal Energies=              -227.287301
 Sum of electronic and thermal Enthalpies=            -227.286357
 Sum of electronic and thermal Free Energies=         -227.322842

                     E (Thermal)             CV                S
                      KCal/Mol        Cal/Mol-Kelvin    Cal/Mol-Kelvin
 Total                   60.009             20.057             76.790
 Electronic               0.000              0.000              0.000
 Translational            0.889              2.981             38.657
 Rotational               0.889              2.981             25.576
 Vibrational             58.232             14.095             12.557
 Vibration     1          0.609              1.931              3.070
 Vibration     2          0.617              1.907              2.722
 Vibration     3          0.646              1.813              1.975
 Vibration     4          0.658              1.778              1.796
 Vibration     5          0.710              1.623              1.279
 Vibration     6          0.879              1.197              0.601

 Optimization completed.
    -- Stationary point found.
 Normal termination of Gaussian 09 at Thu Sep  8 15:14:47 2022.
