 Gaussian 09, Revision E.01,
 Gaussian 09:  ES64L-G09RevE.01 30-Nov-2015

 ----------------------------
 #P OPT Freq B3LYP/6-31G(d,p)
 ----------------------------

 ---------
 Frag_1162
 ---------
 Symbolic Z-matrix:
 Charge =  0 Multiplicity = 1

 SCF Done:  E(RB3LYP) =  -245.857599409     A.U. after   12 cycles
 SCF Done:  E(RB3LYP) =  -245.857622257     A.U. after    8 cycles
 SCF Done:  E(RB3LYP) =  -245.857624229     A.U. after    7 cycles
 SCF Done:  E(RB3LYP) =  -245.857624833     A.U. after    7 cycles
 SCF Done:  E(RB3LYP) =  -245.857624979     A.U. after    6 cycles
 Optimization completed.
    -- Stationary point found.
 Normal termination of Gaussian 09 at Thu Sep  8 14:47:58 2022.

 ----------------------------------------------------------------------
 #P Geom=AllCheck Guess=TCheck SCRF=Check GenChk RB3LYP/6-31G(d,p) Freq
 ----------------------------------------------------------------------

 Structure from the checkpoint file:  "B3LYP6-31Gdp.Frag_1162.chk"
 ---------
 Frag_1162
 ---------
 Charge =  0 Multiplicity = 1

                         Standard orientation:
 ---------------------------------------------------------------------
 Center     Atomic      Atomic             Coordinates (Angstroms)
 Number     Number       Type             X           Y           Z
 ---------------------------------------------------------------------
      1          6           0       -1.154161   -1.144989   -0.204228
      2          6           0       -0.525600    0.068045    0.480115
      3          7           0       -0.763192    1.265869   -0.345949
      4          7           0        0.907226   -0.150024    0.703164
      5          7           0        1.718443   -0.089622   -0.477047
      6          1           0       -2.238686   -1.025908   -0.298313
      7          1           0       -0.739931   -1.275198   -1.208554
      8          1           0       -0.952441   -2.046173    0.379085
      9          1           0       -0.953502    0.160207    1.492360
     10          1           0       -1.722316    1.292617   -0.682041
     11          1           0       -0.617900    2.111010    0.201745
     12          1           0        1.260480    0.570738    1.328019
     13          1           0        1.749193   -1.027175   -0.869588
     14          1           0        1.256333    0.517980   -1.159212
 ---------------------------------------------------------------------

 SCF Done:  E(RB3LYP) =  -245.857624979     A.U. after    1 cycles

 The electronic state is 1-A.
 Alpha  occ. eigenvalues --  -14.33067 -14.31951 -14.31818 -10.23711 -10.17566
 Alpha  occ. eigenvalues --   -0.95249  -0.87242  -0.75996  -0.71224  -0.58568
 Alpha  occ. eigenvalues --   -0.49393  -0.48808  -0.47875  -0.44886  -0.42798
 Alpha  occ. eigenvalues --   -0.37972  -0.36958  -0.35274  -0.24855  -0.23708
 Alpha  occ. eigenvalues --   -0.22620
 Alpha virt. eigenvalues --    0.06808   0.10138   0.12726   0.13745   0.14827
 Alpha virt. eigenvalues --    0.16601   0.18428   0.18934   0.19819   0.21137
 Alpha virt. eigenvalues --    0.24614   0.26935   0.28645   0.53397   0.54126

 Mulliken charges:
               1
     1  C   -0.309415
     2  C    0.154049
     3  N   -0.599972
     4  N   -0.379325
     5  N   -0.484533
     6  H    0.095594
     7  H    0.105793
     8  H    0.120984
     9  H    0.077877
    10  H    0.238167
    11  H    0.234656
    12  H    0.245156
    13  H    0.250112
    14  H    0.250856
 Sum of Mulliken charges =  -0.00000

 Dipole moment (field-independent basis, Debye):
    X=             -2.4691    Y=              0.8496    Z=              0.0877  Tot=              2.6126
 Quadrupole moment (field-independent basis, Debye-Ang):
   XX=            -34.5889   YY=            -29.5387   ZZ=            -31.3141
   XY=             -1.3567   XZ=             -0.4492   YZ=              3.4685

  Exact polarizability:  46.553  -0.907  44.024  -0.615   1.486  41.870
 Approx polarizability:  60.631  -2.141  57.830  -0.625   1.252  59.721

                      1                      2                      3
                      A                      A                      A
 Frequencies --    166.3511               221.0111               268.8223
 Red. masses --      2.4497                 1.0848                 1.1496
 Frc consts  --      0.0399                 0.0312                 0.0489
 IR Inten    --      2.0563                 9.2747                28.5140

                      4                      5                      6
                      A                      A                      A
 Frequencies --    307.0100               380.8647               425.6924
 Red. masses --      2.9610                 1.4144                 2.0274
 Frc consts  --      0.1644                 0.1209                 0.2165
 IR Inten    --      2.9728                22.6233                15.1580

                      7                      8                      9
                      A                      A                      A
 Frequencies --    476.9416               656.3646               765.9627
 Red. masses --      1.7254                 2.5100                 2.5576
 Frc consts  --      0.2312                 0.6371                 0.8841
 IR Inten    --     30.8321                29.5670               108.7041

                     10                     11                     12
                      A                      A                      A
 Frequencies --    847.3485               852.3204               951.2193
 Red. masses --      1.6420                 1.6386                 1.6580
 Frc consts  --      0.6946                 0.7013                 0.8839
 IR Inten    --     80.6656                12.6455                96.9814

                     13                     14                     15
                      A                      A                      A
 Frequencies --    974.1969              1046.9107              1074.6087
 Red. masses --      1.7963                 1.8035                 1.4053
 Frc consts  --      1.0045                 1.1646                 0.9561
 IR Inten    --      9.6194                 4.6841                21.3081

                     16                     17                     18
                      A                      A                      A
 Frequencies --   1119.5644              1204.8713              1258.9272
 Red. masses --      1.9966                 2.2536                 1.4308
 Frc consts  --      1.4744                 1.9275                 1.3360
 IR Inten    --     38.8471                83.3831                12.3222

                     19                     20                     21
                      A                      A                      A
 Frequencies --   1322.7017              1370.6480              1402.9441
 Red. masses --      1.1613                 1.2526                 1.2990
 Frc consts  --      1.1970                 1.3865                 1.5064
 IR Inten    --      1.9356                21.4082                 7.3657

                     22                     23                     24
                      A                      A                      A
 Frequencies --   1425.8389              1504.7291              1512.7876
 Red. masses --      1.3941                 1.0442                 1.1018
 Frc consts  --      1.6699                 1.3930                 1.4857
 IR Inten    --     18.1279                 4.5753                 1.9799

                     25                     26                     27
                      A                      A                      A
 Frequencies --   1516.3888              1659.9996              1684.5692
 Red. masses --      1.1767                 1.0966                 1.0606
 Frc consts  --      1.5942                 1.7804                 1.7732
 IR Inten    --      4.4647                30.0178                11.7137

                     28                     29                     30
                      A                      A                      A
 Frequencies --   2975.6249              3052.7530              3120.8341
 Red. masses --      1.0843                 1.0367                 1.1011
 Frc consts  --      5.6566                 5.6921                 6.3185
 IR Inten    --     73.3989                16.8908                27.9752

                     31                     32                     33
                      A                      A                      A
 Frequencies --   3146.1699              3411.8653              3492.1930
 Red. masses --      1.1026                 1.0523                 1.0500
 Frc consts  --      6.4301                 7.2170                 7.5443
 IR Inten    --     18.8681                13.2319                 0.9512

                     34                     35                     36
                      A                      A                      A
 Frequencies --   3502.8316              3543.6509              3581.4170
 Red. masses --      1.0753                 1.0885                 1.0932
 Frc consts  --      7.7737                 8.0533                 8.2614
 IR Inten    --      2.9052                 0.7414                 0.2130

 - Thermochemistry -
 -------------------
 Temperature   298.150 Kelvin.  Pressure   1.00000 Atm.
 Atom     1 has atomic number  6 and mass  12.00000

 Molecular mass:    75.07965 amu.
 Principal axes and moments of inertia in atomic units:
                           1         2         3
     Eigenvalues --   274.24874 430.70529 538.70377
           X            0.99966   0.02576  -0.00500
           Y           -0.02539   0.99771   0.06271
           Z            0.00660  -0.06256   0.99802
 This molecule is an asymmetric top.
 Rotational symmetry number  1.
 Rotational temperatures (Kelvin)      0.31582     0.20110     0.16078
 Rotational constants (GHZ):           6.58067     4.19020     3.35016
 Zero-point vibrational energy     336311.8 (Joules/Mol)
                                   80.38044 (Kcal/Mol)
 Warning -- explicit consideration of   7 degrees of freedom as
           vibrations may cause significant error
 Vibrational temperatures:    239.34   317.99   386.77   441.72   547.98
          (Kelvin)            612.48   686.21   944.36  1102.05  1219.14
                             1226.30  1368.59  1401.65  1506.27  1546.12
                             1610.80  1733.54  1811.31  1903.07  1972.05
                             2018.52  2051.46  2164.97  2176.56  2181.74
                             2388.37  2423.72  4281.26  4392.23  4490.18
                             4526.63  4908.91  5024.48  5039.79  5098.52
                             5152.85

 Zero-point correction=                           0.128094 (Hartree/Particle)
 Thermal correction to Energy=                    0.134397
 Thermal correction to Enthalpy=                  0.135341
 Thermal correction to Gibbs Free Energy=         0.099176
 Sum of electronic and zero-point Energies=           -245.729531
 Sum of electronic and thermal Energies=              -245.723228
 Sum of electronic and thermal Enthalpies=            -245.722284
 Sum of electronic and thermal Free Energies=         -245.758449

                     E (Thermal)             CV                S
                      KCal/Mol        Cal/Mol-Kelvin    Cal/Mol-Kelvin
 Total                   84.335             22.899             76.115
 Electronic               0.000              0.000              0.000
 Translational            0.889              2.981             38.864
 Rotational               0.889              2.981             25.657
 Vibrational             82.558             16.938             11.595
 Vibration     1          0.624              1.884              2.476
 Vibration     2          0.648              1.809              1.951
 Vibration     3          0.673              1.730              1.604
 Vibration     4          0.697              1.660              1.378
 Vibration     5          0.751              1.511              1.036
 Vibration     6          0.788              1.414              0.873
 Vibration     7          0.834              1.301              0.718

 Optimization completed.
    -- Stationary point found.
 Normal termination of Gaussian 09 at Thu Sep  8 14:48:08 2022.
