 Gaussian 09, Revision E.01,
 Gaussian 09:  ES64L-G09RevE.01 30-Nov-2015

 ----------------------------
 #P OPT Freq B3LYP/6-31G(d,p)
 ----------------------------

 ---------
 Frag_1078
 ---------
 Symbolic Z-matrix:
 Charge =  0 Multiplicity = 1

 SCF Done:  E(RB3LYP) =  -414.912715599     A.U. after   14 cycles
 SCF Done:  E(RB3LYP) =  -414.912745903     A.U. after   13 cycles
 SCF Done:  E(RB3LYP) =  -414.904768421     A.U. after   15 cycles
 SCF Done:  E(RB3LYP) =  -414.912820507     A.U. after   10 cycles
 SCF Done:  E(RB3LYP) =  -414.912862174     A.U. after   11 cycles
 SCF Done:  E(RB3LYP) =  -414.912863300     A.U. after    9 cycles
 SCF Done:  E(RB3LYP) =  -414.912862858     A.U. after    9 cycles
 SCF Done:  E(RB3LYP) =  -414.912862907     A.U. after    8 cycles
 SCF Done:  E(RB3LYP) =  -414.912862698     A.U. after    8 cycles
 SCF Done:  E(RB3LYP) =  -414.912862211     A.U. after    9 cycles
 SCF Done:  E(RB3LYP) =  -414.912862047     A.U. after    8 cycles
 Optimization completed.
    -- Stationary point found.
 Normal termination of Gaussian 09 at Thu Sep  8 14:50:12 2022.

 ----------------------------------------------------------------------
 #P Geom=AllCheck Guess=TCheck SCRF=Check GenChk RB3LYP/6-31G(d,p) Freq
 ----------------------------------------------------------------------

 Structure from the checkpoint file:  "B3LYP6-31Gdp.Frag_1078.chk"
 ---------
 Frag_1078
 ---------
 Charge =  0 Multiplicity = 1

                         Standard orientation:
 ---------------------------------------------------------------------
 Center     Atomic      Atomic             Coordinates (Angstroms)
 Number     Number       Type             X           Y           Z
 ---------------------------------------------------------------------
      1          6           0        1.308741    1.226543   -0.295943
      2          6           0        0.596606   -0.078658   -0.010087
      3          7           0        0.850786   -0.554434    1.321184
      4          8           0        0.839134   -0.969301   -1.055312
      5          7           0       -0.962214    0.141816   -0.000975
      6          8           0       -1.619626   -0.897939   -0.102212
      7          8           0       -1.418043    1.263659    0.125471
      8          1           0        2.384439    1.032083   -0.326475
      9          1           0        1.089653    1.958378    0.479838
     10          1           0        1.000741    1.615253   -1.267034
     11          1           0        0.431111   -1.469848    1.462665
     12          1           0        1.851474   -0.627896    1.477702
     13          1           0        0.178779   -1.678298   -0.975551
 ---------------------------------------------------------------------

 SCF Done:  E(RB3LYP) =  -414.912862047     A.U. after    1 cycles

 The electronic state is 1-A.
 Alpha  occ. eigenvalues --  -19.19697 -19.19412 -19.17546 -14.56838 -14.34996
 Alpha  occ. eigenvalues --  -10.33414 -10.19973  -1.23327  -1.07604  -1.05655
 Alpha  occ. eigenvalues --   -0.91769  -0.77776  -0.71155  -0.59750  -0.57883
 Alpha  occ. eigenvalues --   -0.55006  -0.52856  -0.51544  -0.48988  -0.44010
 Alpha  occ. eigenvalues --   -0.41587  -0.40891  -0.39317  -0.35445  -0.32096
 Alpha  occ. eigenvalues --   -0.30771  -0.29189  -0.27741
 Alpha virt. eigenvalues --   -0.07078   0.06388   0.08173   0.11126   0.12653
 Alpha virt. eigenvalues --    0.14325   0.16927   0.17464   0.21036   0.22837
 Alpha virt. eigenvalues --    0.26659   0.28209   0.37198   0.51557   0.53279

 Mulliken charges:
               1
     1  C   -0.307970
     2  C    0.401193
     3  N   -0.553756
     4  O   -0.509062
     5  N    0.473340
     6  O   -0.398397
     7  O   -0.357486
     8  H    0.122699
     9  H    0.149545
    10  H    0.140783
    11  H    0.257185
    12  H    0.262402
    13  H    0.319524
 Sum of Mulliken charges =  -0.00000

 Dipole moment (field-independent basis, Debye):
    X=              3.0259    Y=             -1.2340    Z=              0.4888  Tot=              3.3042
 Quadrupole moment (field-independent basis, Debye-Ang):
   XX=            -42.6881   YY=            -38.0522   ZZ=            -41.4817
   XY=              1.2296   XZ=              2.9315   YZ=             -2.6394

  Exact polarizability:  47.672   1.960  51.599   1.170   0.027  37.400
 Approx polarizability:  65.839   3.894  94.253   0.915   4.347  53.592

                      1                      2                      3
                      A                      A                      A
 Frequencies --     50.3088               192.7308               253.8454
 Red. masses --      7.5702                 1.0578                 1.4511
 Frc consts  --      0.0113                 0.0231                 0.0551
 IR Inten    --      1.5109                 4.5118                15.6002

                      4                      5                      6
                      A                      A                      A
 Frequencies --    276.8037               305.8787               380.7811
 Red. masses --      2.6850                 2.7742                 4.1608
 Frc consts  --      0.1212                 0.1529                 0.3554
 IR Inten    --     16.0680                 9.1643                31.3811

                      7                      8                      9
                      A                      A                      A
 Frequencies --    400.0793               421.9221               490.6029
 Red. masses --      3.2489                 3.9682                 1.2688
 Frc consts  --      0.3064                 0.4162                 0.1799
 IR Inten    --      7.3457                16.9454               128.0933

                     10                     11                     12
                      A                      A                      A
 Frequencies --    562.5490               599.0513               757.8758
 Red. masses --      3.1318                 2.5423                 8.9299
 Frc consts  --      0.5839                 0.5375                 3.0220
 IR Inten    --     10.6109                76.3727                17.1492

                     13                     14                     15
                      A                      A                      A
 Frequencies --    813.6982               848.2296               896.0710
 Red. masses --      2.4184                10.2398                 2.2408
 Frc consts  --      0.9434                 4.3408                 1.0601
 IR Inten    --     93.4387                30.8860                57.3317

                     16                     17                     18
                      A                      A                      A
 Frequencies --    995.4191              1028.5528              1181.4274
 Red. masses --      1.6437                 1.5485                 1.7484
 Frc consts  --      0.9596                 0.9652                 1.4378
 IR Inten    --     13.4485                29.9378                20.4714

                     19                     20                     21
                      A                      A                      A
 Frequencies --   1217.1141              1269.3611              1406.9168
 Red. masses --      2.0776                 2.2541                 1.5319
 Frc consts  --      1.8133                 2.1399                 1.7865
 IR Inten    --    198.4953               121.8102                30.0669

                     22                     23                     24
                      A                      A                      A
 Frequencies --   1426.3967              1470.6783              1497.0791
 Red. masses --      4.5049                 1.8912                 1.0501
 Frc consts  --      5.4002                 2.4101                 1.3866
 IR Inten    --     58.1072                58.3258                 1.9354

                     25                     26                     27
                      A                      A                      A
 Frequencies --   1499.3026              1651.6296              1679.6006
 Red. masses --      1.0964                 1.3029                 4.8147
 Frc consts  --      1.4521                 2.0941                 8.0026
 IR Inten    --      2.1799               122.6887               148.6953

                     28                     29                     30
                      A                      A                      A
 Frequencies --   3079.4094              3158.4913              3192.8616
 Red. masses --      1.0393                 1.0988                 1.1048
 Frc consts  --      5.8064                 6.4585                 6.6357
 IR Inten    --      6.3030                 6.8136                 3.4576

                     31                     32                     33
                      A                      A                      A
 Frequencies --   3512.3655              3608.7563              3736.9836
 Red. masses --      1.0490                 1.0941                 1.0643
 Frc consts  --      7.6247                 8.3953                 8.7567
 IR Inten    --      5.0062                 7.3484                45.9419

 - Thermochemistry -
 -------------------
 Temperature   298.150 Kelvin.  Pressure   1.00000 Atm.
 Atom     1 has atomic number  6 and mass  12.00000

 Molecular mass:   106.03784 amu.
 Principal axes and moments of inertia in atomic units:
                           1         2         3
     Eigenvalues --   499.24389 698.43709 835.13187
           X            0.99697   0.07631   0.01492
           Y           -0.07505   0.99455  -0.07234
           Z           -0.02036   0.07100   0.99727
 This molecule is an asymmetric top.
 Rotational symmetry number  1.
 Warning -- assumption of classical behavior for rotation
           may cause significant error
 Rotational temperatures (Kelvin)      0.17349     0.12401     0.10371
 Rotational constants (GHZ):           3.61495     2.58397     2.16103
 Zero-point vibrational energy     262357.6 (Joules/Mol)
                                   62.70498 (Kcal/Mol)
 Warning -- explicit consideration of  11 degrees of freedom as
           vibrations may cause significant error
 Vibrational temperatures:     72.38   277.30   365.23   398.26   440.09
          (Kelvin)            547.86   575.62   607.05   705.87   809.38
                              861.90  1090.41  1170.73  1220.41  1289.24
                             1432.18  1479.86  1699.81  1751.15  1826.33
                             2024.24  2052.26  2115.98  2153.96  2157.16
                             2376.32  2416.57  4430.58  4544.36  4593.81
                             5053.50  5192.19  5376.68

 Zero-point correction=                           0.099927 (Hartree/Particle)
 Thermal correction to Energy=                    0.107447
 Thermal correction to Enthalpy=                  0.108391
 Thermal correction to Gibbs Free Energy=         0.068302
 Sum of electronic and zero-point Energies=           -414.812935
 Sum of electronic and thermal Energies=              -414.805415
 Sum of electronic and thermal Enthalpies=            -414.804471
 Sum of electronic and thermal Free Energies=         -414.844560

                     E (Thermal)             CV                S
                      KCal/Mol        Cal/Mol-Kelvin    Cal/Mol-Kelvin
 Total                   67.424             26.997             84.374
 Electronic               0.000              0.000              0.000
 Translational            0.889              2.981             39.893
 Rotational               0.889              2.981             27.168
 Vibrational             65.647             21.036             17.313
 Vibration     1          0.595              1.977              4.805
 Vibration     2          0.635              1.850              2.201
 Vibration     3          0.665              1.756              1.704
 Vibration     4          0.678              1.716              1.553
 Vibration     5          0.696              1.663              1.385
 Vibration     6          0.751              1.511              1.036
 Vibration     7          0.766              1.470              0.962
 Vibration     8          0.784              1.423              0.885
 Vibration     9          0.846              1.271              0.682
 Vibration    10          0.918              1.112              0.519
 Vibration    11          0.957              1.034              0.451

 Normal termination of Gaussian 09 at Thu Sep  8 14:50:24 2022.
