 Gaussian 09, Revision E.01,
 Gaussian 09:  ES64L-G09RevE.01 30-Nov-2015

 ----------------------------
 #P OPT Freq B3LYP/6-31G(d,p)
 ----------------------------

 --------
 Frag_760
 --------
 Symbolic Z-matrix:
 Charge =  0 Multiplicity = 1

 SCF Done:  E(RB3LYP) =  -305.506597740     A.U. after   12 cycles
 SCF Done:  E(RB3LYP) =  -305.506653988     A.U. after    8 cycles
 SCF Done:  E(RB3LYP) =  -305.506657422     A.U. after    8 cycles
 SCF Done:  E(RB3LYP) =  -305.506658419     A.U. after    7 cycles
 SCF Done:  E(RB3LYP) =  -305.506659540     A.U. after    7 cycles
 SCF Done:  E(RB3LYP) =  -305.506660700     A.U. after    7 cycles
 SCF Done:  E(RB3LYP) =  -305.506661263     A.U. after    7 cycles
 SCF Done:  E(RB3LYP) =  -305.506661422     A.U. after    7 cycles
 Optimization completed.
    -- Stationary point found.
 Normal termination of Gaussian 09 at Thu Sep  8 15:24:13 2022.

 ----------------------------------------------------------------------
 #P Geom=AllCheck Guess=TCheck SCRF=Check GenChk RB3LYP/6-31G(d,p) Freq
 ----------------------------------------------------------------------

 Structure from the checkpoint file:  "B3LYP6-31Gdp.Frag_760.chk"
 --------
 Frag_760
 --------
 Charge =  0 Multiplicity = 1

                         Standard orientation:
 ---------------------------------------------------------------------
 Center     Atomic      Atomic             Coordinates (Angstroms)
 Number     Number       Type             X           Y           Z
 ---------------------------------------------------------------------
      1          6           0       -1.504671   -0.183972    0.050822
      2          6           0        0.003691   -0.000943   -0.018871
      3          8           0        0.248450    1.286606   -0.525817
      4          8           0        0.626987   -0.157373    1.247072
      5          8           0        0.579464   -0.981058   -0.836741
      6          1           0       -1.730835   -1.141981    0.521868
      7          1           0       -1.957190    0.623508    0.632568
      8          1           0       -1.924592   -0.166740   -0.956923
      9          1           0        1.158612    1.278864   -0.856281
     10          1           0        0.498722    0.673699    1.723646
     11          1           0        1.321961   -1.343252   -0.332703
 ---------------------------------------------------------------------

 SCF Done:  E(RB3LYP) =  -305.506661422     A.U. after    1 cycles

 The electronic state is 1-A.
 Alpha  occ. eigenvalues --  -19.15830 -19.15431 -19.15372 -10.33641 -10.17491
 Alpha  occ. eigenvalues --   -1.10011  -1.00270  -0.99881  -0.74145  -0.61208
 Alpha  occ. eigenvalues --   -0.55692  -0.54174  -0.45891  -0.42833  -0.39335
 Alpha  occ. eigenvalues --   -0.38404  -0.37198  -0.36578  -0.31764  -0.29073
 Alpha  occ. eigenvalues --   -0.28185
 Alpha virt. eigenvalues --    0.06827   0.10153   0.11192   0.14714   0.16587
 Alpha virt. eigenvalues --    0.17623   0.23388   0.25662   0.25788   0.27536
 Alpha virt. eigenvalues --    0.56994   0.57102   0.57565   0.60317   0.61184

 Mulliken charges:
               1
     1  C   -0.307452
     2  C    0.641402
     3  O   -0.520682
     4  O   -0.556468
     5  O   -0.540409
     6  H    0.118435
     7  H    0.104900
     8  H    0.126484
     9  H    0.301796
    10  H    0.313705
    11  H    0.318290
 Sum of Mulliken charges =  -0.00000

 Dipole moment (field-independent basis, Debye):
    X=              0.9667    Y=              0.5243    Z=              1.0311  Tot=              1.5076
 Quadrupole moment (field-independent basis, Debye-Ang):
   XX=            -25.6212   YY=            -30.3113   ZZ=            -30.3194
   XY=              0.9075   XZ=             -1.4354   YZ=              1.2386

  Exact polarizability:  34.059  -0.653  32.310  -0.493   0.724  31.535
 Approx polarizability:  42.264  -2.507  44.801   0.098   1.064  43.420

                      1                      2                      3
                      A                      A                      A
 Frequencies --    182.7016               210.2872               252.2744
 Red. masses --      1.2001                 1.2904                 1.0438
 Frc consts  --      0.0236                 0.0336                 0.0391
 IR Inten    --    168.5867                33.7866                 4.9574

                      4                      5                      6
                      A                      A                      A
 Frequencies --    345.0129               385.7267               405.9951
 Red. masses --      1.3843                 2.7224                 1.6376
 Frc consts  --      0.0971                 0.2386                 0.1590
 IR Inten    --     13.2041                 3.8895                58.0178

                      7                      8                      9
                      A                      A                      A
 Frequencies --    527.6949               543.7758               564.5965
 Red. masses --      3.5633                 3.5196                 3.9014
 Frc consts  --      0.5846                 0.6132                 0.7327
 IR Inten    --     13.9720                31.0190                33.5082

                     10                     11                     12
                      A                      A                      A
 Frequencies --    819.5152               948.5970               972.7426
 Red. masses --      5.4423                 2.2940                 2.0753
 Frc consts  --      2.1535                 1.2162                 1.1570
 IR Inten    --      3.6745                98.6123                73.4350

                     13                     14                     15
                      A                      A                      A
 Frequencies --   1058.5292              1116.1208              1161.0771
 Red. masses --      1.9371                 1.5995                 1.8352
 Frc consts  --      1.2788                 1.1740                 1.4577
 IR Inten    --     87.3715               121.5633               160.1663

                     16                     17                     18
                      A                      A                      A
 Frequencies --   1324.5736              1350.6777              1405.2290
 Red. masses --      1.5915                 1.7236                 1.3158
 Frc consts  --      1.6451                 1.8526                 1.5309
 IR Inten    --    136.2918               135.7071                46.7365

                     19                     20                     21
                      A                      A                      A
 Frequencies --   1469.4062              1497.0359              1506.7909
 Red. masses --      1.8894                 1.0591                 1.0922
 Frc consts  --      2.4036                 1.3985                 1.4610
 IR Inten    --     94.4594                 0.8504                10.6103

                     22                     23                     24
                      A                      A                      A
 Frequencies --   3069.9097              3148.6311              3164.4263
 Red. masses --      1.0355                 1.1026                 1.1046
 Frc consts  --      5.7498                 6.4404                 6.5172
 IR Inten    --      8.0706                18.0293                14.6247

                     25                     26                     27
                      A                      A                      A
 Frequencies --   3797.1328              3807.7906              3828.5590
 Red. masses --      1.0652                 1.0657                 1.0654
 Frc consts  --      9.0486                 9.1041                 9.2010
 IR Inten    --     23.0915                45.2041                35.8381

 - Thermochemistry -
 -------------------
 Temperature   298.150 Kelvin.  Pressure   1.00000 Atm.
 Atom     1 has atomic number  6 and mass  12.00000

 Molecular mass:    78.03169 amu.
 Principal axes and moments of inertia in atomic units:
                           1         2         3
     Eigenvalues --   335.56131 356.61054 364.91698
           X            0.97279   0.21310  -0.09094
           Y           -0.19904   0.96954   0.14276
           Z            0.11859  -0.12078   0.98557
 This molecule is an asymmetric top.
 Rotational symmetry number  1.
 Rotational temperatures (Kelvin)      0.25812     0.24288     0.23735
 Rotational constants (GHZ):           5.37828     5.06082     4.94562
 Zero-point vibrational energy     232463.2 (Joules/Mol)
                                   55.56003 (Kcal/Mol)
 Warning -- explicit consideration of   9 degrees of freedom as
           vibrations may cause significant error
 Vibrational temperatures:    262.87   302.56   362.97   496.40   554.97
          (Kelvin)            584.14   759.23   782.37   812.33  1179.10
                             1364.82  1399.56  1522.99  1605.85  1670.53
                             1905.76  1943.32  2021.81  2114.15  2153.90
                             2167.93  4416.91  4530.17  4552.90  5463.22
                             5478.55  5508.44

 Zero-point correction=                           0.088541 (Hartree/Particle)
 Thermal correction to Energy=                    0.094835
 Thermal correction to Enthalpy=                  0.095779
 Thermal correction to Gibbs Free Energy=         0.059754
 Sum of electronic and zero-point Energies=           -305.418121
 Sum of electronic and thermal Energies=              -305.411826
 Sum of electronic and thermal Enthalpies=            -305.410882
 Sum of electronic and thermal Free Energies=         -305.446907

                     E (Thermal)             CV                S
                      KCal/Mol        Cal/Mol-Kelvin    Cal/Mol-Kelvin
 Total                   59.510             22.280             75.822
 Electronic               0.000              0.000              0.000
 Translational            0.889              2.981             38.979
 Rotational               0.889              2.981             25.282
 Vibrational             57.732             16.318             11.560
 Vibration     1          0.630              1.863              2.301
 Vibration     2          0.642              1.825              2.041
 Vibration     3          0.664              1.759              1.715
 Vibration     4          0.723              1.585              1.189
 Vibration     5          0.754              1.501              1.017
 Vibration     6          0.771              1.457              0.941
 Vibration     7          0.883              1.189              0.592
 Vibration     8          0.899              1.153              0.557
 Vibration     9          0.920              1.108              0.515

 Normal termination of Gaussian 09 at Thu Sep  8 15:24:21 2022.
