 Gaussian 09, Revision E.01,
 Gaussian 09:  ES64L-G09RevE.01 30-Nov-2015

 ----------------------------
 #P OPT Freq B3LYP/6-31G(d,p)
 ----------------------------

 ---------
 Frag_1101
 ---------
 Symbolic Z-matrix:
 Charge =  0 Multiplicity = 1

 SCF Done:  E(RB3LYP) =  -380.292151573     A.U. after   13 cycles
 SCF Done:  E(RB3LYP) =  -380.292210806     A.U. after    8 cycles
 SCF Done:  E(RB3LYP) =  -380.292217965     A.U. after    8 cycles
 SCF Done:  E(RB3LYP) =  -380.292220268     A.U. after    7 cycles
 SCF Done:  E(RB3LYP) =  -380.292221731     A.U. after    7 cycles
 SCF Done:  E(RB3LYP) =  -380.292222460     A.U. after    7 cycles
 SCF Done:  E(RB3LYP) =  -380.292222700     A.U. after    7 cycles
 SCF Done:  E(RB3LYP) =  -380.292222772     A.U. after    6 cycles
 Optimization completed.
    -- Stationary point found.
 Normal termination of Gaussian 09 at Thu Sep  8 14:53:37 2022.

 ----------------------------------------------------------------------
 #P Geom=AllCheck Guess=TCheck SCRF=Check GenChk RB3LYP/6-31G(d,p) Freq
 ----------------------------------------------------------------------

 Structure from the checkpoint file:  "B3LYP6-31Gdp.Frag_1101.chk"
 ---------
 Frag_1101
 ---------
 Charge =  0 Multiplicity = 1

                         Standard orientation:
 ---------------------------------------------------------------------
 Center     Atomic      Atomic             Coordinates (Angstroms)
 Number     Number       Type             X           Y           Z
 ---------------------------------------------------------------------
      1          6           0       -1.524177   -1.155543   -0.049617
      2          7           0       -0.784363    0.054882   -0.415855
      3          6           0       -1.508787    1.241195    0.055722
      4          6           0        0.616274    0.012337   -0.003206
      5          7           0        1.243088    1.258615   -0.348630
      6          8           0        1.217604   -1.133142   -0.612666
      7          8           0        0.834155   -0.158107    1.377234
      8          1           0       -1.692084   -1.237381    1.037619
      9          1           0       -0.989629   -2.045663   -0.383916
     10          1           0       -2.501382   -1.135755   -0.540596
     11          1           0       -1.629193    1.248226    1.150859
     12          1           0       -2.503012    1.245298   -0.401882
     13          1           0       -0.979455    2.146639   -0.234012
     14          1           0        2.216032    1.211682   -0.063264
     15          1           0        1.199718    1.395727   -1.354108
     16          1           0        0.872918   -1.168840   -1.516354
     17          1           0        0.881092   -1.112360    1.523113
 ---------------------------------------------------------------------

 SCF Done:  E(RB3LYP) =  -380.292222772     A.U. after    1 cycles

 The electronic state is 1-A.
 Alpha  occ. eigenvalues --  -19.15183 -19.14630 -14.32747 -14.31650 -10.33323
 Alpha  occ. eigenvalues --  -10.20130 -10.19148  -1.07761  -0.99208  -0.91112
 Alpha  occ. eigenvalues --   -0.86837  -0.69692  -0.66965  -0.59393  -0.54257
 Alpha  occ. eigenvalues --   -0.52252  -0.48193  -0.45199  -0.44228  -0.42783
 Alpha  occ. eigenvalues --   -0.39527  -0.38302  -0.37579  -0.35829  -0.35414
 Alpha  occ. eigenvalues --   -0.31265  -0.29831  -0.24760  -0.22235
 Alpha virt. eigenvalues --    0.06651   0.10566   0.11386   0.12935   0.14960
 Alpha virt. eigenvalues --    0.15646   0.16986   0.17216   0.18430   0.19547
 Alpha virt. eigenvalues --    0.20707   0.24071   0.25457   0.28252   0.29517

 Mulliken charges:
               1
     1  C   -0.174247
     2  N   -0.447298
     3  C   -0.155959
     4  C    0.706589
     5  N   -0.582257
     6  O   -0.565477
     7  O   -0.535160
     8  H    0.093736
     9  H    0.107064
    10  H    0.108428
    11  H    0.101088
    12  H    0.095272
    13  H    0.130395
    14  H    0.255984
    15  H    0.239744
    16  H    0.304677
    17  H    0.317421
 Sum of Mulliken charges =   0.00000

 Dipole moment (field-independent basis, Debye):
    X=             -0.3524    Y=             -0.9731    Z=             -1.6209  Tot=              1.9231
 Quadrupole moment (field-independent basis, Debye-Ang):
   XX=            -41.0302   YY=            -42.8205   ZZ=            -41.2953
   XY=              1.4606   XZ=             -2.1246   YZ=             -2.5629

  Exact polarizability:  56.376   1.218  54.878  -0.047  -0.934  49.161
 Approx polarizability:  71.432   0.222  73.816   1.627  -0.745  72.154

                      1                      2                      3
                      A                      A                      A
 Frequencies --     90.9234               187.5088               223.6576
 Red. masses --      2.9857                 1.2231                 1.2425
 Frc consts  --      0.0145                 0.0253                 0.0366
 IR Inten    --      0.8946                 0.4944                 4.2083

                      4                      5                      6
                      A                      A                      A
 Frequencies --    267.0733               277.0160               296.6770
 Red. masses --      1.3503                 1.6896                 1.1088
 Frc consts  --      0.0567                 0.0764                 0.0575
 IR Inten    --     27.4888                 9.0604                84.3811

                      7                      8                      9
                      A                      A                      A
 Frequencies --    329.7579               410.2198               415.2290
 Red. masses --      2.5930                 2.0559                 1.4261
 Frc consts  --      0.1661                 0.2038                 0.1449
 IR Inten    --     16.0099                 8.9516                74.6148

                     10                     11                     12
                      A                      A                      A
 Frequencies --    429.1586               465.7459               539.0078
 Red. masses --      3.5311                 2.1365                 2.7568
 Frc consts  --      0.3832                 0.2731                 0.4719
 IR Inten    --     25.4531                34.2164                18.4087

                     13                     14                     15
                      A                      A                      A
 Frequencies --    579.9405               603.5580               756.2255
 Red. masses --      4.9149                 3.7651                 3.8357
 Frc consts  --      0.9739                 0.8081                 1.2924
 IR Inten    --     16.3792                22.1728                32.4182

                     16                     17                     18
                      A                      A                      A
 Frequencies --    849.9011               936.0029               997.7753
 Red. masses --      1.7928                 3.0664                 2.5168
 Frc consts  --      0.7630                 1.5828                 1.4763
 IR Inten    --    103.3053                89.9155                91.8896

                     19                     20                     21
                      A                      A                      A
 Frequencies --   1021.8053              1067.4238              1123.6713
 Red. masses --      3.1343                 1.5508                 1.2454
 Frc consts  --      1.9281                 1.0410                 0.9265
 IR Inten    --    153.1425                13.5608                 2.2705

                     22                     23                     24
                      A                      A                      A
 Frequencies --   1165.5053              1194.6275              1213.5489
 Red. masses --      1.5600                 1.4614                 2.1345
 Frc consts  --      1.2486                 1.2288                 1.8521
 IR Inten    --    159.1679                 8.5283               155.5415

                     25                     26                     27
                      A                      A                      A
 Frequencies --   1242.5504              1302.6105              1377.9422
 Red. masses --      2.4331                 2.2139                 1.7949
 Frc consts  --      2.2133                 2.2133                 2.0080
 IR Inten    --      7.6347                38.5828               146.2924

                     28                     29                     30
                      A                      A                      A
 Frequencies --   1401.2595              1447.1089              1481.7952
 Red. masses --      1.8491                 1.1818                 1.1949
 Frc consts  --      2.1392                 1.4581                 1.5458
 IR Inten    --    108.0896                10.8413                28.9326

                     31                     32                     33
                      A                      A                      A
 Frequencies --   1496.0240              1515.7968              1521.5793
 Red. masses --      1.0549                 1.0663                 1.0488
 Frc consts  --      1.3910                 1.4434                 1.4306
 IR Inten    --      5.0143                 2.2570                 5.0379

                     34                     35                     36
                      A                      A                      A
 Frequencies --   1539.8652              1642.1273              2977.5498
 Red. masses --      1.0566                 1.1218                 1.0567
 Frc consts  --      1.4761                 1.7823                 5.5199
 IR Inten    --     17.7877                47.9531                52.8648

                     37                     38                     39
                      A                      A                      A
 Frequencies --   2994.9687              3088.1166              3092.3627
 Red. masses --      1.0546                 1.0869                 1.0795
 Frc consts  --      5.5736                 6.1071                 6.0823
 IR Inten    --     67.4423                17.1983                54.5142

                     40                     41                     42
                      A                      A                      A
 Frequencies --   3149.0841              3178.3915              3522.9857
 Red. masses --      1.1000                 1.0964                 1.0490
 Frc consts  --      6.4268                 6.5257                 7.6711
 IR Inten    --     19.3153                11.5956                 4.0251

                     43                     44                     45
                      A                      A                      A
 Frequencies --   3622.0943              3803.4682              3829.4406
 Red. masses --      1.0940                 1.0654                 1.0652
 Frc consts  --      8.4561                 9.0809                 9.2034
 IR Inten    --      4.7196                20.4156                38.8175

 - Thermochemistry -
 -------------------
 Temperature   298.150 Kelvin.  Pressure   1.00000 Atm.
 Atom     1 has atomic number  6 and mass  12.00000

 Molecular mass:   106.07423 amu.
 Principal axes and moments of inertia in atomic units:
                           1         2         3
     Eigenvalues --   530.53786 724.35310 897.62032
           X            0.99908   0.03584  -0.02345
           Y           -0.03650   0.99893  -0.02832
           Z            0.02241   0.02915   0.99932
 This molecule is an asymmetric top.
 Rotational symmetry number  1.
 Warning -- assumption of classical behavior for rotation
           may cause significant error
 Rotational temperatures (Kelvin)      0.16326     0.11957     0.09649
 Rotational constants (GHZ):           3.40172     2.49152     2.01058
 Zero-point vibrational energy     386807.0 (Joules/Mol)
                                   92.44909 (Kcal/Mol)
 Warning -- explicit consideration of  14 degrees of freedom as
           vibrations may cause significant error
 Vibrational temperatures:    130.82   269.78   321.79   384.26   398.56
          (Kelvin)            426.85   474.45   590.21   597.42   617.46
                              670.10   775.51   834.40   868.38  1088.04
                             1222.82  1346.70  1435.57  1470.15  1535.78
                             1616.71  1676.90  1718.80  1746.02  1787.75
                             1874.16  1982.55  2016.10  2082.06  2131.97
                             2152.44  2180.89  2189.21  2215.52  2362.65
                             4284.02  4309.09  4443.11  4449.21  4530.82
                             4572.99  5068.78  5211.38  5472.34  5509.70

 Zero-point correction=                           0.147327 (Hartree/Particle)
 Thermal correction to Energy=                    0.155843
 Thermal correction to Enthalpy=                  0.156787
 Thermal correction to Gibbs Free Energy=         0.115447
 Sum of electronic and zero-point Energies=           -380.144896
 Sum of electronic and thermal Energies=              -380.136380
 Sum of electronic and thermal Enthalpies=            -380.135435
 Sum of electronic and thermal Free Energies=         -380.176776

                     E (Thermal)             CV                S
                      KCal/Mol        Cal/Mol-Kelvin    Cal/Mol-Kelvin
 Total                   97.793             31.934             87.008
 Electronic               0.000              0.000              0.000
 Translational            0.889              2.981             39.894
 Rotational               0.889              2.981             27.336
 Vibrational             96.016             25.973             19.778
 Vibration     1          0.602              1.956              3.640
 Vibration     2          0.632              1.857              2.252
 Vibration     3          0.649              1.805              1.929
 Vibration     4          0.672              1.734              1.615
 Vibration     5          0.678              1.716              1.552
 Vibration     6          0.690              1.680              1.436
 Vibration     7          0.713              1.616              1.261
 Vibration     8          0.774              1.448              0.926
 Vibration     9          0.779              1.437              0.908
 Vibration    10          0.791              1.407              0.861
 Vibration    11          0.823              1.326              0.750
 Vibration    12          0.894              1.164              0.567
 Vibration    13          0.937              1.075              0.485
 Vibration    14          0.962              1.024              0.444

 Optimization completed.
    -- Stationary point found.
 Normal termination of Gaussian 09 at Thu Sep  8 14:53:53 2022.
