 Gaussian 09, Revision E.01,
 Gaussian 09:  ES64L-G09RevE.01 30-Nov-2015

 ----------------------------
 #P OPT Freq B3LYP/6-31G(d,p)
 ----------------------------

 --------
 Frag_798
 --------
 Symbolic Z-matrix:
 Charge =  0 Multiplicity = 1

 SCF Done:  E(RB3LYP) =  -245.890465174     A.U. after   12 cycles
 SCF Done:  E(RB3LYP) =  -245.890483304     A.U. after    8 cycles
 SCF Done:  E(RB3LYP) =  -245.890489107     A.U. after    7 cycles
 SCF Done:  E(RB3LYP) =  -245.890488998     A.U. after    7 cycles
 SCF Done:  E(RB3LYP) =  -245.890495915     A.U. after    9 cycles
 SCF Done:  E(RB3LYP) =  -245.890513402     A.U. after    9 cycles
 SCF Done:  E(RB3LYP) =  -245.890525284     A.U. after    9 cycles
 SCF Done:  E(RB3LYP) =  -245.890522046     A.U. after    9 cycles
 SCF Done:  E(RB3LYP) =  -245.890523480     A.U. after    8 cycles
 SCF Done:  E(RB3LYP) =  -245.890524960     A.U. after    7 cycles
 SCF Done:  E(RB3LYP) =  -245.890525519     A.U. after    7 cycles
 Optimization completed.
    -- Stationary point found.
 Normal termination of Gaussian 09 at Thu Sep  8 15:00:11 2022.

 ----------------------------------------------------------------------
 #P Geom=AllCheck Guess=TCheck SCRF=Check GenChk RB3LYP/6-31G(d,p) Freq
 ----------------------------------------------------------------------

 Structure from the checkpoint file:  "B3LYP6-31Gdp.Frag_798.chk"
 --------
 Frag_798
 --------
 Charge =  0 Multiplicity = 1

                         Standard orientation:
 ---------------------------------------------------------------------
 Center     Atomic      Atomic             Coordinates (Angstroms)
 Number     Number       Type             X           Y           Z
 ---------------------------------------------------------------------
      1          6           0       -1.471719   -0.316678   -0.269886
      2          6           0        0.009658   -0.006089   -0.017831
      3          7           0        0.294551   -0.308702    1.403109
      4          7           0        0.269056    1.375835   -0.447249
      5          7           0        0.836260   -0.873166   -0.858485
      6          1           0       -1.707943   -0.116394   -1.315817
      7          1           0       -1.668339   -1.368657   -0.053535
      8          1           0       -2.123979    0.292315    0.368549
      9          1           0        1.253271   -0.036078    1.618069
     10          1           0       -0.308630    0.245014    2.010195
     11          1           0        1.177354    1.676372   -0.094641
     12          1           0       -0.418201    1.997033   -0.027089
     13          1           0        1.075559   -1.709692   -0.334079
     14          1           0        1.694208   -0.401082   -1.126966
 ---------------------------------------------------------------------

 SCF Done:  E(RB3LYP) =  -245.890525519     A.U. after    1 cycles

 The electronic state is 1-A.
 Alpha  occ. eigenvalues --  -14.31285 -14.31084 -14.30133 -10.26468 -10.16479
 Alpha  occ. eigenvalues --   -0.93906  -0.83474  -0.82851  -0.71070  -0.57358
 Alpha  occ. eigenvalues --   -0.50438  -0.49539  -0.46624  -0.44697  -0.40942
 Alpha  occ. eigenvalues --   -0.36830  -0.36614  -0.35135  -0.29084  -0.23233
 Alpha  occ. eigenvalues --   -0.21928
 Alpha virt. eigenvalues --    0.05831   0.11731   0.12085   0.13185   0.15724
 Alpha virt. eigenvalues --    0.16462   0.17649   0.19283   0.20109   0.23608
 Alpha virt. eigenvalues --    0.26540   0.26973   0.30316   0.54896   0.56516

 Mulliken charges:
               1
     1  C   -0.278271
     2  C    0.316373
     3  N   -0.574729
     4  N   -0.570246
     5  N   -0.572897
     6  H    0.129005
     7  H    0.115909
     8  H    0.076001
     9  H    0.214037
    10  H    0.222938
    11  H    0.217253
    12  H    0.230643
    13  H    0.242500
    14  H    0.231484
 Sum of Mulliken charges =  -0.00000

 Dipole moment (field-independent basis, Debye):
    X=              1.0337    Y=              1.5465    Z=              2.1483  Tot=              2.8417
 Quadrupole moment (field-independent basis, Debye-Ang):
   XX=            -27.2553   YY=            -31.5184   ZZ=            -35.7515
   XY=             -0.4446   XZ=              0.1770   YZ=              3.2431

  Exact polarizability:  46.838  -0.723  43.172  -1.311   0.913  41.274
 Approx polarizability:  61.697  -1.676  58.452  -3.070   0.600  56.211

                      1                      2                      3
                      A                      A                      A
 Frequencies --    107.2208               216.5399               274.5594
 Red. masses --      1.0680                 1.0255                 1.0340
 Frc consts  --      0.0072                 0.0283                 0.0459
 IR Inten    --     31.5438                 4.6978                 5.2887

                      4                      5                      6
                      A                      A                      A
 Frequencies --    341.2633               365.4925               381.1003
 Red. masses --      1.1992                 2.4669                 2.3250
 Frc consts  --      0.0823                 0.1942                 0.1990
 IR Inten    --     63.6008                 8.0807                 7.1090

                      7                      8                      9
                      A                      A                      A
 Frequencies --    484.6528               494.3997               517.1312
 Red. masses --      2.3490                 2.9318                 2.5480
 Frc consts  --      0.3251                 0.4222                 0.4015
 IR Inten    --      5.2232                10.4798                32.9674

                     10                     11                     12
                      A                      A                      A
 Frequencies --    779.8001               791.0532               834.0060
 Red. masses --      4.1968                 1.5089                 1.3836
 Frc consts  --      1.5036                 0.5563                 0.5670
 IR Inten    --     29.8305               225.8586               274.5329

                     13                     14                     15
                      A                      A                      A
 Frequencies --    885.9184               932.6759              1006.9379
 Red. masses --      1.8953                 1.7668                 1.3432
 Frc consts  --      0.8764                 0.9055                 0.8024
 IR Inten    --      3.7943                 0.5138                 8.5693

                     16                     17                     18
                      A                      A                      A
 Frequencies --   1015.9669              1080.7656              1179.5761
 Red. masses --      1.6854                 1.3807                 1.2444
 Frc consts  --      1.0250                 0.9502                 1.0202
 IR Inten    --     12.1378                26.4645                 6.0307

                     19                     20                     21
                      A                      A                      A
 Frequencies --   1220.7851              1324.7759              1398.9585
 Red. masses --      2.5455                 1.9249                 1.3441
 Frc consts  --      2.2351                 1.9904                 1.5499
 IR Inten    --     93.7973                48.2131                 2.1219

                     22                     23                     24
                      A                      A                      A
 Frequencies --   1438.2420              1500.7421              1504.4637
 Red. masses --      1.9393                 1.0485                 1.0593
 Frc consts  --      2.3635                 1.3913                 1.4127
 IR Inten    --     32.8338                 0.7594                 1.5381

                     25                     26                     27
                      A                      A                      A
 Frequencies --   1634.0856              1652.4957              1674.9389
 Red. masses --      1.1037                 1.1033                 1.1015
 Frc consts  --      1.7364                 1.7751                 1.8207
 IR Inten    --     29.4446                24.9844                27.2581

                     28                     29                     30
                      A                      A                      A
 Frequencies --   3042.4135              3127.9645              3166.6132
 Red. masses --      1.0452                 1.0909                 1.1043
 Frc consts  --      5.7000                 6.2887                 6.5241
 IR Inten    --     26.9877                22.4079                13.8974

                     31                     32                     33
                      A                      A                      A
 Frequencies --   3457.9326              3472.4947              3509.8038
 Red. masses --      1.0491                 1.0512                 1.0483
 Frc consts  --      7.3908                 7.4679                 7.6089
 IR Inten    --      4.5604                 3.2683                 0.0931

                     34                     35                     36
                      A                      A                      A
 Frequencies --   3550.5196              3567.7914              3610.5825
 Red. masses --      1.0925                 1.0902                 1.0948
 Frc consts  --      8.1141                 8.1763                 8.4088
 IR Inten    --      2.5671                 0.6939                 1.6943

 - Thermochemistry -
 -------------------
 Temperature   298.150 Kelvin.  Pressure   1.00000 Atm.
 Atom     1 has atomic number  6 and mass  12.00000

 Molecular mass:    75.07965 amu.
 Principal axes and moments of inertia in atomic units:
                           1         2         3
     Eigenvalues --   368.50449 377.35852 388.87514
           X            0.99164  -0.05521   0.11665
           Y           -0.03904   0.73324   0.67885
           Z           -0.12301  -0.67773   0.72495
 This molecule is an asymmetric top.
 Rotational symmetry number  1.
 Rotational temperatures (Kelvin)      0.23504     0.22953     0.22273
 Rotational constants (GHZ):           4.89747     4.78256     4.64093
 Zero-point vibrational energy     332230.9 (Joules/Mol)
                                   79.40508 (Kcal/Mol)
 Warning -- explicit consideration of   9 degrees of freedom as
           vibrations may cause significant error
 Vibrational temperatures:    154.27   311.55   395.03   491.00   525.86
          (Kelvin)            548.32   697.31   711.33   744.04  1121.96
                             1138.15  1199.95  1274.64  1341.91  1448.76
                             1461.75  1554.98  1697.14  1756.44  1906.05
                             2012.79  2069.31  2159.23  2164.59  2351.08
                             2377.57  2409.86  4377.35  4500.44  4556.04
                             4975.19  4996.14  5049.82  5108.40  5133.25
                             5194.82

 Zero-point correction=                           0.126540 (Hartree/Particle)
 Thermal correction to Energy=                    0.133313
 Thermal correction to Enthalpy=                  0.134257
 Thermal correction to Gibbs Free Energy=         0.097255
 Sum of electronic and zero-point Energies=           -245.763985
 Sum of electronic and thermal Energies=              -245.757213
 Sum of electronic and thermal Enthalpies=            -245.756269
 Sum of electronic and thermal Free Energies=         -245.793271

                     E (Thermal)             CV                S
                      KCal/Mol        Cal/Mol-Kelvin    Cal/Mol-Kelvin
 Total                   83.655             24.821             77.878
 Electronic               0.000              0.000              0.000
 Translational            0.889              2.981             38.864
 Rotational               0.889              2.981             25.495
 Vibrational             81.878             18.859             13.519
 Vibration     1          0.606              1.943              3.319
 Vibration     2          0.645              1.816              1.988
 Vibration     3          0.677              1.720              1.567
 Vibration     4          0.721              1.593              1.206
 Vibration     5          0.739              1.543              1.099
 Vibration     6          0.751              1.510              1.035
 Vibration     7          0.841              1.284              0.698
 Vibration     8          0.850              1.262              0.672
 Vibration     9          0.872              1.212              0.617

 Optimization completed.
    -- Stationary point found.
 Normal termination of Gaussian 09 at Thu Sep  8 15:00:21 2022.
