 Gaussian 09, Revision E.01,
 Gaussian 09:  ES64L-G09RevE.01 30-Nov-2015

 ----------------------------
 #P OPT Freq B3LYP/6-31G(d,p)
 ----------------------------

 --------
 Frag_506
 --------
 Symbolic Z-matrix:
 Charge =  0 Multiplicity = 1

 SCF Done:  E(RB3LYP) =  -322.529828068     A.U. after   15 cycles
 SCF Done:  E(RB3LYP) =  -322.529943515     A.U. after   10 cycles
 SCF Done:  E(RB3LYP) =  -322.529850574     A.U. after   12 cycles
 SCF Done:  E(RB3LYP) =  -322.529957764     A.U. after   11 cycles
 SCF Done:  E(RB3LYP) =  -322.529958208     A.U. after    8 cycles
 Optimization completed.
    -- Stationary point found.
 Normal termination of Gaussian 09 at Thu Sep  8 15:01:38 2022.

 ----------------------------------------------------------------------
 #P Geom=AllCheck Guess=TCheck SCRF=Check GenChk RB3LYP/6-31G(d,p) Freq
 ----------------------------------------------------------------------

 Structure from the checkpoint file:  "B3LYP6-31Gdp.Frag_506.chk"
 --------
 Frag_506
 --------
 Charge =  0 Multiplicity = 1

                         Standard orientation:
 ---------------------------------------------------------------------
 Center     Atomic      Atomic             Coordinates (Angstroms)
 Number     Number       Type             X           Y           Z
 ---------------------------------------------------------------------
      1          6           0       -1.458833    1.194025    0.043895
      2          6           0       -0.749334    0.052756   -0.006441
      3          7           0       -1.273358   -1.233107   -0.111788
      4          6           0        0.743953    0.160702   -0.010566
      5          8           0        1.382246    1.190231   -0.036115
      6          8           0        1.343096   -1.060768    0.042092
      7          1           0       -0.941422    2.143082    0.052373
      8          1           0       -2.543501    1.191573    0.059269
      9          1           0       -2.238418   -1.326579    0.172444
     10          1           0       -0.679627   -1.968349    0.243706
     11          1           0        2.299021   -0.888573    0.045574
 ---------------------------------------------------------------------

 SCF Done:  E(RB3LYP) =  -322.529958208     A.U. after    1 cycles

 The electronic state is 1-A.
 Alpha  occ. eigenvalues --  -19.20280 -19.14019 -14.34393 -10.32505 -10.23702
 Alpha  occ. eigenvalues --  -10.17700  -1.10937  -1.01712  -0.91785  -0.75370
 Alpha  occ. eigenvalues --   -0.67059  -0.56377  -0.53220  -0.50563  -0.47123
 Alpha  occ. eigenvalues --   -0.45158  -0.42600  -0.41543  -0.38282  -0.34405
 Alpha  occ. eigenvalues --   -0.32210  -0.28084  -0.21598
 Alpha virt. eigenvalues --   -0.03332   0.06736   0.09129   0.10726   0.13589
 Alpha virt. eigenvalues --    0.15591   0.17994   0.25062   0.27901   0.33277
 Alpha virt. eigenvalues --    0.34270   0.37607   0.51913   0.54708   0.56193

 Mulliken charges:
               1
     1  C   -0.285323
     2  C    0.269271
     3  N   -0.649824
     4  C    0.565387
     5  O   -0.470300
     6  O   -0.510575
     7  H    0.129467
     8  H    0.089647
     9  H    0.258618
    10  H    0.275920
    11  H    0.327712
 Sum of Mulliken charges =   0.00000

 Dipole moment (field-independent basis, Debye):
    X=             -0.7912    Y=             -2.2714    Z=              1.0420  Tot=              2.6213
 Quadrupole moment (field-independent basis, Debye-Ang):
   XX=            -27.6001   YY=            -34.9612   ZZ=            -36.2870
   XY=             -2.6574   XZ=             -1.3119   YZ=             -1.7079

  Exact polarizability:  54.958  -6.279  56.857  -0.638   0.217  19.354
 Approx polarizability:  76.083 -11.446  96.882  -1.421   1.745  28.122

                      1                      2                      3
                      A                      A                      A
 Frequencies --     78.6301               294.1015               321.7814
 Red. masses --      5.7881                 4.1043                 1.0923
 Frc consts  --      0.0211                 0.2092                 0.0666
 IR Inten    --      0.4762                 1.0054                26.0336

                      4                      5                      6
                      A                      A                      A
 Frequencies --    401.0554               410.0820               516.4811
 Red. masses --      2.3956                 2.8039                 4.2443
 Frc consts  --      0.2270                 0.2778                 0.6671
 IR Inten    --     32.5537                 2.6740                10.0660

                      7                      8                      9
                      A                      A                      A
 Frequencies --    576.9072               592.2052               633.9121
 Red. masses --      3.2272                 1.3610                 1.2929
 Frc consts  --      0.6328                 0.2812                 0.3061
 IR Inten    --     31.8624               192.6993               176.6642

                     10                     11                     12
                      A                      A                      A
 Frequencies --    724.7591               787.2256               800.6393
 Red. masses --      1.3880                 3.4825                 3.5703
 Frc consts  --      0.4296                 1.2716                 1.3484
 IR Inten    --      2.8186                17.0170                32.7104

                     13                     14                     15
                      A                      A                      A
 Frequencies --    856.8434               993.5055              1128.9073
 Red. masses --      1.3987                 1.5907                 1.4970
 Frc consts  --      0.6051                 0.9251                 1.1240
 IR Inten    --     50.2769                 2.6200                 8.5150

                     16                     17                     18
                      A                      A                      A
 Frequencies --   1158.8723              1307.9385              1427.4464
 Red. masses --      2.8719                 1.8176                 3.7265
 Frc consts  --      2.2724                 1.8320                 4.4737
 IR Inten    --    358.4644                18.6857               164.0876

                     19                     20                     21
                      A                      A                      A
 Frequencies --   1443.2073              1649.7623              1709.5193
 Red. masses --      1.1978                 1.1623                 5.2549
 Frc consts  --      1.4699                 1.8639                 9.0482
 IR Inten    --      5.1350                49.7063               130.7719

                     22                     23                     24
                      A                      A                      A
 Frequencies --   1839.1749              3182.4900              3290.6754
 Red. masses --      9.8076                 1.0617                 1.1148
 Frc consts  --     19.5461                 6.3357                 7.1122
 IR Inten    --    163.4087                 8.8300                 1.3215

                     25                     26                     27
                      A                      A                      A
 Frequencies --   3580.3956              3694.4658              3769.0751
 Red. masses --      1.0472                 1.0994                 1.0645
 Frc consts  --      7.9092                 8.8413                 8.9097
 IR Inten    --     20.2552                23.8003                72.1234

 - Thermochemistry -
 -------------------
 Temperature   298.150 Kelvin.  Pressure   1.00000 Atm.
 Atom     1 has atomic number  6 and mass  12.00000

 Molecular mass:    87.03203 amu.
 Principal axes and moments of inertia in atomic units:
                           1         2         3
     Eigenvalues --   328.93032 498.52264 825.04561
           X            0.99833  -0.05760  -0.00470
           Y            0.05757   0.99832  -0.00606
           Z            0.00504   0.00578   0.99997
 This molecule is an asymmetric top.
 Rotational symmetry number  1.
 Rotational temperatures (Kelvin)      0.26332     0.17374     0.10498
 Rotational constants (GHZ):           5.48670     3.62018     2.18744
 Zero-point vibrational energy     222326.3 (Joules/Mol)
                                   53.13727 (Kcal/Mol)
 Warning -- explicit consideration of   8 degrees of freedom as
           vibrations may cause significant error
 Vibrational temperatures:    113.13   423.15   462.97   577.03   590.02
          (Kelvin)            743.10   830.04   852.05   912.06  1042.77
                             1132.64  1151.94  1232.80  1429.43  1624.24
                             1667.36  1881.83  2053.77  2076.45  2373.64
                             2459.61  2646.16  4578.89  4734.54  5151.38
                             5315.51  5422.85

 Zero-point correction=                           0.084680 (Hartree/Particle)
 Thermal correction to Energy=                    0.090846
 Thermal correction to Enthalpy=                  0.091790
 Thermal correction to Gibbs Free Energy=         0.055025
 Sum of electronic and zero-point Energies=           -322.445279
 Sum of electronic and thermal Energies=              -322.439112
 Sum of electronic and thermal Enthalpies=            -322.438168
 Sum of electronic and thermal Free Energies=         -322.474933

                     E (Thermal)             CV                S
                      KCal/Mol        Cal/Mol-Kelvin    Cal/Mol-Kelvin
 Total                   57.007             22.435             77.379
 Electronic               0.000              0.000              0.000
 Translational            0.889              2.981             39.304
 Rotational               0.889              2.981             26.406
 Vibrational             55.229             16.473             11.669
 Vibration     1          0.600              1.964              3.925
 Vibration     2          0.689              1.685              1.450
 Vibration     3          0.707              1.632              1.301
 Vibration     4          0.767              1.468              0.959
 Vibration     5          0.774              1.448              0.926
 Vibration     6          0.872              1.213              0.618
 Vibration     7          0.933              1.081              0.491
 Vibration     8          0.950              1.048              0.463

 Normal termination of Gaussian 09 at Thu Sep  8 15:01:46 2022.
