 Gaussian 09, Revision E.01,
 Gaussian 09:  ES64L-G09RevE.01 30-Nov-2015

 -----
 #P G4
 -----

 --------
 Frag_630
 --------
 Symbolic Z-matrix:
 Charge =  0 Multiplicity = 1

 SCF Done:  E(RB3LYP) =  -323.719833565     A.U. after   13 cycles
 SCF Done:  E(RB3LYP) =  -323.725745926     A.U. after   13 cycles
 SCF Done:  E(RB3LYP) =  -323.726843939     A.U. after   12 cycles
 SCF Done:  E(RB3LYP) =  -323.728414307     A.U. after   13 cycles
 SCF Done:  E(RB3LYP) =  -323.730257592     A.U. after   13 cycles
 SCF Done:  E(RB3LYP) =  -323.732289824     A.U. after   13 cycles
 SCF Done:  E(RB3LYP) =  -323.732884188     A.U. after   12 cycles
 SCF Done:  E(RB3LYP) =  -323.733032916     A.U. after   12 cycles
 SCF Done:  E(RB3LYP) =  -323.733102963     A.U. after   10 cycles
 SCF Done:  E(RB3LYP) =  -323.733125103     A.U. after   10 cycles
 SCF Done:  E(RB3LYP) =  -323.733137371     A.U. after    8 cycles
 SCF Done:  E(RB3LYP) =  -323.733138080     A.U. after    7 cycles
 SCF Done:  E(RB3LYP) =  -323.733138189     A.U. after    7 cycles
 Optimization completed.
    -- Stationary point found.
 Normal termination of Gaussian 09 at Fri Aug 26 13:59:32 2022.

 ----------------------------------------------------------
 #P Geom=AllCheck Guess=TCheck SCRF=Check B3LYP/GTBas3 Freq
 ----------------------------------------------------------

 Structure from the checkpoint file:  "G4.Frag_630.chk"
 --------
 Frag_630
 --------
 Charge =  0 Multiplicity = 1

 SCF Done:  E(RB3LYP) =  -323.733138189     A.U. after    1 cycles

  Exact polarizability:  57.818   0.139  40.425   2.474  -0.169  44.541
 Approx polarizability:  79.411   2.837  56.244   7.278   0.532  68.265

                      1                      2                      3
                      A                      A                      A
 Frequencies --    123.8726               225.4156               297.9758
 Red. masses --      3.3051                 1.0322                 1.4831
 Frc consts  --      0.0299                 0.0309                 0.0776
 IR Inten    --      4.8218                 0.6633                44.3090

                      4                      5                      6
                      A                      A                      A
 Frequencies --    323.1845               332.1382               363.8352
 Red. masses --      1.4830                 2.6271                 2.5620
 Frc consts  --      0.0913                 0.1708                 0.1998
 IR Inten    --     10.7271                50.9451                 4.7589

                      7                      8                      9
                      A                      A                      A
 Frequencies --    408.9365               493.9589               528.3848
 Red. masses --      1.5656                 2.7679                 2.9245
 Frc consts  --      0.1543                 0.3979                 0.4811
 IR Inten    --     64.7708                26.7749                11.7514

                     10                     11                     12
                      A                      A                      A
 Frequencies --    604.5858               758.6515               772.9160
 Red. masses --      3.9609                 3.1673                 1.6052
 Frc consts  --      0.8530                 1.0741                 0.5650
 IR Inten    --      5.6549                 8.7754                 3.5566

                     13                     14                     15
                      A                      A                      A
 Frequencies --    910.6110               967.9544              1069.9979
 Red. masses --      2.5055                 1.9232                 1.9374
 Frc consts  --      1.2241                 1.0617                 1.3069
 IR Inten    --     36.4959                46.3509                93.2579

                     16                     17                     18
                      A                      A                      A
 Frequencies --   1093.2753              1119.1108              1191.0695
 Red. masses --      1.3525                 1.7376                 2.5273
 Frc consts  --      0.9525                 1.2822                 2.1124
 IR Inten    --      9.4508                72.4771                84.9797

                     19                     20                     21
                      A                      A                      A
 Frequencies --   1235.1023              1358.9256              1375.0809
 Red. masses --      1.7884                 1.5653                 1.3779
 Frc consts  --      1.6074                 1.7031                 1.5351
 IR Inten    --     78.0647               137.0198                51.6341

                     22                     23                     24
                      A                      A                      A
 Frequencies --   1415.9130              1476.5295              1481.7064
 Red. masses --      1.6033                 1.0923                 1.0552
 Frc consts  --      1.8938                 1.4031                 1.3650
 IR Inten    --     51.9801                 9.8262                 3.0567

                     25                     26                     27
                      A                      A                      A
 Frequencies --   1488.4219              1739.7807              3053.7214
 Red. masses --      1.1025                 7.2746                 1.0563
 Frc consts  --      1.4391                12.9733                 5.8036
 IR Inten    --     20.4909                32.6912                24.7009

                     28                     29                     30
                      A                      A                      A
 Frequencies --   3057.2733              3138.0454              3147.3408
 Red. masses --      1.0339                 1.1023                 1.1034
 Frc consts  --      5.6937                 6.3954                 6.4399
 IR Inten    --      8.0813                14.3467                10.3830

                     31                     32                     33
                      A                      A                      A
 Frequencies --   3150.8590              3795.3027              3802.3030
 Red. masses --      1.1144                 1.0651                 1.0648
 Frc consts  --      6.5188                 9.0389                 9.0704
 IR Inten    --     23.4801                36.2216                41.3424

 - Thermochemistry -
 -------------------
 Temperature   298.150 Kelvin.  Pressure   1.00000 Atm.
 Atom     1 has atomic number  6 and mass  12.00000

 Molecular mass:    89.04768 amu.
 Principal axes and moments of inertia in atomic units:
                           1         2         3
     Eigenvalues --   367.79284 587.13665 595.12868
           X            0.99806  -0.05345   0.03206
           Y            0.05813   0.98385  -0.16932
           Z           -0.02249   0.17085   0.98504
 This molecule is an asymmetric top.
 Rotational symmetry number  1.
 Rotational temperatures (Kelvin)      0.23550     0.14752     0.14554
 Rotational constants (GHZ):           4.90695     3.07380     3.03252
 Zero-point vibrational energy     276948.5 (Joules/Mol)
                                   66.19229 (Kcal/Mol)
 Warning -- explicit consideration of  10 degrees of freedom as
           vibrations may cause significant error
 Vibrational temperatures:    178.22   324.32   428.72   464.99   477.87
          (Kelvin)            523.48   588.37   710.70   760.23   869.86
                             1091.53  1112.05  1310.16  1392.67  1539.49
                             1572.98  1610.15  1713.68  1777.03  1955.19
                             1978.43  2037.18  2124.39  2131.84  2141.50
                             2503.15  4393.62  4398.73  4514.94  4528.32
                             4533.38  5460.59  5470.66

 Zero-point correction=                           0.105484 (Hartree/Particle)
 Thermal correction to Energy=                    0.112383
 Thermal correction to Enthalpy=                  0.113328
 Thermal correction to Gibbs Free Energy=         0.075564
 Sum of electronic and zero-point Energies=           -323.627654
 Sum of electronic and thermal Energies=              -323.620755
 Sum of electronic and thermal Enthalpies=            -323.619811
 Sum of electronic and thermal Free Energies=         -323.657575

                     E (Thermal)             CV                S
                      KCal/Mol        Cal/Mol-Kelvin    Cal/Mol-Kelvin
 Total                   70.522             25.257             79.481
 Electronic               0.000              0.000              0.000
 Translational            0.889              2.981             39.372
 Rotational               0.889              2.981             26.355
 Vibrational             68.744             19.295             13.754
 Vibration     1          0.610              1.929              3.039
 Vibration     2          0.650              1.802              1.915
 Vibration     3          0.691              1.677              1.428
 Vibration     4          0.708              1.629              1.294
 Vibration     5          0.714              1.611              1.250
 Vibration     6          0.737              1.547              1.106
 Vibration     7          0.773              1.451              0.930
 Vibration     8          0.850              1.263              0.673
 Vibration     9          0.883              1.187              0.591
 Vibration    10          0.963              1.022              0.442

 Optimization completed.
    -- Stationary point found.
 Normal termination of Gaussian 09 at Fri Aug 26 14:00:02 2022.

 -----------------------------------------------------------------
 #P Geom=AllCheck Guess=TCheck SCRF=Check CCSD(T,E4T,FrzG4)/GTBas1
 -----------------------------------------------------------------

 Structure from the checkpoint file:  "G4.Frag_630.chk"
 --------
 Frag_630
 --------
 Charge =  0 Multiplicity = 1

 SCF Done:  E(RHF) =  -321.824059378     A.U. after   13 cycles
 E2 =    -0.9068913702D+00 EUMP2 =    -0.32273095074866D+03
 CCSD(T)
 CCSD(T)= -0.32280199564D+03
 4\MP4SDTQ=-322.8026595\MP4SDQ=-322.7735166\CCSD=-322.7736473\CCSD(T)=-
 Normal termination of Gaussian 09 at Fri Aug 26 14:02:00 2022.

 ---------------------------------------------------------
 #P Geom=AllCheck Guess=TCheck SCRF=Check MP4=FrzG4/GTBas2
 ---------------------------------------------------------

 Structure from the checkpoint file:  "G4.Frag_630.chk"
 --------
 Frag_630
 --------
 Charge =  0 Multiplicity = 1

 SCF Done:  E(RHF) =  -321.835383489     A.U. after   12 cycles
 E2 =    -0.9221381211D+00 EUMP2 =    -0.32275752161024D+03
 Normal termination of Gaussian 09 at Fri Aug 26 14:02:33 2022.

 ---------------------------------------------------------
 #P Geom=AllCheck Guess=TCheck SCRF=Check MP4=FrzG4/GTBas3
 ---------------------------------------------------------

 Structure from the checkpoint file:  "G4.Frag_630.chk"
 --------
 Frag_630
 --------
 Charge =  0 Multiplicity = 1

 SCF Done:  E(RHF) =  -321.866483644     A.U. after   12 cycles
 E2 =    -0.1113857996D+01 EUMP2 =    -0.32298034163985D+03
 Normal termination of Gaussian 09 at Fri Aug 26 14:05:53 2022.

 -----------------------------------------------------------
 #P Geom=AllCheck Guess=TCheck SCRF=Check MP2=Full/GTLargeXP
 -----------------------------------------------------------

 Structure from the checkpoint file:  "G4.Frag_630.chk"
 --------
 Frag_630
 --------
 Charge =  0 Multiplicity = 1

 SCF Done:  E(RHF) =  -321.954319175     A.U. after   12 cycles
 E2 =    -0.1456665877D+01 EUMP2 =    -0.32341098505243D+03
 Normal termination of Gaussian 09 at Fri Aug 26 14:07:32 2022.
 SCF Done:  E(RHF) =  -321.979835498     A.U. after    9 cycles
 Normal termination of Gaussian 09 at Fri Aug 26 14:09:18 2022.

                         Standard orientation:
 ---------------------------------------------------------------------
 Center     Atomic      Atomic             Coordinates (Angstroms)
 Number     Number       Type             X           Y           Z
 ---------------------------------------------------------------------
      1          6           0        2.000984    0.132663   -0.020335
      2          7           0        0.939990    0.102182   -0.706254
      3          6           0       -0.344480   -0.035740   -0.003799
      4          6           0       -1.066573    1.309152   -0.022300
      5          8           0       -1.061887   -1.030479   -0.702119
      6          8           0       -0.251692   -0.449942    1.330833
      7          1           0        2.959019    0.231661   -0.532093
      8          1           0        2.006717    0.063479    1.072132
      9          1           0       -2.087115    1.164493    0.337866
     10          1           0       -0.553169    2.023986    0.625751
     11          1           0       -1.091669    1.704439   -1.039644
     12          1           0       -0.658475   -1.083917   -1.576698
     13          1           0       -0.186190   -1.412491    1.305363
 ---------------------------------------------------------------------

 SCF Done:  E(RHF) =  -321.985411197     A.U. after    8 cycles

 The electronic state is 1-A.
 Alpha  occ. eigenvalues --  -20.56800 -20.56517 -15.57174 -11.37230 -11.28714
 Alpha  occ. eigenvalues --  -11.21629  -1.43155  -1.34072  -1.22756  -1.00893
 Alpha  occ. eigenvalues --   -0.88203  -0.79916  -0.73333  -0.71537  -0.66109
 Alpha  occ. eigenvalues --   -0.62411  -0.57979  -0.55604  -0.54785  -0.53363
 Alpha  occ. eigenvalues --   -0.51600  -0.47017  -0.44359  -0.42213
 Alpha virt. eigenvalues --    0.03646   0.04274   0.04723   0.05127   0.06322
 Alpha virt. eigenvalues --    0.06810   0.07302   0.07606   0.08788   0.09728
 Alpha virt. eigenvalues --    0.12572   0.13233   0.13931   0.14643   0.15099

 Mulliken charges:
               1
     1  C   -0.248466
     2  N   -0.399770
     3  C    0.626392
     4  C   -0.523620
     5  O   -0.621977
     6  O   -0.605496
     7  H    0.216731
     8  H    0.224887
     9  H    0.182480
    10  H    0.178112
    11  H    0.189320
    12  H    0.395646
    13  H    0.385762
 Sum of Mulliken charges =  -0.00000

 Dipole moment (field-independent basis, Debye):
    X=              1.9192    Y=             -0.0543    Z=             -0.0369  Tot=              1.9203
 Quadrupole moment (field-independent basis, Debye-Ang):
   XX=            -34.1720   YY=            -34.7916   ZZ=            -37.4321
   XY=             -1.8094   XZ=              2.0519   YZ=             -0.3982

 Normal termination of Gaussian 09 at Fri Aug 26 14:16:05 2022.
