 Gaussian 09, Revision E.01,
 Gaussian 09:  ES64L-G09RevE.01 30-Nov-2015

 -----
 #P G4
 -----

 --------
 Frag_870
 --------
 Symbolic Z-matrix:
 Charge =  0 Multiplicity = 1

 SCF Done:  E(RB3LYP) =  -379.871077654     A.U. after   12 cycles
 SCF Done:  E(RB3LYP) =  -379.881145808     A.U. after   11 cycles
 SCF Done:  E(RB3LYP) =  -379.881633643     A.U. after   11 cycles
 SCF Done:  E(RB3LYP) =  -379.882026502     A.U. after   10 cycles
 SCF Done:  E(RB3LYP) =  -379.882225410     A.U. after    9 cycles
 SCF Done:  E(RB3LYP) =  -379.882344719     A.U. after   10 cycles
 SCF Done:  E(RB3LYP) =  -379.882598597     A.U. after   10 cycles
 SCF Done:  E(RB3LYP) =  -379.873138385     A.U. after   13 cycles
 SCF Done:  E(RB3LYP) =  -379.882767948     A.U. after   10 cycles
 SCF Done:  E(RB3LYP) =  -379.882971439     A.U. after   11 cycles
 SCF Done:  E(RB3LYP) =  -379.887638006     A.U. after    8 cycles
 SCF Done:  E(RB3LYP) =  -379.887647754     A.U. after    8 cycles
 SCF Done:  E(RB3LYP) =  -379.887649390     A.U. after    7 cycles
 Optimization completed.
    -- Stationary point found.
 Normal termination of Gaussian 09 at Fri Aug 26 04:30:43 2022.

 ----------------------------------------------------------
 #P Geom=AllCheck Guess=TCheck SCRF=Check B3LYP/GTBas3 Freq
 ----------------------------------------------------------

 Structure from the checkpoint file:  "G4.Frag_870.chk"
 --------
 Frag_870
 --------
 Charge =  0 Multiplicity = 1

 SCF Done:  E(RB3LYP) =  -379.887649390     A.U. after    1 cycles

  Exact polarizability:  78.279  -0.738  72.665  -0.106  -0.793  70.692
 Approx polarizability: 106.901  -1.258 104.479  -0.330  -2.123 104.010

                      1                      2                      3
                      A                      A                      A
 Frequencies --    104.7566               221.3922               226.7981
 Red. masses --      3.0330                 1.0352                 1.1348
 Frc consts  --      0.0196                 0.0299                 0.0344
 IR Inten    --      0.3172                 3.2116                17.6825

                      4                      5                      6
                      A                      A                      A
 Frequencies --    247.6227               277.8581               288.4084
 Red. masses --      1.4790                 1.9547                 2.2476
 Frc consts  --      0.0534                 0.0889                 0.1102
 IR Inten    --      1.4147                 5.4668                 4.5467

                      7                      8                      9
                      A                      A                      A
 Frequencies --    318.2159               336.8076               360.9706
 Red. masses --      1.1148                 1.5258                 2.1165
 Frc consts  --      0.0665                 0.1020                 0.1625
 IR Inten    --     37.3222                19.0637                25.7609

                     10                     11                     12
                      A                      A                      A
 Frequencies --    368.4479               379.2637               402.8025
 Red. masses --      2.3015                 1.8903                 1.5179
 Frc consts  --      0.1841                 0.1602                 0.1451
 IR Inten    --      4.0379                15.8281                18.6329

                     13                     14                     15
                      A                      A                      A
 Frequencies --    422.0131               447.4960               520.0502
 Red. masses --      2.1300                 2.1253                 2.7342
 Frc consts  --      0.2235                 0.2508                 0.4357
 IR Inten    --      3.7941                44.2108                 9.1285

                     16                     17                     18
                      A                      A                      A
 Frequencies --    532.1153               557.2986               676.9609
 Red. masses --      2.9590                 2.6514                 3.0362
 Frc consts  --      0.4936                 0.4852                 0.8198
 IR Inten    --     11.1152                20.2082                 6.2042

                     19                     20                     21
                      A                      A                      A
 Frequencies --    837.4501               872.2732               901.9843
 Red. masses --      2.6303                 2.2521                 1.5877
 Frc consts  --      1.0868                 1.0096                 0.7611
 IR Inten    --     40.8788                40.0852               134.3196

                     22                     23                     24
                      A                      A                      A
 Frequencies --    910.0961               929.7227               940.4770
 Red. masses --      1.6095                 1.4480                 1.3638
 Frc consts  --      0.7855                 0.7375                 0.7107
 IR Inten    --    100.1900               160.0665                 6.4442

                     25                     26                     27
                      A                      A                      A
 Frequencies --    972.3610               993.6785              1024.7354
 Red. masses --      1.6407                 1.3416                 1.6715
 Frc consts  --      0.9140                 0.7805                 1.0341
 IR Inten    --      5.7061                42.7802                40.0220

                     28                     29                     30
                      A                      A                      A
 Frequencies --   1040.1146              1077.4363              1109.5160
 Red. masses --      1.6601                 1.4497                 1.4969
 Frc consts  --      1.0582                 0.9915                 1.0857
 IR Inten    --     22.5616                 8.5197                28.2095

                     31                     32                     33
                      A                      A                      A
 Frequencies --   1185.4733              1212.9863              1306.9926
 Red. masses --      2.6126                 2.5406                 1.7083
 Frc consts  --      2.1632                 2.2024                 1.7194
 IR Inten    --     46.6915                29.1203                24.0783

                     34                     35                     36
                      A                      A                      A
 Frequencies --   1309.8238              1350.2279              1373.3514
 Red. masses --      1.9470                 1.9522                 1.7823
 Frc consts  --      1.9681                 2.0969                 1.9806
 IR Inten    --     17.8051                 6.3350                 0.6760

                     37                     38                     39
                      A                      A                      A
 Frequencies --   1404.6591              1411.1716              1481.7932
 Red. masses --      1.3095                 1.3807                 1.0557
 Frc consts  --      1.5223                 1.6200                 1.3657
 IR Inten    --     12.1602                16.2189                 0.6818

                     40                     41                     42
                      A                      A                      A
 Frequencies --   1490.8418              1497.8704              1503.4877
 Red. masses --      1.0559                 1.0613                 1.0523
 Frc consts  --      1.3827                 1.4029                 1.4015
 IR Inten    --      2.3008                 3.1167                 2.1562

                     43                     44                     45
                      A                      A                      A
 Frequencies --   1640.5740              1643.2975              1650.9725
 Red. masses --      1.0938                 1.0933                 1.0978
 Frc consts  --      1.7345                 1.7395                 1.7629
 IR Inten    --     52.2639                58.2679                15.0630

                     46                     47                     48
                      A                      A                      A
 Frequencies --   1662.6459              3026.5431              3048.1033
 Red. masses --      1.1017                 1.0471                 1.0363
 Frc consts  --      1.7943                 5.6513                 5.6727
 IR Inten    --      3.7129                34.0506                15.3715

                     49                     50                     51
                      A                      A                      A
 Frequencies --   3105.9879              3112.6499              3134.5507
 Red. masses --      1.0893                 1.0997                 1.1009
 Frc consts  --      6.1915                 6.2777                 6.3733
 IR Inten    --     20.9770                26.5379                23.6644

                     52                     53                     54
                      A                      A                      A
 Frequencies --   3147.0542              3464.0703              3473.3594
 Red. masses --      1.1008                 1.0487                 1.0495
 Frc consts  --      6.4232                 7.4140                 7.4597
 IR Inten    --     11.7795                 1.4832                 1.1459

                     55                     56                     57
                      A                      A                      A
 Frequencies --   3475.9389              3495.9881              3550.1097
 Red. masses --      1.0487                 1.0487                 1.0912
 Frc consts  --      7.4651                 7.5518                 8.1029
 IR Inten    --      2.9423                 0.1591                 0.9677

                     58                     59                     60
                      A                      A                      A
 Frequencies --   3550.3013              3558.7198              3575.7485
 Red. masses --      1.0911                 1.0916                 1.0926
 Frc consts  --      8.1033                 8.1449                 8.2307
 IR Inten    --      0.2172                 3.1288                 1.2007

 - Thermochemistry -
 -------------------
 Temperature   298.150 Kelvin.  Pressure   1.00000 Atm.
 Atom     1 has atomic number  6 and mass  12.00000

 Molecular mass:   118.12185 amu.
 Principal axes and moments of inertia in atomic units:
                           1         2         3
     Eigenvalues --   739.389421031.522971032.08712
           X            0.99987   0.01579  -0.00318
           Y            0.00664  -0.22428   0.97450
           Z           -0.01468   0.97440   0.22436
 This molecule is an asymmetric top.
 Rotational symmetry number  1.
 Warning -- assumption of classical behavior for rotation
           may cause significant error
 Rotational temperatures (Kelvin)      0.11714     0.08397     0.08392
 Rotational constants (GHZ):           2.44085     1.74959     1.74863
 Zero-point vibrational energy     527220.7 (Joules/Mol)
                                  126.00877 (Kcal/Mol)
 Warning -- explicit consideration of  17 degrees of freedom as
           vibrations may cause significant error
 Vibrational temperatures:    150.72   318.53   326.31   356.27   399.78
          (Kelvin)            414.95   457.84   484.59   519.36   530.11
                              545.68   579.54   607.18   643.85   748.24
                              765.59   801.83   973.99  1204.90  1255.01
                             1297.75  1309.42  1337.66  1353.13  1399.01
                             1429.68  1474.36  1496.49  1550.19  1596.34
                             1705.63  1745.21  1880.47  1884.54  1942.67
                             1975.94  2020.99  2030.36  2131.97  2144.99
                             2155.10  2163.18  2360.42  2364.34  2375.38
                             2392.17  4354.52  4385.54  4468.82  4478.40
                             4509.91  4527.90  4984.02  4997.38  5001.09
                             5029.94  5107.81  5108.09  5120.20  5144.70

 Zero-point correction=                           0.200808 (Hartree/Particle)
 Thermal correction to Energy=                    0.210802
 Thermal correction to Enthalpy=                  0.211747
 Thermal correction to Gibbs Free Energy=         0.167805
 Sum of electronic and zero-point Energies=           -379.686842
 Sum of electronic and thermal Energies=              -379.676847
 Sum of electronic and thermal Enthalpies=            -379.675903
 Sum of electronic and thermal Free Energies=         -379.719844

                     E (Thermal)             CV                S
                      KCal/Mol        Cal/Mol-Kelvin    Cal/Mol-Kelvin
 Total                  132.281             39.874             92.483
 Electronic               0.000              0.000              0.000
 Translational            0.889              2.981             40.215
 Rotational               0.889              2.981             28.156
 Vibrational            130.503             33.913             24.113
 Vibration     1          0.605              1.945              3.364
 Vibration     2          0.648              1.809              1.948
 Vibration     3          0.650              1.800              1.904
 Vibration     4          0.661              1.767              1.747
 Vibration     5          0.679              1.714              1.547
 Vibration     6          0.685              1.695              1.483
 Vibration     7          0.705              1.639              1.319
 Vibration     8          0.718              1.602              1.227
 Vibration     9          0.735              1.553              1.118
 Vibration    10          0.741              1.537              1.086
 Vibration    11          0.749              1.514              1.042
 Vibration    12          0.768              1.464              0.952
 Vibration    13          0.784              1.422              0.885
 Vibration    14          0.807              1.366              0.803
 Vibration    15          0.875              1.206              0.610
 Vibration    16          0.887              1.179              0.583
 Vibration    17          0.913              1.124              0.529

 Optimization completed.
    -- Stationary point found.
 Normal termination of Gaussian 09 at Fri Aug 26 04:32:15 2022.

 -----------------------------------------------------------------
 #P Geom=AllCheck Guess=TCheck SCRF=Check CCSD(T,E4T,FrzG4)/GTBas1
 -----------------------------------------------------------------

 Structure from the checkpoint file:  "G4.Frag_870.chk"
 --------
 Frag_870
 --------
 Charge =  0 Multiplicity = 1

 SCF Done:  E(RHF) =  -377.392865070     A.U. after   11 cycles
 E2 =    -0.1196343952D+01 EUMP2 =    -0.37858920902187D+03
 CCSD(T)
 CCSD(T)= -0.37870250942D+03
 \MP4SDQ=-378.6645647\CCSD=-378.6658632\CCSD(T)=-378.7025094\RMSD=8.675
 Normal termination of Gaussian 09 at Fri Aug 26 04:42:36 2022.

 ---------------------------------------------------------
 #P Geom=AllCheck Guess=TCheck SCRF=Check MP4=FrzG4/GTBas2
 ---------------------------------------------------------

 Structure from the checkpoint file:  "G4.Frag_870.chk"
 --------
 Frag_870
 --------
 Charge =  0 Multiplicity = 1

 SCF Done:  E(RHF) =  -377.407002750     A.U. after   12 cycles
 E2 =    -0.1217516490D+01 EUMP2 =    -0.37862451924054D+03
 Normal termination of Gaussian 09 at Fri Aug 26 04:46:08 2022.

 ---------------------------------------------------------
 #P Geom=AllCheck Guess=TCheck SCRF=Check MP4=FrzG4/GTBas3
 ---------------------------------------------------------

 Structure from the checkpoint file:  "G4.Frag_870.chk"
 --------
 Frag_870
 --------
 Charge =  0 Multiplicity = 1

 SCF Done:  E(RHF) =  -377.451542078     A.U. after   10 cycles
 E2 =    -0.1475121571D+01 EUMP2 =    -0.37892666364877D+03
 Normal termination of Gaussian 09 at Fri Aug 26 05:18:09 2022.

 -----------------------------------------------------------
 #P Geom=AllCheck Guess=TCheck SCRF=Check MP2=Full/GTLargeXP
 -----------------------------------------------------------

 Structure from the checkpoint file:  "G4.Frag_870.chk"
 --------
 Frag_870
 --------
 Charge =  0 Multiplicity = 1

 SCF Done:  E(RHF) =  -377.545976307     A.U. after   12 cycles
 E2 =    -0.1923245649D+01 EUMP2 =    -0.37946922195540D+03
 Normal termination of Gaussian 09 at Fri Aug 26 05:26:23 2022.
 SCF Done:  E(RHF) =  -377.574639122     A.U. after    9 cycles
 Normal termination of Gaussian 09 at Fri Aug 26 05:29:38 2022.

                         Standard orientation:
 ---------------------------------------------------------------------
 Center     Atomic      Atomic             Coordinates (Angstroms)
 Number     Number       Type             X           Y           Z
 ---------------------------------------------------------------------
      1          6           0        1.390227    0.945616    1.031623
      2          6           0        0.773415    0.017808   -0.027371
      3          7           0        1.149620    0.400082   -1.406857
      4          7           0        1.246362   -1.345270    0.239349
      5          6           0       -0.804256   -0.018287    0.042245
      6          6           0       -1.434788    1.341026   -0.294139
      7          7           0       -1.167758   -0.372287    1.408951
      8          7           0       -1.369531   -0.994733   -0.911841
      9          1           0        2.485057    0.901424    0.969777
     10          1           0        1.096440    1.984071    0.861682
     11          1           0        1.077753    0.665419    2.038467
     12          1           0        0.929708    1.379262   -1.571934
     13          1           0        2.159981    0.325246   -1.498503
     14          1           0        1.174247   -1.891023   -0.613937
     15          1           0        2.226628   -1.333797    0.502600
     16          1           0       -1.247272    1.624956   -1.334138
     17          1           0       -2.518841    1.263141   -0.175518
     18          1           0       -1.073630    2.130244    0.368298
     19          1           0       -0.664353   -1.221625    1.655612
     20          1           0       -2.159731   -0.591988    1.428647
     21          1           0       -0.954620   -0.838116   -1.828826
     22          1           0       -1.089810   -1.928736   -0.623586
 ---------------------------------------------------------------------

 SCF Done:  E(RHF) =  -377.581010894     A.U. after    8 cycles

 The electronic state is 1-A.
 Alpha  occ. eigenvalues --  -15.54567 -15.54517 -15.52528 -15.52368 -11.29165
 Alpha  occ. eigenvalues --  -11.28081 -11.21348 -11.20532  -1.25412  -1.19458
 Alpha  occ. eigenvalues --   -1.13013  -1.10981  -0.98868  -0.95858  -0.85031
 Alpha  occ. eigenvalues --   -0.73831  -0.68867  -0.66888  -0.66552  -0.63653
 Alpha  occ. eigenvalues --   -0.62262  -0.59997  -0.55781  -0.55640  -0.54214
 Alpha  occ. eigenvalues --   -0.53417  -0.51054  -0.49348  -0.48575  -0.42104
 Alpha  occ. eigenvalues --   -0.40993  -0.39160  -0.38046
 Alpha virt. eigenvalues --    0.02897   0.04241   0.04558   0.04915   0.06261
 Alpha virt. eigenvalues --    0.06480   0.06947   0.07047   0.07411   0.09420
 Alpha virt. eigenvalues --    0.09540   0.10053   0.10237   0.10585   0.11897

 Mulliken charges:
               1
     1  C   -0.580923
     2  C    0.445108
     3  N   -0.785455
     4  N   -0.818763
     5  C    0.491615
     6  C   -0.603674
     7  N   -0.813289
     8  N   -0.789286
     9  H    0.152656
    10  H    0.169973
    11  H    0.202264
    12  H    0.297562
    13  H    0.287374
    14  H    0.312807
    15  H    0.293815
    16  H    0.162527
    17  H    0.176248
    18  H    0.171038
    19  H    0.318424
    20  H    0.302013
    21  H    0.318702
    22  H    0.289266
 Sum of Mulliken charges =  -0.00000

 Dipole moment (field-independent basis, Debye):
    X=              2.5815    Y=              0.1668    Z=             -0.7300  Tot=              2.6879
 Quadrupole moment (field-independent basis, Debye-Ang):
   XX=            -49.8110   YY=            -48.9557   ZZ=            -56.0259
   XY=             -0.4974   XZ=             -2.2151   YZ=             -1.5824

 Normal termination of Gaussian 09 at Fri Aug 26 05:52:19 2022.
