 Gaussian 09, Revision E.01,
 Gaussian 09:  ES64L-G09RevE.01 30-Nov-2015

 -----
 #P G4
 -----

 ---------
 Frag_1019
 ---------
 Symbolic Z-matrix:
 Charge =  0 Multiplicity = 1

 SCF Done:  E(RB3LYP) =  -376.472144920     A.U. after   12 cycles
 SCF Done:  E(RB3LYP) =  -376.482157833     A.U. after   11 cycles
 SCF Done:  E(RB3LYP) =  -376.483261343     A.U. after   11 cycles
 SCF Done:  E(RB3LYP) =  -376.483139337     A.U. after   10 cycles
 SCF Done:  E(RB3LYP) =  -376.483496275     A.U. after    8 cycles
 SCF Done:  E(RB3LYP) =  -376.483601442     A.U. after   10 cycles
 SCF Done:  E(RB3LYP) =  -376.483727671     A.U. after   10 cycles
 SCF Done:  E(RB3LYP) =  -376.483746329     A.U. after    8 cycles
 SCF Done:  E(RB3LYP) =  -376.483773468     A.U. after    9 cycles
 SCF Done:  E(RB3LYP) =  -376.483799904     A.U. after    9 cycles
 SCF Done:  E(RB3LYP) =  -376.489590871     A.U. after    9 cycles
 SCF Done:  E(RB3LYP) =  -376.489592180     A.U. after    7 cycles
 SCF Done:  E(RB3LYP) =  -376.489592485     A.U. after    6 cycles
 Optimization completed.
    -- Stationary point found.
 Normal termination of Gaussian 09 at Fri Aug 26 07:02:58 2022.

 ----------------------------------------------------------
 #P Geom=AllCheck Guess=TCheck SCRF=Check B3LYP/GTBas3 Freq
 ----------------------------------------------------------

 Structure from the checkpoint file:  "G4.Frag_1019.chk"
 ---------
 Frag_1019
 ---------
 Charge =  0 Multiplicity = 1

 SCF Done:  E(RB3LYP) =  -376.489592485     A.U. after    1 cycles

  Exact polarizability:  61.565   0.049  55.672   0.515  -0.230  52.099
 Approx polarizability:  81.849  -0.131  79.354   0.006   1.254  76.300

                      1                      2                      3
                      A                      A                      A
 Frequencies --    143.2809               221.0578               253.3491
 Red. masses --      3.8303                 1.5509                 1.6217
 Frc consts  --      0.0463                 0.0447                 0.0613
 IR Inten    --      4.5426                 8.5196                18.2833

                      4                      5                      6
                      A                      A                      A
 Frequencies --    260.5291               310.0607               326.4246
 Red. masses --      1.8714                 1.1953                 1.3251
 Frc consts  --      0.0748                 0.0677                 0.0832
 IR Inten    --     11.2750                14.6338                65.7786

                      7                      8                      9
                      A                      A                      A
 Frequencies --    367.3998               382.9685               402.0972
 Red. masses --      1.7034                 2.0998                 1.2976
 Frc consts  --      0.1355                 0.1815                 0.1236
 IR Inten    --     17.9706                22.2758                55.5269

                     10                     11                     12
                      A                      A                      A
 Frequencies --    428.5680               495.7534               517.7594
 Red. masses --      2.5945                 2.4666                 2.4608
 Frc consts  --      0.2808                 0.3572                 0.3887
 IR Inten    --      7.4601                30.5973                50.5327

                     13                     14                     15
                      A                      A                      A
 Frequencies --    546.5664               625.0816               777.5361
 Red. masses --      3.4910                 2.9887                 2.9868
 Frc consts  --      0.6144                 0.6880                 1.0639
 IR Inten    --     42.5176                13.2473                18.2973

                     16                     17                     18
                      A                      A                      A
 Frequencies --    842.3736               874.5182               928.9922
 Red. masses --      1.6219                 1.7411                 1.3663
 Frc consts  --      0.6781                 0.7845                 0.6947
 IR Inten    --    159.3703                96.5639                74.6070

                     19                     20                     21
                      A                      A                      A
 Frequencies --    931.0672               985.5464              1001.2104
 Red. masses --      1.6527                 2.1508                 2.1721
 Frc consts  --      0.8441                 1.2308                 1.2829
 IR Inten    --    166.6903               197.5825                37.7061

                     22                     23                     24
                      A                      A                      A
 Frequencies --   1035.4787              1094.9173              1157.6819
 Red. masses --      1.9335                 2.5072                 1.2159
 Frc consts  --      1.2215                 1.7709                 0.9601
 IR Inten    --     31.4131                37.7339                67.8305

                     25                     26                     27
                      A                      A                      A
 Frequencies --   1164.4204              1274.1351              1288.3318
 Red. masses --      1.4167                 1.7186                 1.7581
 Frc consts  --      1.1317                 1.6438                 1.7193
 IR Inten    --     43.2253                 7.0184                 9.3844

                     28                     29                     30
                      A                      A                      A
 Frequencies --   1335.7106              1369.2580              1403.7862
 Red. masses --      1.6727                 1.4657                 1.5208
 Frc consts  --      1.7583                 1.6190                 1.7657
 IR Inten    --     42.4233                41.7508                18.2469

                     31                     32                     33
                      A                      A                      A
 Frequencies --   1459.1481              1620.8221              1635.3623
 Red. masses --      1.7988                 1.1167                 1.0970
 Frc consts  --      2.2565                 1.7284                 1.7286
 IR Inten    --      9.7822                62.4546                34.2331

                     34                     35                     36
                      A                      A                      A
 Frequencies --   1642.5051              1647.3990              2971.5548
 Red. masses --      1.1004                 1.1232                 1.0834
 Frc consts  --      1.7491                 1.7960                 5.6366
 IR Inten    --     31.2437                41.6882                67.3017

                     37                     38                     39
                      A                      A                      A
 Frequencies --   3481.2829              3491.1617              3493.0487
 Red. masses --      1.0489                 1.0481                 1.0492
 Frc consts  --      7.4894                 7.5267                 7.5428
 IR Inten    --      2.6728                 2.6608                 2.3742

                     40                     41                     42
                      A                      A                      A
 Frequencies --   3510.9090              3564.8619              3573.5064
 Red. masses --      1.0473                 1.0924                 1.0911
 Frc consts  --      7.6064                 8.1790                 8.2091
 IR Inten    --      3.6475                 0.9533                 4.7565

                     43                     44                     45
                      A                      A                      A
 Frequencies --   3576.6750              3606.8940              3791.3310
 Red. masses --      1.0928                 1.0945                 1.0653
 Frc consts  --      8.2367                 8.3891                 9.0223
 IR Inten    --      2.1926                 8.4239                18.9676

 - Thermochemistry -
 -------------------
 Temperature   298.150 Kelvin.  Pressure   1.00000 Atm.
 Atom     1 has atomic number  7 and mass  14.00307

 Molecular mass:   106.08546 amu.
 Principal axes and moments of inertia in atomic units:
                           1         2         3
     Eigenvalues --   537.85964 752.45948 912.65155
           X            0.99980   0.01365   0.01459
           Y           -0.01325   0.99954  -0.02741
           Z           -0.01496   0.02721   0.99952
 This molecule is an asymmetric top.
 Rotational symmetry number  1.
 Warning -- assumption of classical behavior for rotation
           may cause significant error
 Rotational temperatures (Kelvin)      0.16103     0.11511     0.09490
 Rotational constants (GHZ):           3.35541     2.39846     1.97747
 Zero-point vibrational energy     393645.1 (Joules/Mol)
                                   94.08344 (Kcal/Mol)
 Warning -- explicit consideration of  13 degrees of freedom as
           vibrations may cause significant error
 Vibrational temperatures:    206.15   318.05   364.51   374.84   446.11
          (Kelvin)            469.65   528.61   551.01   578.53   616.61
                              713.28   744.94   786.39   899.35  1118.70
                             1211.99  1258.24  1336.61  1339.60  1417.98
                             1440.52  1489.82  1575.34  1665.64  1675.34
                             1833.19  1853.62  1921.79  1970.05  2019.73
                             2099.39  2332.00  2352.92  2363.20  2370.24
                             4275.40  5008.78  5023.00  5025.71  5051.41
                             5129.03  5141.47  5146.03  5189.51  5454.87

 Zero-point correction=                           0.149932 (Hartree/Particle)
 Thermal correction to Energy=                    0.158280
 Thermal correction to Enthalpy=                  0.159224
 Thermal correction to Gibbs Free Energy=         0.118556
 Sum of electronic and zero-point Energies=           -376.339661
 Sum of electronic and thermal Energies=              -376.331313
 Sum of electronic and thermal Enthalpies=            -376.330369
 Sum of electronic and thermal Free Energies=         -376.371036

                     E (Thermal)             CV                S
                      KCal/Mol        Cal/Mol-Kelvin    Cal/Mol-Kelvin
 Total                   99.322             32.501             85.593
 Electronic               0.000              0.000              0.000
 Translational            0.889              2.981             39.894
 Rotational               0.889              2.981             27.404
 Vibrational             97.545             26.539             18.295
 Vibration     1          0.616              1.910              2.760
 Vibration     2          0.648              1.809              1.950
 Vibration     3          0.665              1.757              1.707
 Vibration     4          0.669              1.745              1.658
 Vibration     5          0.699              1.655              1.362
 Vibration     6          0.710              1.623              1.278
 Vibration     7          0.740              1.539              1.091
 Vibration     8          0.752              1.507              1.027
 Vibration     9          0.768              1.466              0.955
 Vibration    10          0.790              1.408              0.863
 Vibration    11          0.851              1.259              0.669
 Vibration    12          0.873              1.211              0.615
 Vibration    13          0.902              1.147              0.551

 Optimization completed.
    -- Stationary point found.
 Normal termination of Gaussian 09 at Fri Aug 26 07:03:51 2022.

 -----------------------------------------------------------------
 #P Geom=AllCheck Guess=TCheck SCRF=Check CCSD(T,E4T,FrzG4)/GTBas1
 -----------------------------------------------------------------

 Structure from the checkpoint file:  "G4.Frag_1019.chk"
 ---------
 Frag_1019
 ---------
 Charge =  0 Multiplicity = 1

 SCF Done:  E(RHF) =  -374.196265682     A.U. after   12 cycles
 E2 =    -0.1102204400D+01 EUMP2 =    -0.37529847008156D+03
 CCSD(T)
 CCSD(T)= -0.37538465098D+03
 Q=-375.3535029\CCSD=-375.3541789\CCSD(T)=-375.384651\RMSD=2.711e-09\PG
 Normal termination of Gaussian 09 at Fri Aug 26 07:08:13 2022.

 ---------------------------------------------------------
 #P Geom=AllCheck Guess=TCheck SCRF=Check MP4=FrzG4/GTBas2
 ---------------------------------------------------------

 Structure from the checkpoint file:  "G4.Frag_1019.chk"
 ---------
 Frag_1019
 ---------
 Charge =  0 Multiplicity = 1

 SCF Done:  E(RHF) =  -374.213181789     A.U. after   12 cycles
 E2 =    -0.1125139565D+01 EUMP2 =    -0.37533832135315D+03
 Normal termination of Gaussian 09 at Fri Aug 26 07:09:41 2022.

 ---------------------------------------------------------
 #P Geom=AllCheck Guess=TCheck SCRF=Check MP4=FrzG4/GTBas3
 ---------------------------------------------------------

 Structure from the checkpoint file:  "G4.Frag_1019.chk"
 ---------
 Frag_1019
 ---------
 Charge =  0 Multiplicity = 1

 SCF Done:  E(RHF) =  -374.255063254     A.U. after   11 cycles
 E2 =    -0.1355188295D+01 EUMP2 =    -0.37561025154836D+03
 Normal termination of Gaussian 09 at Fri Aug 26 07:22:20 2022.

 -----------------------------------------------------------
 #P Geom=AllCheck Guess=TCheck SCRF=Check MP2=Full/GTLargeXP
 -----------------------------------------------------------

 Structure from the checkpoint file:  "G4.Frag_1019.chk"
 ---------
 Frag_1019
 ---------
 Charge =  0 Multiplicity = 1

 SCF Done:  E(RHF) =  -374.359658366     A.U. after   12 cycles
 E2 =    -0.1761705584D+01 EUMP2 =    -0.37612136395031D+03
 Normal termination of Gaussian 09 at Fri Aug 26 07:26:35 2022.
 SCF Done:  E(RHF) =  -374.388583347     A.U. after    8 cycles
 Normal termination of Gaussian 09 at Fri Aug 26 07:30:02 2022.

                         Standard orientation:
 ---------------------------------------------------------------------
 Center     Atomic      Atomic             Coordinates (Angstroms)
 Number     Number       Type             X           Y           Z
 ---------------------------------------------------------------------
      1          7           0       -1.430371    1.291752   -0.034116
      2          6           0       -0.843131    0.037465   -0.464002
      3          7           0       -1.532010   -1.142047    0.084518
      4          6           0        0.633699   -0.010647    0.006678
      5          7           0        0.649345    0.048538    1.448171
      6          7           0        1.464613    1.076585   -0.476028
      7          8           0        1.140779   -1.221725   -0.556624
      8          1           0       -2.377407    1.382682   -0.387665
      9          1           0       -1.474645    1.292468    0.981492
     10          1           0       -0.821204    0.045203   -1.565532
     11          1           0       -2.492219   -1.163255   -0.246884
     12          1           0       -1.075696   -1.979478   -0.268394
     13          1           0        1.604139    0.029478    1.789159
     14          1           0        0.129799   -0.739320    1.819760
     15          1           0        1.042619    1.951050   -0.175163
     16          1           0        1.439107    1.073379   -1.492235
     17          1           0        2.094830   -1.203111   -0.415418
 ---------------------------------------------------------------------

 SCF Done:  E(RHF) =  -374.395093266     A.U. after    8 cycles

 The electronic state is 1-A.
 Alpha  occ. eigenvalues --  -20.55632 -15.54062 -15.54038 -15.53866 -15.53623
 Alpha  occ. eigenvalues --  -11.33641 -11.28229  -1.38253  -1.23401  -1.19003
 Alpha  occ. eigenvalues --   -1.13408  -1.12146  -0.91490  -0.78437  -0.72334
 Alpha  occ. eigenvalues --   -0.71128  -0.66109  -0.64250  -0.63201  -0.62617
 Alpha  occ. eigenvalues --   -0.58278  -0.56622  -0.55738  -0.51900  -0.48543
 Alpha  occ. eigenvalues --   -0.41759  -0.41001  -0.40791  -0.39725
 Alpha virt. eigenvalues --    0.03498   0.04330   0.05051   0.05328   0.06770
 Alpha virt. eigenvalues --    0.06985   0.07530   0.09172   0.09481   0.11371
 Alpha virt. eigenvalues --    0.11927   0.12285   0.12600   0.12841   0.12935

 Mulliken charges:
               1
     1  N   -0.738268
     2  C    0.133973
     3  N   -0.738877
     4  C    0.533440
     5  N   -0.767108
     6  N   -0.755731
     7  O   -0.627593
     8  H    0.276714
     9  H    0.325315
    10  H    0.146030
    11  H    0.276452
    12  H    0.320849
    13  H    0.294155
    14  H    0.328852
    15  H    0.323303
    16  H    0.291867
    17  H    0.376627
 Sum of Mulliken charges =  -0.00000

 Dipole moment (field-independent basis, Debye):
    X=             -0.8299    Y=             -0.6133    Z=             -0.7760  Tot=              1.2912
 Quadrupole moment (field-independent basis, Debye-Ang):
   XX=            -37.6315   YY=            -45.7714   ZZ=            -42.5502
   XY=             -1.6786   XZ=              2.8596   YZ=             -1.2967

 Normal termination of Gaussian 09 at Fri Aug 26 07:42:28 2022.
