 Gaussian 09, Revision E.01,
 Gaussian 09:  ES64L-G09RevE.01 30-Nov-2015

 ----------------
 #P G4 OPT=calcfc
 ----------------

 --------
 Frag_299
 --------
 Symbolic Z-matrix:
 Charge =  0 Multiplicity = 1

 SCF Done:  E(RB3LYP) =  -285.204110084     A.U. after   12 cycles
 SCF Done:  E(RB3LYP) =  -285.212961998     A.U. after   11 cycles
 SCF Done:  E(RB3LYP) =  -285.214397059     A.U. after   11 cycles
 SCF Done:  E(RB3LYP) =  -285.214487738     A.U. after   10 cycles
 SCF Done:  E(RB3LYP) =  -285.214494126     A.U. after    9 cycles
 SCF Done:  E(RB3LYP) =  -285.214500171     A.U. after    9 cycles
 SCF Done:  E(RB3LYP) =  -285.214500946     A.U. after    6 cycles
 Optimization completed.
    -- Stationary point found.
 Normal termination of Gaussian 09 at Wed Sep  8 12:45:30 2021.

 ----------------------------------------------------------
 #P Geom=AllCheck Guess=TCheck SCRF=Check B3LYP/GTBas3 Freq
 ----------------------------------------------------------

 Structure from the checkpoint file:  "/public/home/users/caep010/.cache/gau_scr/Gau-43865.chk"
 --------
 Frag_299
 --------
 Charge =  0 Multiplicity = 1

 SCF Done:  E(RB3LYP) =  -285.214500946     A.U. after    1 cycles

  Exact polarizability:  60.101  -0.315  54.704   0.004  -0.602  54.589
 Approx polarizability:  77.210  -0.168  78.660   0.368  -0.921  79.244

                      1                      2                      3
                      A                      A                      A
 Frequencies --    175.9972               224.6367               242.8725
 Red. masses --      2.5663                 1.1853                 1.6312
 Frc consts  --      0.0468                 0.0352                 0.0567
 IR Inten    --      4.6467                 5.0595                 4.1664

                      4                      5                      6
                      A                      A                      A
 Frequencies --    268.1245               304.7527               324.7824
 Red. masses --      1.1348                 1.2512                 1.1307
 Frc consts  --      0.0481                 0.0685                 0.0703
 IR Inten    --     20.1304                36.3274                40.4071

                      7                      8                      9
                      A                      A                      A
 Frequencies --    370.8450               379.9829               439.6554
 Red. masses --      2.2774                 2.7002                 2.0950
 Frc consts  --      0.1845                 0.2297                 0.2386
 IR Inten    --      9.7876                 9.0217                 4.3399

                     10                     11                     12
                      A                      A                      A
 Frequencies --    479.7883               563.3644               757.1515
 Red. masses --      2.7654                 2.9795                 3.4085
 Frc consts  --      0.3751                 0.5571                 1.1513
 IR Inten    --      1.6779                19.9569                 3.8210

                     13                     14                     15
                      A                      A                      A
 Frequencies --    863.1802               889.4687               915.3809
 Red. masses --      1.6644                 1.5386                 1.8303
 Frc consts  --      0.7307                 0.7172                 0.9036
 IR Inten    --    115.8468                59.1673               123.2390

                     16                     17                     18
                      A                      A                      A
 Frequencies --    936.4286               964.7231              1015.0878
 Red. masses --      1.2423                 1.5456                 1.4325
 Frc consts  --      0.6418                 0.8476                 0.8697
 IR Inten    --     67.8349                24.6082                27.9228

                     19                     20                     21
                      A                      A                      A
 Frequencies --   1036.1120              1075.5151              1093.1349
 Red. masses --      1.9289                 1.5395                 1.8396
 Frc consts  --      1.2201                 1.0492                 1.2951
 IR Inten    --     50.4885                 8.0316                 1.0282

                     22                     23                     24
                      A                      A                      A
 Frequencies --   1171.3059              1255.2940              1300.5404
 Red. masses --      1.3441                 2.0091                 1.5132
 Frc consts  --      1.0864                 1.8652                 1.5080
 IR Inten    --      5.3446                37.0689                11.0422

                     25                     26                     27
                      A                      A                      A
 Frequencies --   1342.9681              1358.3620              1405.5145
 Red. masses --      1.6669                 1.6675                 1.3645
 Frc consts  --      1.7713                 1.8128                 1.5882
 IR Inten    --     22.9458                 6.4968                10.9249

                     28                     29                     30
                      A                      A                      A
 Frequencies --   1422.6830              1485.7608              1494.0102
 Red. masses --      1.4151                 1.0578                 1.0636
 Frc consts  --      1.6876                 1.3757                 1.3987
 IR Inten    --      3.8066                 0.3735                 2.7372

                     31                     32                     33
                      A                      A                      A
 Frequencies --   1506.6801              1627.9290              1633.0540
 Red. masses --      1.0828                 1.1029                 1.0948
 Frc consts  --      1.4483                 1.7221                 1.7203
 IR Inten    --      3.3651                32.1001                38.7477

                     34                     35                     36
                      A                      A                      A
 Frequencies --   1663.5623              2925.2995              3023.5864
 Red. masses --      1.0961                 1.0723                 1.0379
 Frc consts  --      1.7873                 5.4065                 5.5904
 IR Inten    --     28.1532                85.7419                17.4918

                     37                     38                     39
                      A                      A                      A
 Frequencies --   3045.0035              3089.6187              3111.7360
 Red. masses --      1.0866                 1.0990                 1.1017
 Frc consts  --      5.9362                 6.1812                 6.2853
 IR Inten    --     36.5048                36.2835                22.4110

                     40                     41                     42
                      A                      A                      A
 Frequencies --   3470.6198              3483.5054              3496.0158
 Red. masses --      1.0505                 1.0488                 1.0491
 Frc consts  --      7.4553                 7.4985                 7.5545
 IR Inten    --      7.4801                 1.2934                 4.6411

                     43                     44                     45
                      A                      A                      A
 Frequencies --   3553.6115              3573.0407              3582.7600
 Red. masses --      1.0896                 1.0924                 1.0924
 Frc consts  --      8.1070                 8.2171                 8.2616
 IR Inten    --      4.4650                 0.7587                 3.7350

 - Thermochemistry -
 -------------------
 Temperature   298.150 Kelvin.  Pressure   1.00000 Atm.
 Atom     1 has atomic number  6 and mass  12.00000

 Molecular mass:    89.09530 amu.
 Principal axes and moments of inertia in atomic units:
                           1         2         3
     Eigenvalues --   387.11044 673.93345 683.45069
           X            0.99988  -0.01560  -0.00253
           Y            0.01504   0.98849  -0.15052
           Z            0.00485   0.15046   0.98860
 This molecule is an asymmetric top.
 Rotational symmetry number  1.
 Rotational temperatures (Kelvin)      0.22374     0.12852     0.12673
 Rotational constants (GHZ):           4.66208     2.67792     2.64063
 Zero-point vibrational energy     408784.6 (Joules/Mol)
                                   97.70186 (Kcal/Mol)
 Warning -- explicit consideration of  11 degrees of freedom as
           vibrations may cause significant error
 Vibrational temperatures:    253.22   323.20   349.44   385.77   438.47
          (Kelvin)            467.29   533.56   546.71   632.57   690.31
                              810.55  1089.37  1241.92  1279.75  1317.03
                             1347.31  1388.02  1460.48  1490.73  1547.42
                             1572.78  1685.25  1806.09  1871.19  1932.23
                             1954.38  2022.22  2046.92  2137.68  2149.54
                             2167.77  2342.22  2349.60  2393.49  4208.85
                             4350.26  4381.08  4445.27  4477.09  4993.44
                             5011.98  5029.98  5112.85  5140.80  5154.79

 Zero-point correction=                           0.155698 (Hartree/Particle)
 Thermal correction to Energy=                    0.163346
 Thermal correction to Enthalpy=                  0.164290
 Thermal correction to Gibbs Free Energy=         0.125311
 Sum of electronic and zero-point Energies=           -285.058803
 Sum of electronic and thermal Energies=              -285.051155
 Sum of electronic and thermal Enthalpies=            -285.050211
 Sum of electronic and thermal Free Energies=         -285.089190

                     E (Thermal)             CV                S
                      KCal/Mol        Cal/Mol-Kelvin    Cal/Mol-Kelvin
 Total                  102.501             29.057             82.038
 Electronic               0.000              0.000              0.000
 Translational            0.889              2.981             39.374
 Rotational               0.889              2.981             26.680
 Vibrational            100.724             23.095             15.984
 Vibration     1          0.628              1.872              2.370
 Vibration     2          0.649              1.804              1.921
 Vibration     3          0.659              1.775              1.782
 Vibration     4          0.673              1.732              1.608
 Vibration     5          0.696              1.665              1.391
 Vibration     6          0.709              1.626              1.286
 Vibration     7          0.743              1.532              1.076
 Vibration     8          0.750              1.513              1.039
 Vibration     9          0.800              1.384              0.828
 Vibration    10          0.836              1.295              0.711
 Vibration    11          0.919              1.111              0.517

 Optimization completed.
    -- Stationary point found.
 Normal termination of Gaussian 09 at Wed Sep  8 12:46:11 2021.

 -----------------------------------------------------------------
 #P Geom=AllCheck Guess=TCheck SCRF=Check CCSD(T,E4T,FrzG4)/GTBas1
 -----------------------------------------------------------------

 Structure from the checkpoint file:  "/public/home/users/caep010/.cache/gau_scr/Gau-43865.chk"
 --------
 Frag_299
 --------
 Charge =  0 Multiplicity = 1

 SCF Done:  E(RHF) =  -283.333589818     A.U. after   12 cycles
 E2 =    -0.8929002404D+00 EUMP2 =    -0.28422649005863D+03
 CCSD(T)
 CCSD(T)= -0.28431399909D+03
 284.286617\CCSD=-284.2879107\CCSD(T)=-284.3139991\RMSD=1.734e-09\PG=C0
 Normal termination of Gaussian 09 at Wed Sep  8 12:48:51 2021.

 ---------------------------------------------------------
 #P Geom=AllCheck Guess=TCheck SCRF=Check MP4=FrzG4/GTBas2
 ---------------------------------------------------------

 Structure from the checkpoint file:  "/public/home/users/caep010/.cache/gau_scr/Gau-43865.chk"
 --------
 Frag_299
 --------
 Charge =  0 Multiplicity = 1

 SCF Done:  E(RHF) =  -283.344626965     A.U. after   12 cycles
 E2 =    -0.9082891166D+00 EUMP2 =    -0.28425291608117D+03
 Normal termination of Gaussian 09 at Wed Sep  8 12:49:43 2021.

 ---------------------------------------------------------
 #P Geom=AllCheck Guess=TCheck SCRF=Check MP4=FrzG4/GTBas3
 ---------------------------------------------------------

 Structure from the checkpoint file:  "/public/home/users/caep010/.cache/gau_scr/Gau-43865.chk"
 --------
 Frag_299
 --------
 Charge =  0 Multiplicity = 1

 SCF Done:  E(RHF) =  -283.378388874     A.U. after   10 cycles
 E2 =    -0.1103741796D+01 EUMP2 =    -0.28448213066958D+03
 Normal termination of Gaussian 09 at Wed Sep  8 12:54:51 2021.

 -----------------------------------------------------------
 #P Geom=AllCheck Guess=TCheck SCRF=Check MP2=Full/GTLargeXP
 -----------------------------------------------------------

 Structure from the checkpoint file:  "/public/home/users/caep010/.cache/gau_scr/Gau-43865.chk"
 --------
 Frag_299
 --------
 Charge =  0 Multiplicity = 1

 SCF Done:  E(RHF) =  -283.450572478     A.U. after   12 cycles
 E2 =    -0.1439804285D+01 EUMP2 =    -0.28489037676319D+03
 Normal termination of Gaussian 09 at Wed Sep  8 12:57:17 2021.
 SCF Done:  E(RHF) =  -283.472450774     A.U. after    8 cycles
 Normal termination of Gaussian 09 at Wed Sep  8 12:59:56 2021.

                         Standard orientation:
 ---------------------------------------------------------------------
 Center     Atomic      Atomic             Coordinates (Angstroms)
 Number     Number       Type             X           Y           Z
 ---------------------------------------------------------------------
      1          6           0        1.680497   -0.816096   -0.233902
      2          6           0        0.418025    0.020840    0.012380
      3          7           0        0.454678    0.537674    1.381948
      4          7           0        0.337173    1.211533   -0.854981
      5          6           0       -0.849882   -0.819125   -0.277355
      6          7           0       -2.036591   -0.042907    0.076157
      7          1           0        1.710213   -1.704049    0.409181
      8          1           0        2.571924   -0.216139   -0.028472
      9          1           0        1.722593   -1.158726   -1.273147
     10          1           0        0.671827   -0.223240    2.019378
     11          1           0       -0.490887    0.838327    1.613742
     12          1           0        1.033024    1.879096   -0.535885
     13          1           0        0.569528    0.962213   -1.812570
     14          1           0       -0.822563   -1.146641   -1.333175
     15          1           0       -0.824485   -1.726931    0.337938
     16          1           0       -2.037984    0.800146   -0.491332
     17          1           0       -2.881856   -0.561863   -0.134265
 ---------------------------------------------------------------------

 SCF Done:  E(RHF) =  -283.477305637     A.U. after    8 cycles

 The electronic state is 1-A.
 Alpha  occ. eigenvalues --  -15.53407 -15.53271 -15.52801 -11.28491 -11.24478
 Alpha  occ. eigenvalues --  -11.21549  -1.23364  -1.15890  -1.11666  -0.98558
 Alpha  occ. eigenvalues --   -0.90079  -0.76855  -0.68464  -0.66496  -0.62942
 Alpha  occ. eigenvalues --   -0.61558  -0.59395  -0.55964  -0.55144  -0.52141
 Alpha  occ. eigenvalues --   -0.50982  -0.49159  -0.40023  -0.39820  -0.38219
 Alpha virt. eigenvalues --    0.03197   0.04291   0.04959   0.05374   0.06811
 Alpha virt. eigenvalues --    0.07227   0.07420   0.07697   0.08165   0.09852
 Alpha virt. eigenvalues --    0.11123   0.11859   0.12783   0.13112   0.13439

 Mulliken charges:
               1
     1  C   -0.570415
     2  C    0.422294
     3  N   -0.745123
     4  N   -0.784094
     5  C   -0.192899
     6  N   -0.725280
     7  H    0.157568
     8  H    0.181780
     9  H    0.164849
    10  H    0.280861
    11  H    0.323927
    12  H    0.316308
    13  H    0.285471
    14  H    0.126237
    15  H    0.152584
    16  H    0.321758
    17  H    0.284174
 Sum of Mulliken charges =  -0.00000

 Dipole moment (field-independent basis, Debye):
    X=              0.1666    Y=             -1.7577    Z=             -1.4320  Tot=              2.2733
 Quadrupole moment (field-independent basis, Debye-Ang):
   XX=            -38.0162   YY=            -40.1487   ZZ=            -38.1205
   XY=              1.0591   XZ=              0.1312   YZ=             -2.2694

 Normal termination of Gaussian 09 at Wed Sep  8 13:09:29 2021.
