 Gaussian 09, Revision E.01,
 Gaussian 09:  ES64L-G09RevE.01 30-Nov-2015

 -----
 #P G4
 -----

 --------
 Frag_655
 --------
 Symbolic Z-matrix:
 Charge =  0 Multiplicity = 1

 SCF Done:  E(RB3LYP) =  -285.576396938     A.U. after   13 cycles
 SCF Done:  E(RB3LYP) =  -285.584444266     A.U. after   12 cycles
 SCF Done:  E(RB3LYP) =  -285.585767003     A.U. after   11 cycles
 SCF Done:  E(RB3LYP) =  -285.586250162     A.U. after   11 cycles
 SCF Done:  E(RB3LYP) =  -285.586537146     A.U. after   11 cycles
 SCF Done:  E(RB3LYP) =  -285.586700102     A.U. after   11 cycles
 SCF Done:  E(RB3LYP) =  -285.586839307     A.U. after   11 cycles
 SCF Done:  E(RB3LYP) =  -285.586867741     A.U. after   10 cycles
 SCF Done:  E(RB3LYP) =  -285.586871944     A.U. after    8 cycles
 SCF Done:  E(RB3LYP) =  -285.586873694     A.U. after    8 cycles
 SCF Done:  E(RB3LYP) =  -285.586874173     A.U. after    7 cycles
 SCF Done:  E(RB3LYP) =  -285.586874275     A.U. after    6 cycles
 Optimization completed.
    -- Stationary point found.
 Normal termination of Gaussian 09 at Fri Aug 26 14:59:32 2022.

 ----------------------------------------------------------
 #P Geom=AllCheck Guess=TCheck SCRF=Check B3LYP/GTBas3 Freq
 ----------------------------------------------------------

 Structure from the checkpoint file:  "G4.Frag_655.chk"
 --------
 Frag_655
 --------
 Charge =  0 Multiplicity = 1

 SCF Done:  E(RB3LYP) =  -285.586874275     A.U. after    1 cycles

  Exact polarizability:  48.197  -0.569  37.490  -0.118  -1.476  34.096
 Approx polarizability:  58.439   0.074  53.316  -1.023  -0.857  49.907

                      1                      2                      3
                      A                      A                      A
 Frequencies --    119.0605               167.7180               216.6098
 Red. masses --      1.4638                 2.1589                 1.0661
 Frc consts  --      0.0122                 0.0358                 0.0295
 IR Inten    --     36.2708                 9.7705                 0.3195

                      4                      5                      6
                      A                      A                      A
 Frequencies --    305.5436               350.9247               387.3172
 Red. masses --      3.1022                 1.2290                 2.3373
 Frc consts  --      0.1706                 0.0892                 0.2066
 IR Inten    --      6.7057                61.7083                27.9186

                      7                      8                      9
                      A                      A                      A
 Frequencies --    544.1123               578.8282               848.8206
 Red. masses --      2.8036                 4.6407                 2.2378
 Frc consts  --      0.4890                 0.9161                 0.9499
 IR Inten    --     17.6551                30.5843                 6.3087

                     10                     11                     12
                      A                      A                      A
 Frequencies --    907.4873               975.1714              1063.6406
 Red. masses --      2.6702                 4.3282                 1.6317
 Frc consts  --      1.2956                 2.4250                 1.0876
 IR Inten    --     40.1832                29.5143                83.6682

                     13                     14                     15
                      A                      A                      A
 Frequencies --   1107.4963              1141.2423              1234.6480
 Red. masses --      2.2095                 2.3722                 1.4719
 Frc consts  --      1.5967                 1.8204                 1.3219
 IR Inten    --     61.5063                85.9209                83.5432

                     16                     17                     18
                      A                      A                      A
 Frequencies --   1310.8309              1335.5436              1373.6700
 Red. masses --      1.4507                 1.1990                 1.2485
 Frc consts  --      1.4687                 1.2600                 1.3880
 IR Inten    --      6.6769                16.6016                 7.8345

                     19                     20                     21
                      A                      A                      A
 Frequencies --   1405.3027              1441.5477              1483.9071
 Red. masses --      1.2961                 1.2375                 1.0489
 Frc consts  --      1.5081                 1.5151                 1.3608
 IR Inten    --     14.8042                54.0029                 2.5230

                     22                     23                     24
                      A                      A                      A
 Frequencies --   1493.4940              1637.5413              3041.2278
 Red. masses --      1.0555                 1.0709                 1.0396
 Frc consts  --      1.3871                 1.6920                 5.6652
 IR Inten    --      5.3714                22.4112                 8.8588

                     25                     26                     27
                      A                      A                      A
 Frequencies --   3059.9581              3116.9759              3138.7883
 Red. masses --      1.0834                 1.0977                 1.1030
 Frc consts  --      5.9768                 6.2836                 6.4025
 IR Inten    --     23.4424                27.3653                14.8943

                     28                     29                     30
                      A                      A                      A
 Frequencies --   3417.8341              3524.1100              3782.6459
 Red. masses --      1.0511                 1.0912                 1.0653
 Frc consts  --      7.2342                 7.9845                 8.9809
 IR Inten    --      1.8333                 0.9424                12.8982

 - Thermochemistry -
 -------------------
 Temperature   298.150 Kelvin.  Pressure   1.00000 Atm.
 Atom     1 has atomic number  6 and mass  12.00000

 Molecular mass:    77.04768 amu.
 Principal axes and moments of inertia in atomic units:
                           1         2         3
     Eigenvalues --   211.47266 460.65472 613.26774
           X            0.99906  -0.04321   0.00344
           Y            0.04330   0.99857  -0.03127
           Z           -0.00208   0.03139   0.99951
 This molecule is an asymmetric top.
 Rotational symmetry number  1.
 Rotational temperatures (Kelvin)      0.40957     0.18802     0.14123
 Rotational constants (GHZ):           8.53416     3.91777     2.94283
 Zero-point vibrational energy     266240.9 (Joules/Mol)
                                   63.63310 (Kcal/Mol)
 Warning -- explicit consideration of   8 degrees of freedom as
           vibrations may cause significant error
 Vibrational temperatures:    171.30   241.31   311.65   439.61   504.90
          (Kelvin)            557.26   782.86   832.80  1221.26  1305.67
                             1403.05  1530.34  1593.44  1641.99  1776.38
                             1885.99  1921.55  1976.40  2021.91  2074.06
                             2135.01  2148.80  2356.05  4375.64  4402.59
                             4484.63  4516.01  4917.49  5070.40  5442.38

 Zero-point correction=                           0.101406 (Hartree/Particle)
 Thermal correction to Energy=                    0.107849
 Thermal correction to Enthalpy=                  0.108793
 Thermal correction to Gibbs Free Energy=         0.071986
 Sum of electronic and zero-point Energies=           -285.485468
 Sum of electronic and thermal Energies=              -285.479026
 Sum of electronic and thermal Enthalpies=            -285.478081
 Sum of electronic and thermal Free Energies=         -285.514888

                     E (Thermal)             CV                S
                      KCal/Mol        Cal/Mol-Kelvin    Cal/Mol-Kelvin
 Total                   67.676             21.829             77.466
 Electronic               0.000              0.000              0.000
 Translational            0.889              2.981             38.941
 Rotational               0.889              2.981             25.594
 Vibrational             65.899             15.868             12.931
 Vibration     1          0.609              1.933              3.116
 Vibration     2          0.624              1.882              2.461
 Vibration     3          0.645              1.816              1.987
 Vibration     4          0.696              1.663              1.386
 Vibration     5          0.728              1.573              1.162
 Vibration     6          0.756              1.497              1.010
 Vibration     7          0.899              1.153              0.557
 Vibration     8          0.935              1.077              0.488

 Optimization completed.
    -- Stationary point found.
 Normal termination of Gaussian 09 at Fri Aug 26 14:59:52 2022.

 -----------------------------------------------------------------
 #P Geom=AllCheck Guess=TCheck SCRF=Check CCSD(T,E4T,FrzG4)/GTBas1
 -----------------------------------------------------------------

 Structure from the checkpoint file:  "G4.Frag_655.chk"
 --------
 Frag_655
 --------
 Charge =  0 Multiplicity = 1

 SCF Done:  E(RHF) =  -283.909230514     A.U. after   12 cycles
 E2 =    -0.7855886378D+00 EUMP2 =    -0.28469481915169D+03
 CCSD(T)
 CCSD(T)= -0.28475800721D+03
 48\CCSD=-284.73661\CCSD(T)=-284.7580072\RMSD=9.706e-09\PG=C01 [X(C2H7N
 Normal termination of Gaussian 09 at Fri Aug 26 15:00:51 2022.

 ---------------------------------------------------------
 #P Geom=AllCheck Guess=TCheck SCRF=Check MP4=FrzG4/GTBas2
 ---------------------------------------------------------

 Structure from the checkpoint file:  "G4.Frag_655.chk"
 --------
 Frag_655
 --------
 Charge =  0 Multiplicity = 1

 SCF Done:  E(RHF) =  -283.919501470     A.U. after   12 cycles
 E2 =    -0.7999782548D+00 EUMP2 =    -0.28471947972487D+03
 Normal termination of Gaussian 09 at Fri Aug 26 15:01:09 2022.

 ---------------------------------------------------------
 #P Geom=AllCheck Guess=TCheck SCRF=Check MP4=FrzG4/GTBas3
 ---------------------------------------------------------

 Structure from the checkpoint file:  "G4.Frag_655.chk"
 --------
 Frag_655
 --------
 Charge =  0 Multiplicity = 1

 SCF Done:  E(RHF) =  -283.946737043     A.U. after   12 cycles
 E2 =    -0.9758334862D+00 EUMP2 =    -0.28492257052950D+03
 Normal termination of Gaussian 09 at Fri Aug 26 15:02:40 2022.

 -----------------------------------------------------------
 #P Geom=AllCheck Guess=TCheck SCRF=Check MP2=Full/GTLargeXP
 -----------------------------------------------------------

 Structure from the checkpoint file:  "G4.Frag_655.chk"
 --------
 Frag_655
 --------
 Charge =  0 Multiplicity = 1

 SCF Done:  E(RHF) =  -284.027253056     A.U. after   12 cycles
 E2 =    -0.1268831099D+01 EUMP2 =    -0.28529608415560D+03
 Normal termination of Gaussian 09 at Fri Aug 26 15:03:30 2022.
 SCF Done:  E(RHF) =  -284.050613470     A.U. after    9 cycles
 Normal termination of Gaussian 09 at Fri Aug 26 15:04:31 2022.

                         Standard orientation:
 ---------------------------------------------------------------------
 Center     Atomic      Atomic             Coordinates (Angstroms)
 Number     Number       Type             X           Y           Z
 ---------------------------------------------------------------------
      1          6           0        1.670801   -0.726585   -0.016248
      2          6           0        0.404167    0.041426    0.330136
      3          8           0        0.479333    1.404795   -0.025099
      4          8           0       -0.650865   -0.607118   -0.338848
      5          7           0       -1.902282   -0.123631    0.195820
      6          1           0        2.534813   -0.236941    0.438439
      7          1           0        1.609907   -1.756183    0.344431
      8          1           0        1.810147   -0.754231   -1.102869
      9          1           0        0.200899    0.046938    1.406626
     10          1           0        0.756244    1.445132   -0.948705
     11          1           0       -2.123373    0.698084   -0.370331
     12          1           0       -2.550210   -0.847839   -0.110082
 ---------------------------------------------------------------------

 SCF Done:  E(RHF) =  -284.055757005     A.U. after    8 cycles

 The electronic state is 1-A.
 Alpha  occ. eigenvalues --  -20.58568 -20.56164 -15.60568 -11.32996 -11.22182
 Alpha  occ. eigenvalues --   -1.42934  -1.35152  -1.10585  -0.98751  -0.84363
 Alpha  occ. eigenvalues --   -0.71446  -0.68883  -0.66815  -0.61570  -0.60836
 Alpha  occ. eigenvalues --   -0.55255  -0.54147  -0.50762  -0.48008  -0.46713
 Alpha  occ. eigenvalues --   -0.41611
 Alpha virt. eigenvalues --    0.04005   0.04666   0.05361   0.05794   0.07558
 Alpha virt. eigenvalues --    0.07756   0.08369   0.09855   0.10584   0.11475
 Alpha virt. eigenvalues --    0.13425   0.14311   0.14954   0.17568   0.17796

 Mulliken charges:
               1
     1  C   -0.506410
     2  C    0.248798
     3  O   -0.593431
     4  O   -0.324905
     5  N   -0.517339
     6  H    0.189907
     7  H    0.184704
     8  H    0.169252
     9  H    0.168553
    10  H    0.361220
    11  H    0.307046
    12  H    0.312604
 Sum of Mulliken charges =  -0.00000

 Dipole moment (field-independent basis, Debye):
    X=              0.0243    Y=             -0.5771    Z=             -1.4466  Tot=              1.5576
 Quadrupole moment (field-independent basis, Debye-Ang):
   XX=            -25.5773   YY=            -33.0955   ZZ=            -30.3551
   XY=             -0.1893   XZ=              1.6069   YZ=             -3.1882

 Normal termination of Gaussian 09 at Fri Aug 26 15:10:52 2022.
