 Gaussian 09, Revision E.01,
 Gaussian 09:  ES64L-G09RevE.01 30-Nov-2015

 -----
 #P G4
 -----

 --------
 Frag_877
 --------
 Symbolic Z-matrix:
 Charge =  0 Multiplicity = 1

 SCF Done:  E(RB3LYP) =  -204.050638716     A.U. after   14 cycles
 SCF Done:  E(RB3LYP) =  -204.068188263     A.U. after   14 cycles
 SCF Done:  E(RB3LYP) =  -204.062718840     A.U. after   15 cycles
 SCF Done:  E(RB3LYP) =  -204.069909360     A.U. after   11 cycles
 SCF Done:  E(RB3LYP) =  -204.069829562     A.U. after   13 cycles
 SCF Done:  E(RB3LYP) =  -204.070300558     A.U. after   10 cycles
 SCF Done:  E(RB3LYP) =  -204.070492843     A.U. after   12 cycles
 SCF Done:  E(RB3LYP) =  -204.070757252     A.U. after   11 cycles
 SCF Done:  E(RB3LYP) =  -204.070783091     A.U. after    9 cycles
 SCF Done:  E(RB3LYP) =  -204.070785154     A.U. after    8 cycles
 Optimization completed.
    -- Stationary point found.
 Normal termination of Gaussian 09 at Fri Aug 26 06:34:49 2022.

 ----------------------------------------------------------
 #P Geom=AllCheck Guess=TCheck SCRF=Check B3LYP/GTBas3 Freq
 ----------------------------------------------------------

 Structure from the checkpoint file:  "G4.Frag_877.chk"
 --------
 Frag_877
 --------
 Charge =  0 Multiplicity = 1

 SCF Done:  E(RB3LYP) =  -204.070785154     A.U. after    1 cycles

  Exact polarizability:  47.828  -1.101  26.113  -0.001   0.000  20.887
 Approx polarizability:  81.090  -9.251  42.320  -0.001   0.001  29.898

                      1                      2                      3
                      A                      A                      A
 Frequencies --    154.9774               231.3492               580.9320
 Red. masses --      1.1156                 4.6474                11.4325
 Frc consts  --      0.0158                 0.1466                 2.2732
 IR Inten    --      0.5072                31.8583                14.7140

                      4                      5                      6
                      A                      A                      A
 Frequencies --    670.9703               757.9793              1050.5998
 Red. masses --      5.8675                 7.4970                 1.2107
 Frc consts  --      1.5563                 2.5378                 0.7873
 IR Inten    --      1.6206                14.4786                15.3440

                      7                      8                      9
                      A                      A                      A
 Frequencies --   1059.0400              1198.3497              1469.3342
 Red. masses --      2.2888                 2.7125                 1.1253
 Frc consts  --      1.5125                 2.2950                 1.4314
 IR Inten    --     20.0642                21.2751                25.5736

                     10                     11                     12
                      A                      A                      A
 Frequencies --   1633.6093              1652.5799              2247.0271
 Red. masses --      1.0552                 1.0511                12.4542
 Frc consts  --      1.6591                 1.6914                37.0496
 IR Inten    --     32.2666                46.2643               136.7110

                     13                     14                     15
                      A                      A                      A
 Frequencies --   3290.5551              3335.4373              3514.5785
 Red. masses --      1.0318                 1.0965                 1.0839
 Frc consts  --      6.5826                 7.1870                 7.8886
 IR Inten    --     27.8270                 6.1463                61.5633

 - Thermochemistry -
 -------------------
 Temperature   298.150 Kelvin.  Pressure   1.00000 Atm.
 Atom     1 has atomic number  7 and mass  14.00307

 Molecular mass:    57.03270 amu.
 Principal axes and moments of inertia in atomic units:
                           1         2         3
     Eigenvalues --    50.91186 339.67637 380.70310
           X            0.99957   0.02926  -0.00000
           Y           -0.02926   0.99957  -0.00000
           Z            0.00000   0.00000   1.00000
 This molecule is an asymmetric top.
 Rotational symmetry number  1.
 Rotational temperatures (Kelvin)      1.70125     0.25499     0.22751
 Rotational constants (GHZ):          35.44835     5.31312     4.74055
 Zero-point vibrational energy     136657.3 (Joules/Mol)
                                   32.66188 (Kcal/Mol)
 Warning -- explicit consideration of   3 degrees of freedom as
           vibrations may cause significant error
 Vibrational temperatures:    222.98   332.86   835.83   965.38  1090.56
          (Kelvin)           1511.58  1523.72  1724.16  2114.04  2350.40
                             2377.69  3232.97  4734.37  4798.94  5056.69

 Zero-point correction=                           0.052050 (Hartree/Particle)
 Thermal correction to Energy=                    0.056505
 Thermal correction to Enthalpy=                  0.057449
 Thermal correction to Gibbs Free Energy=         0.025514
 Sum of electronic and zero-point Energies=           -204.018735
 Sum of electronic and thermal Energies=              -204.014280
 Sum of electronic and thermal Enthalpies=            -204.013336
 Sum of electronic and thermal Free Energies=         -204.045271

                     E (Thermal)             CV                S
                      KCal/Mol        Cal/Mol-Kelvin    Cal/Mol-Kelvin
 Total                   35.458             13.359             67.214
 Electronic               0.000              0.000              0.000
 Translational            0.889              2.981             38.044
 Rotational               0.889              2.981             23.403
 Vibrational             33.680              7.397              5.767
 Vibration     1          0.620              1.897              2.610
 Vibration     2          0.653              1.793              1.868
 Vibration     3          0.938              1.073              0.484

 Optimization completed.
    -- Stationary point found.
 Normal termination of Gaussian 09 at Fri Aug 26 06:35:00 2022.

 -----------------------------------------------------------------
 #P Geom=AllCheck Guess=TCheck SCRF=Check CCSD(T,E4T,FrzG4)/GTBas1
 -----------------------------------------------------------------

 Structure from the checkpoint file:  "G4.Frag_877.chk"
 --------
 Frag_877
 --------
 Charge =  0 Multiplicity = 1

 SCF Done:  E(RHF) =  -202.847446134     A.U. after   14 cycles
 E2 =    -0.6095168723D+00 EUMP2 =    -0.20345696300629D+03
 CCSD(T)
 CCSD(T)= -0.20349927710D+03
 CCSD(T)=-203.4992771\RMSD=2.970e-09\PG=C01 [X(C1H3N3)]\\@
 Normal termination of Gaussian 09 at Fri Aug 26 06:35:17 2022.

 ---------------------------------------------------------
 #P Geom=AllCheck Guess=TCheck SCRF=Check MP4=FrzG4/GTBas2
 ---------------------------------------------------------

 Structure from the checkpoint file:  "G4.Frag_877.chk"
 --------
 Frag_877
 --------
 Charge =  0 Multiplicity = 1

 SCF Done:  E(RHF) =  -202.857025874     A.U. after   13 cycles
 E2 =    -0.6179584416D+00 EUMP2 =    -0.20347498431571D+03
 Normal termination of Gaussian 09 at Fri Aug 26 06:35:23 2022.

 ---------------------------------------------------------
 #P Geom=AllCheck Guess=TCheck SCRF=Check MP4=FrzG4/GTBas3
 ---------------------------------------------------------

 Structure from the checkpoint file:  "G4.Frag_877.chk"
 --------
 Frag_877
 --------
 Charge =  0 Multiplicity = 1

 SCF Done:  E(RHF) =  -202.873756300     A.U. after   12 cycles
 E2 =    -0.7220906465D+00 EUMP2 =    -0.20359584694662D+03
 Normal termination of Gaussian 09 at Fri Aug 26 06:35:42 2022.

 -----------------------------------------------------------
 #P Geom=AllCheck Guess=TCheck SCRF=Check MP2=Full/GTLargeXP
 -----------------------------------------------------------

 Structure from the checkpoint file:  "G4.Frag_877.chk"
 --------
 Frag_877
 --------
 Charge =  0 Multiplicity = 1

 SCF Done:  E(RHF) =  -202.930392028     A.U. after   14 cycles
 E2 =    -0.9431582693D+00 EUMP2 =    -0.20387355029768D+03
 Normal termination of Gaussian 09 at Fri Aug 26 06:35:57 2022.
 SCF Done:  E(RHF) =  -202.945728539     A.U. after   10 cycles
 Normal termination of Gaussian 09 at Fri Aug 26 06:36:16 2022.

                         Standard orientation:
 ---------------------------------------------------------------------
 Center     Atomic      Atomic             Coordinates (Angstroms)
 Number     Number       Type             X           Y           Z
 ---------------------------------------------------------------------
      1          7           0        1.850150   -0.316979   -0.000010
      2          6           0        0.782278    0.166778    0.000026
      3          7           0       -0.405131    0.753290    0.000001
      4          7           0       -1.401042   -0.329187   -0.000003
      5          1           0       -1.344795   -0.937486    0.829324
      6          1           0       -1.343012   -0.939165   -0.827969
      7          1           0       -2.313695    0.126113   -0.001417
 ---------------------------------------------------------------------

 SCF Done:  E(RHF) =  -202.948831602     A.U. after    8 cycles

 The electronic state is 1-A.
 Alpha  occ. eigenvalues --  -15.74098 -15.57558 -15.52237 -11.26472  -1.36874
 Alpha  occ. eigenvalues --   -1.18690  -1.09542  -0.81195  -0.79325  -0.71957
 Alpha  occ. eigenvalues --   -0.54307  -0.51229  -0.50847  -0.40676  -0.34639
 Alpha virt. eigenvalues --    0.00713   0.04539   0.04718   0.06389   0.07703
 Alpha virt. eigenvalues --    0.08295   0.08852   0.11540   0.12457   0.13356
 Alpha virt. eigenvalues --    0.14841   0.15794   0.16437   0.17254   0.17857

 Mulliken charges:
               1
     1  N   -0.509530
     2  C    0.380178
     3  N   -0.535781
     4  N   -0.441501
     5  H    0.366063
     6  H    0.366025
     7  H    0.374544
 Sum of Mulliken charges =  -0.00000

 Dipole moment (field-independent basis, Debye):
    X=             -8.1053    Y=             -2.6662    Z=             -0.0000  Tot=              8.5326
 Quadrupole moment (field-independent basis, Debye-Ang):
   XX=            -22.9833   YY=            -24.9513   ZZ=            -23.0874
   XY=              5.6687   XZ=              0.0004   YZ=             -0.0001

 Normal termination of Gaussian 09 at Fri Aug 26 06:37:52 2022.
