 Gaussian 09, Revision E.01,
 Gaussian 09:  ES64L-G09RevE.01 30-Nov-2015

 -----
 #P G4
 -----

 --------
 Frag_914
 --------
 Symbolic Z-matrix:
 Charge =  0 Multiplicity = 1

 SCF Done:  E(RB3LYP) =  -305.075273245     A.U. after   12 cycles
 SCF Done:  E(RB3LYP) =  -305.082371090     A.U. after   11 cycles
 SCF Done:  E(RB3LYP) =  -305.083240468     A.U. after   11 cycles
 SCF Done:  E(RB3LYP) =  -305.083742958     A.U. after   11 cycles
 SCF Done:  E(RB3LYP) =  -305.083812308     A.U. after   11 cycles
 SCF Done:  E(RB3LYP) =  -305.083928239     A.U. after   10 cycles
 SCF Done:  E(RB3LYP) =  -305.083945630     A.U. after    9 cycles
 SCF Done:  E(RB3LYP) =  -305.083955102     A.U. after    9 cycles
 SCF Done:  E(RB3LYP) =  -305.083961107     A.U. after    8 cycles
 SCF Done:  E(RB3LYP) =  -305.083962886     A.U. after    7 cycles
 SCF Done:  E(RB3LYP) =  -305.083963075     A.U. after    6 cycles
 Optimization completed.
    -- Stationary point found.
 Normal termination of Gaussian 09 at Fri Aug 26 09:09:15 2022.

 ----------------------------------------------------------
 #P Geom=AllCheck Guess=TCheck SCRF=Check B3LYP/GTBas3 Freq
 ----------------------------------------------------------

 Structure from the checkpoint file:  "G4.Frag_914.chk"
 --------
 Frag_914
 --------
 Charge =  0 Multiplicity = 1

 SCF Done:  E(RB3LYP) =  -305.083963075     A.U. after    1 cycles

  Exact polarizability:  58.010   0.898  53.416  -0.564   0.089  47.346
 Approx polarizability:  73.499  -0.553  73.182  -0.846   0.696  72.057

                      1                      2                      3
                      A                      A                      A
 Frequencies --     97.5362               218.4532               246.8128
 Red. masses --      3.6572                 1.1084                 2.7120
 Frc consts  --      0.0205                 0.0312                 0.0973
 IR Inten    --      1.6646                 0.7598                 8.8480

                      4                      5                      6
                      A                      A                      A
 Frequencies --    275.6160               281.0082               317.9991
 Red. masses --      1.0589                 1.1345                 1.1494
 Frc consts  --      0.0474                 0.0528                 0.0685
 IR Inten    --     79.4681                10.2321                48.1425

                      7                      8                      9
                      A                      A                      A
 Frequencies --    357.0148               398.8759               455.9179
 Red. masses --      2.9347                 2.1192                 2.8975
 Frc consts  --      0.2204                 0.1987                 0.3549
 IR Inten    --      9.5748                25.7973                19.1215

                     10                     11                     12
                      A                      A                      A
 Frequencies --    487.6195               561.2418               829.4647
 Red. masses --      3.2207                 2.8596                 1.9601
 Frc consts  --      0.4512                 0.5307                 0.7945
 IR Inten    --     26.4216                14.8002                49.7404

                     13                     14                     15
                      A                      A                      A
 Frequencies --    835.6321               920.7291               949.1386
 Red. masses --      1.7832                 1.7847                 1.5737
 Frc consts  --      0.7337                 0.8914                 0.8353
 IR Inten    --     87.2701                89.0239                54.3777

                     16                     17                     18
                      A                      A                      A
 Frequencies --   1012.1660              1030.2572              1061.8165
 Red. masses --      1.5111                 2.8467                 1.5349
 Frc consts  --      0.9121                 1.7803                 1.0196
 IR Inten    --     21.9835               162.1579                32.0645

                     19                     20                     21
                      A                      A                      A
 Frequencies --   1093.4946              1159.5607              1219.9127
 Red. masses --      1.9202                 2.0698                 1.8149
 Frc consts  --      1.3528                 1.6397                 1.5914
 IR Inten    --     16.5038                 8.4315                21.1400

                     22                     23                     24
                      A                      A                      A
 Frequencies --   1229.0438              1286.4385              1360.7718
 Red. masses --      1.2081                 1.5358                 1.2576
 Frc consts  --      1.0752                 1.4975                 1.3720
 IR Inten    --     39.1505                 1.7564                 2.3526

                     25                     26                     27
                      A                      A                      A
 Frequencies --   1382.0048              1388.9908              1411.3226
 Red. masses --      1.2184                 1.2412                 1.4322
 Frc consts  --      1.3711                 1.4109                 1.6807
 IR Inten    --      1.0682                 3.8217                 9.5045

                     28                     29                     30
                      A                      A                      A
 Frequencies --   1450.7117              1493.1950              1497.9533
 Red. masses --      1.5822                 1.0464                 1.0619
 Frc consts  --      1.9619                 1.3746                 1.4039
 IR Inten    --     17.8434                 6.3600                 1.1006

                     31                     32                     33
                      A                      A                      A
 Frequencies --   1658.2612              1666.2972              2973.8619
 Red. masses --      1.0974                 1.0899                 1.0814
 Frc consts  --      1.7779                 1.7829                 5.6349
 IR Inten    --     22.3023                24.5208                22.3195

                     34                     35                     36
                      A                      A                      A
 Frequencies --   2996.5282              3027.1033              3102.0805
 Red. masses --      1.0841                 1.0465                 1.0905
 Frc consts  --      5.7351                 5.6500                 6.1826
 IR Inten    --     51.2041                40.2402                28.6155

                     37                     38                     39
                      A                      A                      A
 Frequencies --   3148.0036              3466.2407              3487.9344
 Red. masses --      1.1005                 1.0493                 1.0486
 Frc consts  --      6.4256                 7.4278                 7.5160
 IR Inten    --     12.8425                 3.2965                 0.2543

                     40                     41                     42
                      A                      A                      A
 Frequencies --   3545.4612              3572.4586              3814.1503
 Red. masses --      1.0906                 1.0928                 1.0663
 Frc consts  --      8.0770                 8.2170                 9.1398
 IR Inten    --      3.3677                 1.3461                11.5464

 - Thermochemistry -
 -------------------
 Temperature   298.150 Kelvin.  Pressure   1.00000 Atm.
 Atom     1 has atomic number  6 and mass  12.00000

 Molecular mass:    90.07931 amu.
 Principal axes and moments of inertia in atomic units:
                           1         2         3
     Eigenvalues --   396.41023 586.29230 906.66366
           X            0.99644   0.08422  -0.00414
           Y           -0.08423   0.99644  -0.00227
           Z            0.00394   0.00261   0.99999
 This molecule is an asymmetric top.
 Rotational symmetry number  1.
 Rotational temperatures (Kelvin)      0.21850     0.14773     0.09553
 Rotational constants (GHZ):           4.55271     3.07823     1.99053
 Zero-point vibrational energy     375442.5 (Joules/Mol)
                                   89.73291 (Kcal/Mol)
 Warning -- explicit consideration of  11 degrees of freedom as
           vibrations may cause significant error
 Vibrational temperatures:    140.33   314.31   355.11   396.55   404.31
          (Kelvin)            457.53   513.66   573.89   655.96   701.57
                              807.50  1193.41  1202.29  1324.72  1365.60
                             1456.28  1482.31  1527.72  1573.29  1668.35
                             1755.18  1768.32  1850.90  1957.84  1988.39
                             1998.45  2030.58  2087.25  2148.37  2155.22
                             2385.87  2397.43  4278.72  4311.33  4355.32
                             4463.20  4529.27  4987.14  5018.35  5101.12
                             5139.96  5487.70

 Zero-point correction=                           0.142998 (Hartree/Particle)
 Thermal correction to Energy=                    0.150698
 Thermal correction to Enthalpy=                  0.151642
 Thermal correction to Gibbs Free Energy=         0.112122
 Sum of electronic and zero-point Energies=           -304.940965
 Sum of electronic and thermal Energies=              -304.933266
 Sum of electronic and thermal Enthalpies=            -304.932321
 Sum of electronic and thermal Free Energies=         -304.971841

                     E (Thermal)             CV                S
                      KCal/Mol        Cal/Mol-Kelvin    Cal/Mol-Kelvin
 Total                   94.564             28.286             83.177
 Electronic               0.000              0.000              0.000
 Translational            0.889              2.981             39.407
 Rotational               0.889              2.981             26.846
 Vibrational             92.787             22.325             16.924
 Vibration     1          0.603              1.951              3.503
 Vibration     2          0.646              1.813              1.972
 Vibration     3          0.661              1.768              1.753
 Vibration     4          0.677              1.718              1.561
 Vibration     5          0.681              1.709              1.528
 Vibration     6          0.704              1.639              1.320
 Vibration     7          0.732              1.561              1.135
 Vibration     8          0.765              1.473              0.967
 Vibration     9          0.814              1.348              0.778
 Vibration    10          0.844              1.277              0.690
 Vibration    11          0.917              1.115              0.521

 Optimization completed.
    -- Stationary point found.
 Normal termination of Gaussian 09 at Fri Aug 26 09:09:51 2022.

 -----------------------------------------------------------------
 #P Geom=AllCheck Guess=TCheck SCRF=Check CCSD(T,E4T,FrzG4)/GTBas1
 -----------------------------------------------------------------

 Structure from the checkpoint file:  "G4.Frag_914.chk"
 --------
 Frag_914
 --------
 Charge =  0 Multiplicity = 1

 SCF Done:  E(RHF) =  -303.164204154     A.U. after   12 cycles
 E2 =    -0.9036389966D+00 EUMP2 =    -0.30406784315011D+03
 CCSD(T)
 CCSD(T)= -0.30414965166D+03
 TQ=-304.1486269\MP4SDQ=-304.1234943\CCSD=-304.1243921\CCSD(T)=-304.149
 Normal termination of Gaussian 09 at Fri Aug 26 09:12:20 2022.

 ---------------------------------------------------------
 #P Geom=AllCheck Guess=TCheck SCRF=Check MP4=FrzG4/GTBas2
 ---------------------------------------------------------

 Structure from the checkpoint file:  "G4.Frag_914.chk"
 --------
 Frag_914
 --------
 Charge =  0 Multiplicity = 1

 SCF Done:  E(RHF) =  -303.175874067     A.U. after   12 cycles
 E2 =    -0.9199846022D+00 EUMP2 =    -0.30409585866876D+03
 Normal termination of Gaussian 09 at Fri Aug 26 09:13:07 2022.

 ---------------------------------------------------------
 #P Geom=AllCheck Guess=TCheck SCRF=Check MP4=FrzG4/GTBas3
 ---------------------------------------------------------

 Structure from the checkpoint file:  "G4.Frag_914.chk"
 --------
 Frag_914
 --------
 Charge =  0 Multiplicity = 1

 SCF Done:  E(RHF) =  -303.210780422     A.U. after   11 cycles
 E2 =    -0.1120931222D+01 EUMP2 =    -0.30433171164405D+03
 Normal termination of Gaussian 09 at Fri Aug 26 09:17:43 2022.

 -----------------------------------------------------------
 #P Geom=AllCheck Guess=TCheck SCRF=Check MP2=Full/GTLargeXP
 -----------------------------------------------------------

 Structure from the checkpoint file:  "G4.Frag_914.chk"
 --------
 Frag_914
 --------
 Charge =  0 Multiplicity = 1

 SCF Done:  E(RHF) =  -303.291812753     A.U. after   12 cycles
 E2 =    -0.1462925916D+01 EUMP2 =    -0.30475473866908D+03
 Normal termination of Gaussian 09 at Fri Aug 26 09:20:01 2022.
 SCF Done:  E(RHF) =  -303.315949129     A.U. after    8 cycles
 Normal termination of Gaussian 09 at Fri Aug 26 09:22:11 2022.

                         Standard orientation:
 ---------------------------------------------------------------------
 Center     Atomic      Atomic             Coordinates (Angstroms)
 Number     Number       Type             X           Y           Z
 ---------------------------------------------------------------------
      1          6           0       -1.619306   -1.066553    0.035365
      2          6           0       -0.691985    0.091697   -0.326841
      3          7           0       -1.332016    1.364985    0.008757
      4          6           0        0.703404   -0.066528    0.312528
      5          7           0        1.544712    1.054480   -0.063484
      6          8           0        1.206204   -1.334971   -0.103392
      7          1           0       -2.593085   -0.926806   -0.441084
      8          1           0       -1.194785   -2.020947   -0.278149
      9          1           0       -1.778636   -1.108437    1.120944
     10          1           0       -0.530999    0.080447   -1.415625
     11          1           0       -0.628605    2.097623   -0.049886
     12          1           0       -1.629317    1.342141    0.982118
     13          1           0        0.596934   -0.036203    1.409129
     14          1           0        2.403006    1.073540    0.477763
     15          1           0        1.805544    0.964361   -1.042319
     16          1           0        2.058761   -1.473906    0.321015
 ---------------------------------------------------------------------

 SCF Done:  E(RHF) =  -303.321309069     A.U. after    8 cycles

 The electronic state is 1-A.
 Alpha  occ. eigenvalues --  -20.56096 -15.55309 -15.52795 -11.30912 -11.24897
 Alpha  occ. eigenvalues --  -11.20439  -1.37409  -1.19717  -1.15917  -0.99344
 Alpha  occ. eigenvalues --   -0.89698  -0.79124  -0.71694  -0.67504  -0.64443
 Alpha  occ. eigenvalues --   -0.63434  -0.59884  -0.57320  -0.55068  -0.51158
 Alpha  occ. eigenvalues --   -0.49049  -0.48500  -0.47177  -0.41846  -0.38704
 Alpha virt. eigenvalues --    0.03018   0.04333   0.04960   0.05271   0.06664
 Alpha virt. eigenvalues --    0.07381   0.07722   0.07968   0.09174   0.10654
 Alpha virt. eigenvalues --    0.11023   0.11378   0.12901   0.13489   0.13766

 Mulliken charges:
               1
     1  C   -0.551113
     2  C    0.103719
     3  N   -0.718926
     4  C    0.132096
     5  N   -0.729448
     6  O   -0.575228
     7  H    0.183301
     8  H    0.195803
     9  H    0.141105
    10  H    0.146420
    11  H    0.313584
    12  H    0.274445
    13  H    0.138110
    14  H    0.283954
    15  H    0.301804
    16  H    0.360374
 Sum of Mulliken charges =  -0.00000

 Dipole moment (field-independent basis, Debye):
    X=              2.7786    Y=             -0.2368    Z=              1.5755  Tot=              3.2029
 Quadrupole moment (field-independent basis, Debye-Ang):
   XX=            -34.9341   YY=            -43.1108   ZZ=            -36.1769
   XY=              1.8474   XZ=             -0.3173   YZ=             -0.1561

 Normal termination of Gaussian 09 at Fri Aug 26 09:30:30 2022.
