 Gaussian 09, Revision E.01,
 Gaussian 09:  ES64L-G09RevE.01 30-Nov-2015

 -----
 #P G4
 -----

 --------
 Frag_731
 --------
 Symbolic Z-matrix:
 Charge =  0 Multiplicity = 1

 SCF Done:  E(RB3LYP) =  -243.246372815     A.U. after   14 cycles
 SCF Done:  E(RB3LYP) =  -243.416355147     A.U. after   13 cycles
 SCF Done:  E(RB3LYP) =  -243.454116783     A.U. after   14 cycles
 SCF Done:  E(RB3LYP) =  -243.463736801     A.U. after   13 cycles
 SCF Done:  E(RB3LYP) =  -243.464683659     A.U. after   12 cycles
 SCF Done:  E(RB3LYP) =  -243.464874465     A.U. after   12 cycles
 SCF Done:  E(RB3LYP) =  -243.464884098     A.U. after   10 cycles
 SCF Done:  E(RB3LYP) =  -243.464893091     A.U. after    9 cycles
 SCF Done:  E(RB3LYP) =  -243.464896721     A.U. after    9 cycles
 SCF Done:  E(RB3LYP) =  -243.464896992     A.U. after    8 cycles
 Optimization completed.
    -- Stationary point found.
 Normal termination of Gaussian 09 at Tue Aug 30 11:29:42 2022.

 ----------------------------------------------------------
 #P Geom=AllCheck Guess=TCheck SCRF=Check B3LYP/GTBas3 Freq
 ----------------------------------------------------------

 Structure from the checkpoint file:  "G4.Frag_731.chk"
 --------
 Frag_731
 --------
 Charge =  0 Multiplicity = 1

 SCF Done:  E(RB3LYP) =  -243.464896992     A.U. after    1 cycles

  Exact polarizability:  54.555  -2.547  49.323   0.086   0.040  21.912
 Approx polarizability:  78.275  -7.854  83.453  -0.930   1.115  33.606

                      1                      2                      3
                      A                      A                      A
 Frequencies --    129.2299               295.8962               369.6378
 Red. masses --      2.8492                 3.6351                 1.1539
 Frc consts  --      0.0280                 0.1875                 0.0929
 IR Inten    --     11.5835                 1.9853                57.1337

                      4                      5                      6
                      A                      A                      A
 Frequencies --    467.6039               500.9591               614.2270
 Red. masses --      3.0596                 1.5991                 2.0733
 Frc consts  --      0.3942                 0.2364                 0.4609
 IR Inten    --      7.3140               119.9165                62.1428

                      7                      8                      9
                      A                      A                      A
 Frequencies --    654.3164               843.4907               852.3455
 Red. masses --      2.3720                 2.5678                 1.9676
 Frc consts  --      0.5983                 1.0764                 0.8422
 IR Inten    --     90.8105                14.9249                 8.3244

                     10                     11                     12
                      A                      A                      A
 Frequencies --    905.1086              1113.5850              1114.3999
 Red. masses --      1.2403                 1.2378                 1.8035
 Frc consts  --      0.5986                 0.9044                 1.3196
 IR Inten    --     86.9419                 7.0964                28.3312

                     13                     14                     15
                      A                      A                      A
 Frequencies --   1155.8392              1215.3986              1387.4038
 Red. masses --      1.2311                 1.2183                 1.5333
 Frc consts  --      0.9690                 1.0604                 1.7390
 IR Inten    --     52.4577               114.8217                37.3365

                     16                     17                     18
                      A                      A                      A
 Frequencies --   1453.9034              1626.8195              1705.4103
 Red. masses --      2.1224                 1.2451                 6.2963
 Frc consts  --      2.6433                 1.9415                10.7894
 IR Inten    --     65.4475                38.1379               121.7394

                     19                     20                     21
                      A                      A                      A
 Frequencies --   1747.6760              3011.9650              3471.0382
 Red. masses --      6.5462                 1.0874                 1.0743
 Frc consts  --     11.7805                 5.8122                 7.6257
 IR Inten    --     41.9719                60.4663                 6.8623

                     22                     23                     24
                      A                      A                      A
 Frequencies --   3472.7177              3570.0960              3682.9910
 Red. masses --      1.0752                 1.0464                 1.0995
 Frc consts  --      7.6397                 7.8576                 8.7873
 IR Inten    --      4.6784                23.5608                23.9182

 - Thermochemistry -
 -------------------
 Temperature   298.150 Kelvin.  Pressure   1.00000 Atm.
 Atom     1 has atomic number  7 and mass  14.00307

 Molecular mass:    71.04835 amu.
 Principal axes and moments of inertia in atomic units:
                           1         2         3
     Eigenvalues --   172.42521 427.31817 598.11320
           X            0.99991  -0.01039   0.00799
           Y            0.01047   0.99989  -0.01051
           Z           -0.00788   0.01059   0.99991
 This molecule is an asymmetric top.
 Rotational symmetry number  1.
 Rotational temperatures (Kelvin)      0.50233     0.20269     0.14481
 Rotational constants (GHZ):          10.46681     4.22341     3.01739
 Zero-point vibrational energy     211512.1 (Joules/Mol)
                                   50.55260 (Kcal/Mol)
 Warning -- explicit consideration of   6 degrees of freedom as
           vibrations may cause significant error
 Vibrational temperatures:    185.93   425.73   531.83   672.78   720.77
          (Kelvin)            883.73   941.41  1213.59  1226.33  1302.25
                             1602.20  1603.37  1662.99  1748.69  1996.16
                             2091.84  2340.63  2453.70  2514.51  4333.54
                             4994.04  4996.46  5136.57  5299.00

 Zero-point correction=                           0.080561 (Hartree/Particle)
 Thermal correction to Energy=                    0.085884
 Thermal correction to Enthalpy=                  0.086828
 Thermal correction to Gibbs Free Energy=         0.052430
 Sum of electronic and zero-point Energies=           -243.384336
 Sum of electronic and thermal Energies=              -243.379013
 Sum of electronic and thermal Enthalpies=            -243.378069
 Sum of electronic and thermal Free Energies=         -243.412467

                     E (Thermal)             CV                S
                      KCal/Mol        Cal/Mol-Kelvin    Cal/Mol-Kelvin
 Total                   53.893             18.516             72.396
 Electronic               0.000              0.000              0.000
 Translational            0.889              2.981             38.699
 Rotational               0.889              2.981             25.292
 Vibrational             52.115             12.554              8.405
 Vibration     1          0.612              1.924              2.957
 Vibration     2          0.690              1.681              1.440
 Vibration     3          0.742              1.535              1.081
 Vibration     4          0.825              1.322              0.744
 Vibration     5          0.856              1.248              0.656
 Vibration     6          0.974              1.002              0.426

 Optimization completed.
    -- Stationary point found.
 Normal termination of Gaussian 09 at Tue Aug 30 11:30:01 2022.

 -----------------------------------------------------------------
 #P Geom=AllCheck Guess=TCheck SCRF=Check CCSD(T,E4T,FrzG4)/GTBas1
 -----------------------------------------------------------------

 Structure from the checkpoint file:  "G4.Frag_731.chk"
 --------
 Frag_731
 --------
 Charge =  0 Multiplicity = 1

 SCF Done:  E(RHF) =  -241.957106204     A.U. after   13 cycles
 E2 =    -0.7359884553D+00 EUMP2 =    -0.24269309465981D+03
 CCSD(T)
 CCSD(T)= -0.24275436927D+03
 Normal termination of Gaussian 09 at Tue Aug 30 11:30:48 2022.

 ---------------------------------------------------------
 #P Geom=AllCheck Guess=TCheck SCRF=Check MP4=FrzG4/GTBas2
 ---------------------------------------------------------

 Structure from the checkpoint file:  "G4.Frag_731.chk"
 --------
 Frag_731
 --------
 Charge =  0 Multiplicity = 1

 SCF Done:  E(RHF) =  -241.967387999     A.U. after   13 cycles
 E2 =    -0.7471247060D+00 EUMP2 =    -0.24271451270510D+03
 Normal termination of Gaussian 09 at Tue Aug 30 11:31:02 2022.

 ---------------------------------------------------------
 #P Geom=AllCheck Guess=TCheck SCRF=Check MP4=FrzG4/GTBas3
 ---------------------------------------------------------

 Structure from the checkpoint file:  "G4.Frag_731.chk"
 --------
 Frag_731
 --------
 Charge =  0 Multiplicity = 1

 SCF Done:  E(RHF) =  -241.990968363     A.U. after   12 cycles
 E2 =    -0.8812551171D+00 EUMP2 =    -0.24287222348000D+03
 Normal termination of Gaussian 09 at Tue Aug 30 11:32:02 2022.

 -----------------------------------------------------------
 #P Geom=AllCheck Guess=TCheck SCRF=Check MP2=Full/GTLargeXP
 -----------------------------------------------------------

 Structure from the checkpoint file:  "G4.Frag_731.chk"
 --------
 Frag_731
 --------
 Charge =  0 Multiplicity = 1

 SCF Done:  E(RHF) =  -242.055405892     A.U. after   13 cycles
 E2 =    -0.1156506874D+01 EUMP2 =    -0.24321191276606D+03
 Normal termination of Gaussian 09 at Tue Aug 30 11:32:45 2022.
 SCF Done:  E(RHF) =  -242.073822958     A.U. after   10 cycles
 Normal termination of Gaussian 09 at Tue Aug 30 11:33:39 2022.

                         Standard orientation:
 ---------------------------------------------------------------------
 Center     Atomic      Atomic             Coordinates (Angstroms)
 Number     Number       Type             X           Y           Z
 ---------------------------------------------------------------------
      1          7           0       -1.916927    0.051038    0.032293
      2          6           0       -0.830332   -0.598639   -0.029586
      3          6           0        0.484250    0.127297   -0.005066
      4          7           0        0.610932    1.395537    0.007084
      5          7           0        1.583078   -0.711215   -0.061368
      6          1           0       -2.726368   -0.570210    0.000733
      7          1           0       -0.772836   -1.693939   -0.107716
      8          1           0       -0.320089    1.814835   -0.024938
      9          1           0        2.461614   -0.250076    0.127382
     10          1           0        1.494589   -1.620075    0.366395
 ---------------------------------------------------------------------

 SCF Done:  E(RHF) =  -242.077630333     A.U. after    8 cycles

 The electronic state is 1-A.
 Alpha  occ. eigenvalues --  -15.58264 -15.57897 -15.52780 -11.31981 -11.30816
 Alpha  occ. eigenvalues --   -1.27804  -1.22311  -1.14484  -0.91435  -0.77657
 Alpha  occ. eigenvalues --   -0.72051  -0.70659  -0.62513  -0.61902  -0.55250
 Alpha  occ. eigenvalues --   -0.46474  -0.46081  -0.42571  -0.37107
 Alpha virt. eigenvalues --    0.02782   0.04289   0.05463   0.05903   0.07172
 Alpha virt. eigenvalues --    0.07287   0.07962   0.08212   0.10809   0.11457
 Alpha virt. eigenvalues --    0.11756   0.12089   0.14142   0.14761   0.14883

 Mulliken charges:
               1
     1  N   -0.556680
     2  C    0.025441
     3  C    0.463708
     4  N   -0.691033
     5  N   -0.681590
     6  H    0.302967
     7  H    0.175918
     8  H    0.311204
     9  H    0.345614
    10  H    0.304453
 Sum of Mulliken charges =  -0.00000

 Dipole moment (field-independent basis, Debye):
    X=             -0.5569    Y=             -4.2563    Z=              0.7232  Tot=              4.3530
 Quadrupole moment (field-independent basis, Debye-Ang):
   XX=            -26.3761   YY=            -30.1201   ZZ=            -32.5147
   XY=             -0.6380   XZ=              2.1342   YZ=             -1.4810

 Normal termination of Gaussian 09 at Tue Aug 30 11:38:22 2022.
