 Gaussian 09, Revision E.01,
 Gaussian 09:  ES64L-G09RevE.01 30-Nov-2015

 -----
 #P G4
 -----

 --------
 Frag_612
 --------
 Symbolic Z-matrix:
 Charge =  0 Multiplicity = 1

 SCF Done:  E(RB3LYP) =  -347.700421630     A.U. after   12 cycles
 SCF Done:  E(RB3LYP) =  -347.773379618     A.U. after   11 cycles
 SCF Done:  E(RB3LYP) =  -347.785108458     A.U. after   11 cycles
 SCF Done:  E(RB3LYP) =  -347.797381705     A.U. after   11 cycles
 SCF Done:  E(RB3LYP) =  -347.798777490     A.U. after   10 cycles
 SCF Done:  E(RB3LYP) =  -347.798522445     A.U. after   11 cycles
 SCF Done:  E(RB3LYP) =  -347.799026006     A.U. after   10 cycles
 SCF Done:  E(RB3LYP) =  -347.799074993     A.U. after    8 cycles
 SCF Done:  E(RB3LYP) =  -347.799180061     A.U. after   10 cycles
 SCF Done:  E(RB3LYP) =  -347.794330002     A.U. after   13 cycles
 SCF Done:  E(RB3LYP) =  -347.805530149     A.U. after    6 cycles
 SCF Done:  E(RB3LYP) =  -347.805530337     A.U. after    6 cycles
 SCF Done:  E(RB3LYP) =  -347.805530380     A.U. after    6 cycles
 Optimization completed.
    -- Stationary point found.
 Normal termination of Gaussian 09 at Tue Aug 30 12:30:27 2022.

 ----------------------------------------------------------
 #P Geom=AllCheck Guess=TCheck SCRF=Check B3LYP/GTBas3 Freq
 ----------------------------------------------------------

 Structure from the checkpoint file:  "G4.Frag_612.chk"
 --------
 Frag_612
 --------
 Charge =  0 Multiplicity = 1

 SCF Done:  E(RB3LYP) =  -347.805530380     A.U. after    1 cycles

  Exact polarizability:  84.292  -0.390  79.993  -0.901  -0.066  77.351
 Approx polarizability: 115.160   0.419 114.745  -1.013  -0.467 113.253

                      1                      2                      3
                      A                      A                      A
 Frequencies --     62.1325               177.4918               232.4151
 Red. masses --      2.3444                 1.0264                 1.0862
 Frc consts  --      0.0053                 0.0191                 0.0346
 IR Inten    --      0.0644                 5.9700                 6.0409

                      4                      5                      6
                      A                      A                      A
 Frequencies --    252.9426               257.8886               278.3436
 Red. masses --      1.0740                 1.1612                 2.1278
 Frc consts  --      0.0405                 0.0455                 0.0971
 IR Inten    --      2.4226                 1.7362                10.3059

                      7                      8                      9
                      A                      A                      A
 Frequencies --    282.7961               287.0668               327.6504
 Red. masses --      1.3508                 2.3872                 1.2541
 Frc consts  --      0.0636                 0.1159                 0.0793
 IR Inten    --     12.4102                 1.1922                19.8313

                     10                     11                     12
                      A                      A                      A
 Frequencies --    358.3632               370.4884               381.4940
 Red. masses --      2.2558                 2.3552                 1.7964
 Frc consts  --      0.1707                 0.1905                 0.1540
 IR Inten    --      4.0509                 1.6341                 4.4311

                     13                     14                     15
                      A                      A                      A
 Frequencies --    393.5772               410.2283               484.7262
 Red. masses --      2.4017                 2.3008                 2.4983
 Frc consts  --      0.2192                 0.2281                 0.3459
 IR Inten    --      0.5450                10.6602                 2.1633

                     16                     17                     18
                      A                      A                      A
 Frequencies --    497.4212               521.7153               650.5014
 Red. masses --      2.6218                 2.6109                 2.9906
 Frc consts  --      0.3822                 0.4187                 0.7456
 IR Inten    --      1.5618                12.9693                 2.0232

                     19                     20                     21
                      A                      A                      A
 Frequencies --    818.0316               862.6186               886.2823
 Red. masses --      2.8531                 2.0916                 1.6305
 Frc consts  --      1.1249                 0.9170                 0.7546
 IR Inten    --     24.8167                21.3787                80.1305

                     22                     23                     24
                      A                      A                      A
 Frequencies --    916.4536               925.9707               933.8470
 Red. masses --      1.5317                 1.5681                 1.5265
 Frc consts  --      0.7579                 0.7922                 0.7843
 IR Inten    --     93.7815                25.8734                 6.9386

                     25                     26                     27
                      A                      A                      A
 Frequencies --    961.4522               999.8884              1013.0407
 Red. masses --      1.6944                 1.2551                 1.3166
 Frc consts  --      0.9228                 0.7393                 0.7961
 IR Inten    --      0.5984                15.9545                 9.5678

                     28                     29                     30
                      A                      A                      A
 Frequencies --   1021.4441              1072.2372              1082.6664
 Red. masses --      1.3961                 1.6203                 1.4945
 Frc consts  --      0.8582                 1.0975                 1.0321
 IR Inten    --     35.6485                 2.0974                 4.9935

                     31                     32                     33
                      A                      A                      A
 Frequencies --   1173.6097              1217.4937              1241.2321
 Red. masses --      2.1907                 2.4579                 2.5326
 Frc consts  --      1.7778                 2.1466                 2.2989
 IR Inten    --     56.9797                22.2952                 6.0332

                     34                     35                     36
                      A                      A                      A
 Frequencies --   1250.9747              1327.8518              1347.8852
 Red. masses --      2.9792                 1.9055                 1.6730
 Frc consts  --      2.7469                 1.9795                 1.7908
 IR Inten    --      7.9111                 1.2072                 2.3443

                     37                     38                     39
                      A                      A                      A
 Frequencies --   1393.0478              1394.4340              1406.8692
 Red. masses --      1.2651                 1.3717                 1.2689
 Frc consts  --      1.4465                 1.5715                 1.4797
 IR Inten    --     11.2711                 3.3725                16.6912

                     40                     41                     42
                      A                      A                      A
 Frequencies --   1420.7126              1475.1439              1483.6530
 Red. masses --      1.2232                 1.0547                 1.0463
 Frc consts  --      1.4546                 1.3522                 1.3570
 IR Inten    --      4.9234                 0.7236                 0.0251

                     43                     44                     45
                      A                      A                      A
 Frequencies --   1484.9508              1497.2814              1501.6071
 Red. masses --      1.0465                 1.0548                 1.0516
 Frc consts  --      1.3596                 1.3932                 1.3970
 IR Inten    --      1.1237                 2.6845                 2.9170

                     46                     47                     48
                      A                      A                      A
 Frequencies --   1505.1056              1509.6569              1516.2488
 Red. masses --      1.0556                 1.0615                 1.0491
 Frc consts  --      1.4090                 1.4254                 1.4210
 IR Inten    --      3.2752                 3.2724                 6.2477

                     49                     50                     51
                      A                      A                      A
 Frequencies --   1654.9096              1660.1485              3029.7319
 Red. masses --      1.0899                 1.0922                 1.0375
 Frc consts  --      1.7587                 1.7735                 5.6109
 IR Inten    --     32.1982                18.4835                16.1163

                     52                     53                     54
                      A                      A                      A
 Frequencies --   3037.4217              3041.3807              3047.3452
 Red. masses --      1.0395                 1.0355                 1.0370
 Frc consts  --      5.6506                 5.6435                 5.6739
 IR Inten    --     24.0789                30.5441                 7.5165

                     55                     56                     57
                      A                      A                      A
 Frequencies --   3091.1995              3100.8120              3107.7004
 Red. masses --      1.0988                 1.0955                 1.1009
 Frc consts  --      6.1859                 6.2058                 6.2644
 IR Inten    --     11.2066                40.5386                42.2831

                     58                     59                     60
                      A                      A                      A
 Frequencies --   3108.9856              3114.7274              3120.9923
 Red. masses --      1.0998                 1.1000                 1.1006
 Frc consts  --      6.2634                 6.2878                 6.3161
 IR Inten    --     14.7874                31.1729                 6.6964

                     61                     62                     63
                      A                      A                      A
 Frequencies --   3124.2421              3131.1248              3469.3322
 Red. masses --      1.1005                 1.1015                 1.0489
 Frc consts  --      6.3290                 6.3629                 7.4382
 IR Inten    --     43.3868                22.8160                 4.9585

                     64                     65                     66
                      A                      A                      A
 Frequencies --   3485.5324              3553.0311              3560.4752
 Red. masses --      1.0494                 1.0914                 1.0920
 Frc consts  --      7.5116                 8.1174                 8.1560
 IR Inten    --      0.5892                 4.3209                 0.2223

 - Thermochemistry -
 -------------------
 Temperature   298.150 Kelvin.  Pressure   1.00000 Atm.
 Atom     1 has atomic number  6 and mass  12.00000

 Molecular mass:   116.13135 amu.
 Principal axes and moments of inertia in atomic units:
                           1         2         3
     Eigenvalues --   761.720781065.861161069.84008
           X            0.99967  -0.02111  -0.01476
           Y            0.02172   0.99887   0.04228
           Z            0.01385  -0.04258   0.99900
 This molecule is an asymmetric top.
 Rotational symmetry number  1.
 Warning -- assumption of classical behavior for rotation
           may cause significant error
 Rotational temperatures (Kelvin)      0.11371     0.08126     0.08096
 Rotational constants (GHZ):           2.36929     1.69322     1.68693
 Zero-point vibrational energy     582031.2 (Joules/Mol)
                                  139.10881 (Kcal/Mol)
 Warning -- explicit consideration of  17 degrees of freedom as
           vibrations may cause significant error
 Vibrational temperatures:     89.39   255.37   334.39   363.93   371.04
          (Kelvin)            400.47   406.88   413.02   471.42   515.60
                              533.05   548.88   566.27   590.23   697.41
                              715.68   750.63   935.93  1176.96  1241.11
                             1275.16  1318.57  1332.26  1343.60  1383.31
                             1438.61  1457.54  1469.63  1542.71  1557.71
                             1688.56  1751.70  1785.85  1799.87  1910.48
                             1939.30  2004.28  2006.28  2024.17  2044.09
                             2122.40  2134.64  2136.51  2154.25  2160.47
                             2165.51  2172.06  2181.54  2381.04  2388.58
                             4359.10  4370.17  4375.86  4384.44  4447.54
                             4461.37  4471.28  4473.13  4481.39  4490.41
                             4495.08  4504.98  4991.59  5014.90  5112.01
                             5122.72

 Zero-point correction=                           0.221684 (Hartree/Particle)
 Thermal correction to Energy=                    0.232243
 Thermal correction to Enthalpy=                  0.233187
 Thermal correction to Gibbs Free Energy=         0.187815
 Sum of electronic and zero-point Energies=           -347.583846
 Sum of electronic and thermal Energies=              -347.573287
 Sum of electronic and thermal Enthalpies=            -347.572343
 Sum of electronic and thermal Free Energies=         -347.617716

                     E (Thermal)             CV                S
                      KCal/Mol        Cal/Mol-Kelvin    Cal/Mol-Kelvin
 Total                  145.735             41.392             95.495
 Electronic               0.000              0.000              0.000
 Translational            0.889              2.981             40.164
 Rotational               0.889              2.981             28.254
 Vibrational            143.957             35.431             27.077
 Vibration     1          0.597              1.972              4.388
 Vibration     2          0.628              1.870              2.355
 Vibration     3          0.653              1.791              1.860
 Vibration     4          0.664              1.758              1.710
 Vibration     5          0.667              1.749              1.676
 Vibration     6          0.679              1.714              1.544
 Vibration     7          0.682              1.706              1.517
 Vibration     8          0.684              1.698              1.491
 Vibration     9          0.711              1.620              1.272
 Vibration    10          0.733              1.558              1.129
 Vibration    11          0.742              1.533              1.078
 Vibration    12          0.751              1.510              1.033
 Vibration    13          0.761              1.484              0.987
 Vibration    14          0.774              1.448              0.926
 Vibration    15          0.841              1.284              0.697
 Vibration    16          0.853              1.256              0.665
 Vibration    17          0.877              1.202              0.606

 Optimization completed.
    -- Stationary point found.
 Normal termination of Gaussian 09 at Tue Aug 30 12:32:07 2022.

 -----------------------------------------------------------------
 #P Geom=AllCheck Guess=TCheck SCRF=Check CCSD(T,E4T,FrzG4)/GTBas1
 -----------------------------------------------------------------

 Structure from the checkpoint file:  "G4.Frag_612.chk"
 --------
 Frag_612
 --------
 Charge =  0 Multiplicity = 1

 SCF Done:  E(RHF) =  -345.402531199     A.U. after   11 cycles
 E2 =    -0.1134492947D+01 EUMP2 =    -0.34653702414635D+03
 CCSD(T)
 CCSD(T)= -0.34666088515D+03
 -346.6588086\MP4SDQ=-346.6225641\CCSD=-346.6241601\CCSD(T)=-346.660885
 Normal termination of Gaussian 09 at Tue Aug 30 12:43:09 2022.

 ---------------------------------------------------------
 #P Geom=AllCheck Guess=TCheck SCRF=Check MP4=FrzG4/GTBas2
 ---------------------------------------------------------

 Structure from the checkpoint file:  "G4.Frag_612.chk"
 --------
 Frag_612
 --------
 Charge =  0 Multiplicity = 1

 SCF Done:  E(RHF) =  -345.411206779     A.U. after   12 cycles
 E2 =    -0.1151035421D+01 EUMP2 =    -0.34656224219983D+03
 Normal termination of Gaussian 09 at Tue Aug 30 12:47:06 2022.

 ---------------------------------------------------------
 #P Geom=AllCheck Guess=TCheck SCRF=Check MP4=FrzG4/GTBas3
 ---------------------------------------------------------

 Structure from the checkpoint file:  "G4.Frag_612.chk"
 --------
 Frag_612
 --------
 Charge =  0 Multiplicity = 1

 SCF Done:  E(RHF) =  -345.452567057     A.U. after   10 cycles
 E2 =    -0.1411600879D+01 EUMP2 =    -0.34686416793671D+03
 Normal termination of Gaussian 09 at Tue Aug 30 13:24:42 2022.

 -----------------------------------------------------------
 #P Geom=AllCheck Guess=TCheck SCRF=Check MP2=Full/GTLargeXP
 -----------------------------------------------------------

 Structure from the checkpoint file:  "G4.Frag_612.chk"
 --------
 Frag_612
 --------
 Charge =  0 Multiplicity = 1

 SCF Done:  E(RHF) =  -345.530438793     A.U. after   12 cycles
 E2 =    -0.1847876865D+01 EUMP2 =    -0.34737831565881D+03
 Normal termination of Gaussian 09 at Tue Aug 30 13:33:51 2022.
 SCF Done:  E(RHF) =  -345.557193064     A.U. after    9 cycles
 Normal termination of Gaussian 09 at Tue Aug 30 13:37:32 2022.

                         Standard orientation:
 ---------------------------------------------------------------------
 Center     Atomic      Atomic             Coordinates (Angstroms)
 Number     Number       Type             X           Y           Z
 ---------------------------------------------------------------------
      1          6           0        1.403918   -1.389205    0.067054
      2          6           0        0.804786    0.031638    0.019978
      3          6           0        1.388778    0.764260   -1.197966
      4          7           0        1.297780    0.718528    1.226693
      5          6           0       -0.782711   -0.027111   -0.012547
      6          6           0       -1.396400    1.382104    0.042159
      7          6           0       -1.329175   -0.746553   -1.263888
      8          7           0       -1.203221   -0.713816    1.231356
      9          1           0        1.083898   -1.927027    0.964303
     10          1           0        1.140697   -1.987007   -0.810265
     11          1           0        2.492741   -1.310044    0.113083
     12          1           0        2.475175    0.826033   -1.088274
     13          1           0        1.008462    1.786914   -1.285236
     14          1           0        1.172309    0.242424   -2.133517
     15          1           0        1.131015    1.717790    1.151123
     16          1           0        0.739613    0.393502    2.013884
     17          1           0       -1.136322    1.975420   -0.837564
     18          1           0       -1.077744    1.922222    0.936595
     19          1           0       -2.489894    1.310437    0.069502
     20          1           0       -1.046141   -0.242772   -2.193265
     21          1           0       -2.424159   -0.772340   -1.226309
     22          1           0       -0.979462   -1.781319   -1.322945
     23          1           0       -1.091387   -1.718288    1.129362
     24          1           0       -2.195889   -0.559726    1.384432
 ---------------------------------------------------------------------

 SCF Done:  E(RHF) =  -345.562989973     A.U. after    8 cycles

 The electronic state is 1-A.
 Alpha  occ. eigenvalues --  -15.53853 -15.51951 -11.26304 -11.25598 -11.21476
 Alpha  occ. eigenvalues --  -11.21433 -11.20762 -11.20245  -1.20873  -1.15576
 Alpha  occ. eigenvalues --   -1.02858  -0.99113  -0.93778  -0.92253  -0.82328
 Alpha  occ. eigenvalues --   -0.71812  -0.67317  -0.64556  -0.62548  -0.61516
 Alpha  occ. eigenvalues --   -0.60363  -0.56187  -0.54740  -0.53915  -0.52415
 Alpha  occ. eigenvalues --   -0.52134  -0.51805  -0.50039  -0.48622  -0.45972
 Alpha  occ. eigenvalues --   -0.45163  -0.39828  -0.37358
 Alpha virt. eigenvalues --    0.02807   0.03928   0.04179   0.04578   0.05964
 Alpha virt. eigenvalues --    0.06360   0.06561   0.06846   0.07003   0.09043
 Alpha virt. eigenvalues --    0.09069   0.09296   0.09557   0.09747   0.09912

 Mulliken charges:
               1
     1  C   -0.637074
     2  C    0.442760
     3  C   -0.631911
     4  N   -0.810861
     5  C    0.442414
     6  C   -0.623240
     7  C   -0.621764
     8  N   -0.820831
     9  H    0.166988
    10  H    0.165886
    11  H    0.182005
    12  H    0.191949
    13  H    0.159866
    14  H    0.170260
    15  H    0.282449
    16  H    0.327036
    17  H    0.181678
    18  H    0.173034
    19  H    0.161760
    20  H    0.173707
    21  H    0.168925
    22  H    0.169424
    23  H    0.294342
    24  H    0.291199
 Sum of Mulliken charges =  -0.00000

 Dipole moment (field-independent basis, Debye):
    X=             -2.1232    Y=             -0.1862    Z=             -1.1642  Tot=              2.4286
 Quadrupole moment (field-independent basis, Debye-Ang):
   XX=            -55.6860   YY=            -50.8511   ZZ=            -56.2591
   XY=              0.3796   XZ=             -3.0656   YZ=             -0.2222

 Normal termination of Gaussian 09 at Tue Aug 30 14:03:05 2022.
