 Gaussian 09, Revision E.01,
 Gaussian 09:  ES64L-G09RevE.01 30-Nov-2015

 -----
 #P G4
 -----

 --------
 Frag_712
 --------
 Symbolic Z-matrix:
 Charge =  0 Multiplicity = 1

 SCF Done:  E(RB3LYP) =  -210.340664446     A.U. after   12 cycles
 SCF Done:  E(RB3LYP) =  -210.346086401     A.U. after   11 cycles
 SCF Done:  E(RB3LYP) =  -210.346904968     A.U. after   10 cycles
 SCF Done:  E(RB3LYP) =  -210.347066509     A.U. after   10 cycles
 SCF Done:  E(RB3LYP) =  -210.347081812     A.U. after    8 cycles
 SCF Done:  E(RB3LYP) =  -210.347083803     A.U. after    7 cycles
 SCF Done:  E(RB3LYP) =  -210.347084183     A.U. after    8 cycles
 SCF Done:  E(RB3LYP) =  -210.347083619     A.U. after    8 cycles
 SCF Done:  E(RB3LYP) =  -210.347083162     A.U. after    7 cycles
 SCF Done:  E(RB3LYP) =  -210.347083074     A.U. after    6 cycles
 Optimization completed.
    -- Stationary point found.
 Normal termination of Gaussian 09 at Thu Aug 25 15:06:38 2022.

 ----------------------------------------------------------
 #P Geom=AllCheck Guess=TCheck SCRF=Check B3LYP/GTBas3 Freq
 ----------------------------------------------------------

 Structure from the checkpoint file:  "G4.Frag_712.chk"
 --------
 Frag_712
 --------
 Charge =  0 Multiplicity = 1

 SCF Done:  E(RB3LYP) =  -210.347083074     A.U. after    1 cycles

  Exact polarizability:  46.120   1.141  33.434  -0.380  -0.147  30.508
 Approx polarizability:  54.372   2.497  46.057  -1.932  -0.710  44.098

                      1                      2                      3
                      A                      A                      A
 Frequencies --     62.1626               203.8477               243.9526
 Red. masses --      2.5237                 1.1116                 1.1301
 Frc consts  --      0.0057                 0.0272                 0.0396
 IR Inten    --      5.4675                 1.5047                 0.9695

                      4                      5                      6
                      A                      A                      A
 Frequencies --    399.8474               461.9080               828.3224
 Red. masses --      2.6979                 2.9928                 3.4616
 Frc consts  --      0.2541                 0.3762                 1.3994
 IR Inten    --     12.3199                 4.1980                17.1005

                      7                      8                      9
                      A                      A                      A
 Frequencies --    950.4540              1042.2978              1090.9342
 Red. masses --      1.2543                 3.0662                 4.6020
 Frc consts  --      0.6676                 1.9626                 3.2270
 IR Inten    --     65.2261                22.5872                35.8084

                     10                     11                     12
                      A                      A                      A
 Frequencies --   1161.8837              1180.5209              1221.8385
 Red. masses --      1.5522                 1.2980                 1.6272
 Frc consts  --      1.2346                 1.0658                 1.4313
 IR Inten    --      2.3969                 2.4461                 4.8663

                     13                     14                     15
                      A                      A                      A
 Frequencies --   1244.7136              1439.2576              1460.0120
 Red. masses --      1.5952                 1.1869                 1.1271
 Frc consts  --      1.4562                 1.4486                 1.4156
 IR Inten    --     14.9989                 1.7055                 1.5670

                     16                     17                     18
                      A                      A                      A
 Frequencies --   1470.8041              1474.3270              1479.8759
 Red. masses --      1.0858                 1.0502                 1.0889
 Frc consts  --      1.3840                 1.3449                 1.4051
 IR Inten    --      3.4304                 3.2429                 2.5758

                     19                     20                     21
                      A                      A                      A
 Frequencies --   1510.6096              1516.2635              2998.7161
 Red. masses --      1.0612                 1.0462                 1.0326
 Frc consts  --      1.4268                 1.4171                 5.4709
 IR Inten    --     14.7445                 3.9918                87.0260

                     22                     23                     24
                      A                      A                      A
 Frequencies --   3002.6695              3056.4383              3080.8184
 Red. masses --      1.0420                 1.1049                 1.0913
 Frc consts  --      5.5351                 6.0813                 6.1025
 IR Inten    --     20.9749                52.2546                29.7818

                     25                     26                     27
                      A                      A                      A
 Frequencies --   3107.4687              3114.0329              3451.6682
 Red. masses --      1.1004                 1.1025                 1.0754
 Frc consts  --      6.2608                 6.2991                 7.5489
 IR Inten    --     28.8901                22.4126                 1.6711

 - Thermochemistry -
 -------------------
 Temperature   298.150 Kelvin.  Pressure   1.00000 Atm.
 Atom     1 has atomic number  6 and mass  12.00000

 Molecular mass:    61.05276 amu.
 Principal axes and moments of inertia in atomic units:
                           1         2         3
     Eigenvalues --    77.89267 398.04730 403.87451
           X            0.99983  -0.00795   0.01678
           Y            0.00283   0.95831   0.28573
           Z           -0.01836  -0.28564   0.95816
 This molecule is an asymmetric top.
 Rotational symmetry number  1.
 Rotational temperatures (Kelvin)      1.11196     0.21760     0.21446
 Rotational constants (GHZ):          23.16959     4.53399     4.46857
 Zero-point vibrational energy     252744.9 (Joules/Mol)
                                   60.40748 (Kcal/Mol)
 Warning -- explicit consideration of   5 degrees of freedom as
           vibrations may cause significant error
 Vibrational temperatures:     89.44   293.29   350.99   575.29   664.58
          (Kelvin)           1191.77  1367.49  1499.63  1569.61  1671.69
                             1698.50  1757.95  1790.86  2070.77  2100.63
                             2116.16  2121.22  2129.21  2173.43  2181.56
                             4314.48  4320.17  4397.53  4432.60  4470.95
                             4480.39  4966.17

 Zero-point correction=                           0.096265 (Hartree/Particle)
 Thermal correction to Energy=                    0.101798
 Thermal correction to Enthalpy=                  0.102742
 Thermal correction to Gibbs Free Energy=         0.068071
 Sum of electronic and zero-point Energies=           -210.250818
 Sum of electronic and thermal Energies=              -210.245285
 Sum of electronic and thermal Enthalpies=            -210.244341
 Sum of electronic and thermal Free Energies=         -210.279012

                     E (Thermal)             CV                S
                      KCal/Mol        Cal/Mol-Kelvin    Cal/Mol-Kelvin
 Total                   63.879             17.392             72.971
 Electronic               0.000              0.000              0.000
 Translational            0.889              2.981             38.247
 Rotational               0.889              2.981             24.041
 Vibrational             62.102             11.431             10.682
 Vibration     1          0.597              1.972              4.387
 Vibration     2          0.640              1.834              2.098
 Vibration     3          0.659              1.773              1.774
 Vibration     4          0.766              1.470              0.963
 Vibration     5          0.820              1.335              0.761

 Optimization completed.
    -- Stationary point found.
 Normal termination of Gaussian 09 at Thu Aug 25 15:07:22 2022.

 -----------------------------------------------------------------
 #P Geom=AllCheck Guess=TCheck SCRF=Check CCSD(T,E4T,FrzG4)/GTBas1
 -----------------------------------------------------------------

 Structure from the checkpoint file:  "G4.Frag_712.chk"
 --------
 Frag_712
 --------
 Charge =  0 Multiplicity = 1

 SCF Done:  E(RHF) =  -209.037889426     A.U. after   12 cycles
 E2 =    -0.6055907966D+00 EUMP2 =    -0.20964348022286D+03
 CCSD(T)
 CCSD(T)= -0.20970261555D+03
 906\MP4SDQ=-209.6845477\CCSD=-209.6853262\CCSD(T)=-209.7026155\RMSD=3.
 Normal termination of Gaussian 09 at Thu Aug 25 15:08:03 2022.

 ---------------------------------------------------------
 #P Geom=AllCheck Guess=TCheck SCRF=Check MP4=FrzG4/GTBas2
 ---------------------------------------------------------

 Structure from the checkpoint file:  "G4.Frag_712.chk"
 --------
 Frag_712
 --------
 Charge =  0 Multiplicity = 1

 SCF Done:  E(RHF) =  -209.044306675     A.U. after   12 cycles
 E2 =    -0.6153093043D+00 EUMP2 =    -0.20965961597880D+03
 Normal termination of Gaussian 09 at Thu Aug 25 15:08:24 2022.

 ---------------------------------------------------------
 #P Geom=AllCheck Guess=TCheck SCRF=Check MP4=FrzG4/GTBas3
 ---------------------------------------------------------

 Structure from the checkpoint file:  "G4.Frag_712.chk"
 --------
 Frag_712
 --------
 Charge =  0 Multiplicity = 1

 SCF Done:  E(RHF) =  -209.063655084     A.U. after   12 cycles
 E2 =    -0.7546968786D+00 EUMP2 =    -0.20981835196273D+03
 Normal termination of Gaussian 09 at Thu Aug 25 15:17:49 2022.

 -----------------------------------------------------------
 #P Geom=AllCheck Guess=TCheck SCRF=Check MP2=Full/GTLargeXP
 -----------------------------------------------------------

 Structure from the checkpoint file:  "G4.Frag_712.chk"
 --------
 Frag_712
 --------
 Charge =  0 Multiplicity = 1

 SCF Done:  E(RHF) =  -209.119419006     A.U. after   11 cycles
 E2 =    -0.9836481532D+00 EUMP2 =    -0.21010306715965D+03
 Normal termination of Gaussian 09 at Thu Aug 25 15:18:59 2022.
 SCF Done:  E(RHF) =  -209.136469391     A.U. after    9 cycles
 Normal termination of Gaussian 09 at Thu Aug 25 15:20:55 2022.

                         Standard orientation:
 ---------------------------------------------------------------------
 Center     Atomic      Atomic             Coordinates (Angstroms)
 Number     Number       Type             X           Y           Z
 ---------------------------------------------------------------------
      1          6           0        1.674005   -0.335428   -0.044050
      2          7           0        0.521817    0.531533   -0.271171
      3          8           0       -0.537179    0.051655    0.576636
      4          6           0       -1.680755   -0.186905   -0.219407
      5          1           0        2.531685    0.102379   -0.565671
      6          1           0        1.474200   -1.320635   -0.474408
      7          1           0        1.923665   -0.460919    1.018926
      8          1           0        0.733235    1.447888    0.122197
      9          1           0       -2.443862   -0.576802    0.461068
     10          1           0       -1.482898   -0.925868   -1.006742
     11          1           0       -2.050814    0.733975   -0.689524
 ---------------------------------------------------------------------

 SCF Done:  E(RHF) =  -209.140219288     A.U. after    7 cycles

 The electronic state is 1-A.
 Alpha  occ. eigenvalues --  -20.57651 -15.60212 -11.26404 -11.24700  -1.40061
 Alpha  occ. eigenvalues --   -1.13125  -0.92141  -0.87113  -0.69318  -0.64336
 Alpha  occ. eigenvalues --   -0.63883  -0.58724  -0.55163  -0.54743  -0.50107
 Alpha  occ. eigenvalues --   -0.43580  -0.39966
 Alpha virt. eigenvalues --    0.04213   0.04801   0.05157   0.05542   0.07210
 Alpha virt. eigenvalues --    0.07466   0.07547   0.11016   0.11349   0.12844
 Alpha virt. eigenvalues --    0.14835   0.15949   0.16980   0.19229   0.19733

 Mulliken charges:
               1
     1  C   -0.421333
     2  N   -0.261277
     3  O   -0.302740
     4  C   -0.305409
     5  H    0.171758
     6  H    0.171246
     7  H    0.170698
     8  H    0.286586
     9  H    0.171818
    10  H    0.157751
    11  H    0.160902
 Sum of Mulliken charges =  -0.00000

 Dipole moment (field-independent basis, Debye):
    X=              0.5270    Y=              0.2164    Z=             -0.2700  Tot=              0.6305
 Quadrupole moment (field-independent basis, Debye-Ang):
   XX=            -21.8494   YY=            -24.0842   ZZ=            -28.3152
   XY=              1.0054   XZ=              0.9419   YZ=              1.0663

 Normal termination of Gaussian 09 at Thu Aug 25 16:03:42 2022.
