 Gaussian 09, Revision E.01,
 Gaussian 09:  ES64L-G09RevE.01 30-Nov-2015

 -----
 #P G4
 -----

 ---------
 Frag_1023
 ---------
 Symbolic Z-matrix:
 Charge =  0 Multiplicity = 1

 SCF Done:  E(RB3LYP) =  -363.836012536     A.U. after   12 cycles
 SCF Done:  E(RB3LYP) =  -363.844631015     A.U. after   11 cycles
 SCF Done:  E(RB3LYP) =  -363.845826275     A.U. after   11 cycles
 SCF Done:  E(RB3LYP) =  -363.846357049     A.U. after   10 cycles
 SCF Done:  E(RB3LYP) =  -363.846449398     A.U. after   10 cycles
 SCF Done:  E(RB3LYP) =  -363.846516133     A.U. after    9 cycles
 SCF Done:  E(RB3LYP) =  -363.846544697     A.U. after    9 cycles
 SCF Done:  E(RB3LYP) =  -363.846555117     A.U. after    8 cycles
 SCF Done:  E(RB3LYP) =  -363.846556010     A.U. after    7 cycles
 SCF Done:  E(RB3LYP) =  -363.846556339     A.U. after    6 cycles
 Optimization completed.
    -- Stationary point found.
 Normal termination of Gaussian 09 at Fri Aug 26 00:00:23 2022.

 ----------------------------------------------------------
 #P Geom=AllCheck Guess=TCheck SCRF=Check B3LYP/GTBas3 Freq
 ----------------------------------------------------------

 Structure from the checkpoint file:  "G4.Frag_1023.chk"
 ---------
 Frag_1023
 ---------
 Charge =  0 Multiplicity = 1

 SCF Done:  E(RB3LYP) =  -363.846556339     A.U. after    1 cycles

  Exact polarizability:  83.310  -0.297  74.649   0.388   0.175  74.087
 Approx polarizability: 112.509  -2.066 105.674   2.329   0.489 109.675

                      1                      2                      3
                      A                      A                      A
 Frequencies --    113.8599               197.2915               248.0912
 Red. masses --      3.0343                 1.0844                 1.1906
 Frc consts  --      0.0232                 0.0249                 0.0432
 IR Inten    --      0.4839                56.6843                 1.3847

                      4                      5                      6
                      A                      A                      A
 Frequencies --    259.4959               277.0975               291.4995
 Red. masses --      1.7699                 1.4702                 1.4368
 Frc consts  --      0.0702                 0.0665                 0.0719
 IR Inten    --      2.9002                 6.3935                 1.5419

                      7                      8                      9
                      A                      A                      A
 Frequencies --    305.9703               329.2233               353.8890
 Red. masses --      1.4728                 1.3371                 1.5806
 Frc consts  --      0.0812                 0.0854                 0.1166
 IR Inten    --      9.7071                15.6137                 4.2125

                     10                     11                     12
                      A                      A                      A
 Frequencies --    363.1426               373.4094               388.5553
 Red. masses --      2.5997                 2.1310                 1.5445
 Frc consts  --      0.2020                 0.1751                 0.1374
 IR Inten    --      3.1928                 2.3304                10.8950

                     13                     14                     15
                      A                      A                      A
 Frequencies --    401.2058               433.3792               508.0819
 Red. masses --      1.6155                 2.5929                 2.6751
 Frc consts  --      0.1532                 0.2869                 0.4069
 IR Inten    --     12.8542                 3.3281                15.5453

                     16                     17                     18
                      A                      A                      A
 Frequencies --    520.3412               529.8822               670.9378
 Red. masses --      3.0244                 2.5804                 2.9312
 Frc consts  --      0.4825                 0.4269                 0.7774
 IR Inten    --      5.7208                16.2844                 1.3307

                     19                     20                     21
                      A                      A                      A
 Frequencies --    824.6829               856.6824               905.8667
 Red. masses --      3.1478                 1.9423                 1.6522
 Frc consts  --      1.2613                 0.8399                 0.7988
 IR Inten    --     40.3342                 7.2583               165.0644

                     22                     23                     24
                      A                      A                      A
 Frequencies --    937.6067               944.2345               960.6346
 Red. masses --      1.4932                 1.3989                 1.3615
 Frc consts  --      0.7734                 0.7348                 0.7402
 IR Inten    --     33.6305                69.7797                18.2613

                     25                     26                     27
                      A                      A                      A
 Frequencies --    973.1681               975.3317              1009.2500
 Red. masses --      1.9209                 1.4812                 1.3940
 Frc consts  --      1.0718                 0.8302                 0.8366
 IR Inten    --     10.4893                 7.7474                17.8777

                     28                     29                     30
                      A                      A                      A
 Frequencies --   1037.5866              1060.1722              1112.5682
 Red. masses --      1.4640                 1.5642                 1.4194
 Frc consts  --      0.9286                 1.0359                 1.0352
 IR Inten    --     33.0357                11.9815                 1.1706

                     31                     32                     33
                      A                      A                      A
 Frequencies --   1195.2130              1215.5858              1239.7620
 Red. masses --      2.2938                 2.3503                 2.5550
 Frc consts  --      1.9306                 2.0462                 2.3138
 IR Inten    --     46.4784                 7.7508                21.9179

                     34                     35                     36
                      A                      A                      A
 Frequencies --   1318.3430              1339.5342              1361.9494
 Red. masses --      2.0087                 1.7514                 2.0150
 Frc consts  --      2.0570                 1.8516                 2.2021
 IR Inten    --     13.0234                 4.0277                 3.3165

                     37                     38                     39
                      A                      A                      A
 Frequencies --   1386.0209              1400.1738              1408.9980
 Red. masses --      1.3123                 1.3054                 1.2656
 Frc consts  --      1.4853                 1.5079                 1.4803
 IR Inten    --     10.0948                15.9652                12.1835

                     40                     41                     42
                      A                      A                      A
 Frequencies --   1484.0880              1487.9445              1500.4458
 Red. masses --      1.0522                 1.0508                 1.0538
 Frc consts  --      1.3655                 1.3707                 1.3978
 IR Inten    --      1.0458                 0.3182                 2.5626

                     43                     44                     45
                      A                      A                      A
 Frequencies --   1501.5762              1514.5309              1525.4257
 Red. masses --      1.0483                 1.0525                 1.0663
 Frc consts  --      1.3927                 1.4224                 1.4618
 IR Inten    --      1.7408                 4.0542                 4.0720

                     46                     47                     48
                      A                      A                      A
 Frequencies --   1628.0256              1659.4217              1664.2871
 Red. masses --      1.0960                 1.0923                 1.0933
 Frc consts  --      1.7115                 1.7722                 1.7842
 IR Inten    --     42.8330                35.5917                16.2207

                     49                     50                     51
                      A                      A                      A
 Frequencies --   3030.2828              3031.9818              3037.9290
 Red. masses --      1.0418                 1.0363                 1.0386
 Frc consts  --      5.6363                 5.6130                 5.6474
 IR Inten    --     33.5468                19.0147                22.7930

                     52                     53                     54
                      A                      A                      A
 Frequencies --   3096.8943              3101.3775              3105.1850
 Red. masses --      1.0969                 1.0990                 1.0943
 Frc consts  --      6.1984                 6.2283                 6.2165
 IR Inten    --     18.1414                41.0195                21.2113

                     55                     56                     57
                      A                      A                      A
 Frequencies --   3117.9026              3135.7700              3138.1466
 Red. masses --      1.1019                 1.1015                 1.1015
 Frc consts  --      6.3113                 6.3818                 6.3909
 IR Inten    --     17.1896                11.6886                13.6832

                     58                     59                     60
                      A                      A                      A
 Frequencies --   3467.2834              3484.8187              3489.7680
 Red. masses --      1.0493                 1.0496                 1.0490
 Frc consts  --      7.4324                 7.5102                 7.5266
 IR Inten    --      2.3374                 0.2203                 0.4344

                     61                     62                     63
                      A                      A                      A
 Frequencies --   3545.3418              3560.2869              3567.8910
 Red. masses --      1.0912                 1.0917                 1.0920
 Frc consts  --      8.0811                 8.1529                 8.1903
 IR Inten    --      0.2006                 0.4493                 0.9006

 - Thermochemistry -
 -------------------
 Temperature   298.150 Kelvin.  Pressure   1.00000 Atm.
 Atom     1 has atomic number  6 and mass  12.00000

 Molecular mass:   117.12660 amu.
 Principal axes and moments of inertia in atomic units:
                           1         2         3
     Eigenvalues --   752.115741035.095511046.99209
           X            0.99924   0.02767  -0.02733
           Y           -0.02849   0.99915  -0.02993
           Z            0.02648   0.03068   0.99918
 This molecule is an asymmetric top.
 Rotational symmetry number  1.
 Warning -- assumption of classical behavior for rotation
           may cause significant error
 Rotational temperatures (Kelvin)      0.11516     0.08368     0.08273
 Rotational constants (GHZ):           2.39955     1.74355     1.72374
 Zero-point vibrational energy     555697.2 (Joules/Mol)
                                  132.81483 (Kcal/Mol)
 Warning -- explicit consideration of  17 degrees of freedom as
           vibrations may cause significant error
 Vibrational temperatures:    163.82   283.86   356.95   373.36   398.68
          (Kelvin)            419.40   440.22   473.68   509.17   522.48
                              537.25   559.04   577.24   623.54   731.02
                              748.65   762.38   965.33  1186.53  1232.57
                             1303.34  1349.01  1358.54  1382.14  1400.17
                             1403.28  1452.08  1492.85  1525.35  1600.74
                             1719.64  1748.95  1783.74  1896.80  1927.29
                             1959.54  1994.17  2014.54  2027.23  2135.27
                             2140.82  2158.80  2160.43  2179.07  2194.74
                             2342.36  2387.53  2394.53  4359.90  4362.34
                             4370.90  4455.73  4462.18  4467.66  4485.96
                             4511.67  4515.09  4988.64  5013.87  5020.99
                             5100.95  5122.45  5133.39

 Zero-point correction=                           0.211654 (Hartree/Particle)
 Thermal correction to Energy=                    0.221763
 Thermal correction to Enthalpy=                  0.222708
 Thermal correction to Gibbs Free Energy=         0.178614
 Sum of electronic and zero-point Energies=           -363.634902
 Sum of electronic and thermal Energies=              -363.624793
 Sum of electronic and thermal Enthalpies=            -363.623849
 Sum of electronic and thermal Free Energies=         -363.667942

                     E (Thermal)             CV                S
                      KCal/Mol        Cal/Mol-Kelvin    Cal/Mol-Kelvin
 Total                  139.159             40.404             92.802
 Electronic               0.000              0.000              0.000
 Translational            0.889              2.981             40.189
 Rotational               0.889              2.981             28.190
 Vibrational            137.381             34.442             24.423
 Vibration     1          0.607              1.938              3.202
 Vibration     2          0.637              1.844              2.158
 Vibration     3          0.662              1.766              1.744
 Vibration     4          0.668              1.747              1.665
 Vibration     5          0.678              1.716              1.552
 Vibration     6          0.687              1.690              1.465
 Vibration     7          0.696              1.662              1.384
 Vibration     8          0.712              1.617              1.264
 Vibration     9          0.730              1.567              1.149
 Vibration    10          0.737              1.548              1.109
 Vibration    11          0.745              1.527              1.066
 Vibration    12          0.757              1.495              1.006
 Vibration    13          0.767              1.468              0.958
 Vibration    14          0.794              1.397              0.848
 Vibration    15          0.863              1.232              0.638
 Vibration    16          0.875              1.205              0.609
 Vibration    17          0.885              1.184              0.587

 Optimization completed.
    -- Stationary point found.
 Normal termination of Gaussian 09 at Fri Aug 26 00:01:56 2022.

 -----------------------------------------------------------------
 #P Geom=AllCheck Guess=TCheck SCRF=Check CCSD(T,E4T,FrzG4)/GTBas1
 -----------------------------------------------------------------

 Structure from the checkpoint file:  "G4.Frag_1023.chk"
 ---------
 Frag_1023
 ---------
 Charge =  0 Multiplicity = 1

 SCF Done:  E(RHF) =  -361.398116960     A.U. after   11 cycles
 E2 =    -0.1165126319D+01 EUMP2 =    -0.36256324327846D+03
 CCSD(T)
 CCSD(T)= -0.36268173639D+03
 .6452284\CCSD(T)=-362.6817364\RMSD=8.127e-09\PG=C01 [X(C5H15N3)]\\@
 Normal termination of Gaussian 09 at Fri Aug 26 00:12:27 2022.

 ---------------------------------------------------------
 #P Geom=AllCheck Guess=TCheck SCRF=Check MP4=FrzG4/GTBas2
 ---------------------------------------------------------

 Structure from the checkpoint file:  "G4.Frag_1023.chk"
 ---------
 Frag_1023
 ---------
 Charge =  0 Multiplicity = 1

 SCF Done:  E(RHF) =  -361.409638048     A.U. after   12 cycles
 E2 =    -0.1184643923D+01 EUMP2 =    -0.36259428197037D+03
 Normal termination of Gaussian 09 at Fri Aug 26 00:16:13 2022.

 ---------------------------------------------------------
 #P Geom=AllCheck Guess=TCheck SCRF=Check MP4=FrzG4/GTBas3
 ---------------------------------------------------------

 Structure from the checkpoint file:  "G4.Frag_1023.chk"
 ---------
 Frag_1023
 ---------
 Charge =  0 Multiplicity = 1

 SCF Done:  E(RHF) =  -361.452631427     A.U. after   10 cycles
 E2 =    -0.1443273606D+01 EUMP2 =    -0.36289590503289D+03
 Normal termination of Gaussian 09 at Fri Aug 26 00:48:56 2022.

 -----------------------------------------------------------
 #P Geom=AllCheck Guess=TCheck SCRF=Check MP2=Full/GTLargeXP
 -----------------------------------------------------------

 Structure from the checkpoint file:  "G4.Frag_1023.chk"
 ---------
 Frag_1023
 ---------
 Charge =  0 Multiplicity = 1

 SCF Done:  E(RHF) =  -361.538538379     A.U. after   12 cycles
 E2 =    -0.1885559971D+01 EUMP2 =    -0.36342409835031D+03
 Normal termination of Gaussian 09 at Fri Aug 26 00:57:47 2022.
 SCF Done:  E(RHF) =  -361.566316220     A.U. after    9 cycles
 Normal termination of Gaussian 09 at Fri Aug 26 01:01:16 2022.

                         Standard orientation:
 ---------------------------------------------------------------------
 Center     Atomic      Atomic             Coordinates (Angstroms)
 Number     Number       Type             X           Y           Z
 ---------------------------------------------------------------------
      1          6           0       -1.384246   -1.290905    0.515835
      2          6           0       -0.784612    0.027008   -0.014506
      3          6           0       -1.314235    1.194835    0.827292
      4          7           0       -1.172302    0.261021   -1.426331
      5          6           0        0.788266   -0.030778    0.026686
      6          6           0        1.414916    1.344087   -0.258735
      7          7           0        1.202964   -1.035129   -0.983461
      8          7           0        1.216346   -0.453224    1.359817
      9          1           0       -1.190646   -1.424340    1.584301
     10          1           0       -0.968315   -2.146400   -0.023766
     11          1           0       -2.470229   -1.282659    0.374357
     12          1           0       -1.092379    2.157800    0.359953
     13          1           0       -0.869308    1.174317    1.824376
     14          1           0       -2.402193    1.117993    0.935949
     15          1           0       -2.111283    0.647410   -1.455246
     16          1           0       -1.228058   -0.631723   -1.909178
     17          1           0        2.498786    1.233869   -0.384550
     18          1           0        1.242525    2.050395    0.557248
     19          1           0        1.001904    1.759073   -1.180452
     20          1           0        1.019189   -0.657430   -1.910554
     21          1           0        2.212266   -1.148315   -0.925356
     22          1           0        1.100339   -1.458665    1.445978
     23          1           0        2.207803   -0.265482    1.477325
 ---------------------------------------------------------------------

 SCF Done:  E(RHF) =  -361.572388147     A.U. after    8 cycles

 The electronic state is 1-A.
 Alpha  occ. eigenvalues --  -15.53464 -15.53350 -15.53240 -11.28270 -11.25566
 Alpha  occ. eigenvalues --  -11.20522 -11.20326 -11.20154  -1.23458  -1.17149
 Alpha  occ. eigenvalues --   -1.11766  -1.01065  -0.96778  -0.92189  -0.83787
 Alpha  occ. eigenvalues --   -0.72419  -0.67905  -0.65602  -0.63663  -0.62860
 Alpha  occ. eigenvalues --   -0.60069  -0.57467  -0.56049  -0.54097  -0.53005
 Alpha  occ. eigenvalues --   -0.52325  -0.50903  -0.50470  -0.46958  -0.45645
 Alpha  occ. eigenvalues --   -0.41034  -0.39959  -0.37398
 Alpha virt. eigenvalues --    0.03117   0.03999   0.04382   0.05045   0.05965
 Alpha virt. eigenvalues --    0.06596   0.06862   0.07137   0.07240   0.09000
 Alpha virt. eigenvalues --    0.09337   0.09402   0.09957   0.10397   0.10925

 Mulliken charges:
               1
     1  C   -0.667947
     2  C    0.532622
     3  C   -0.677617
     4  N   -0.856568
     5  C    0.480142
     6  C   -0.628952
     7  N   -0.798446
     8  N   -0.822030
     9  H    0.181815
    10  H    0.204729
    11  H    0.168077
    12  H    0.176596
    13  H    0.206850
    14  H    0.169558
    15  H    0.295919
    16  H    0.305092
    17  H    0.156908
    18  H    0.178593
    19  H    0.206898
    20  H    0.305144
    21  H    0.282754
    22  H    0.314153
    23  H    0.285711
 Sum of Mulliken charges =  -0.00000

 Dipole moment (field-independent basis, Debye):
    X=              0.4705    Y=             -0.2174    Z=             -0.4430  Tot=              0.6818
 Quadrupole moment (field-independent basis, Debye-Ang):
   XX=            -45.5971   YY=            -54.9744   ZZ=            -54.9700
   XY=             -0.8170   XZ=              1.1738   YZ=             -0.0590

 Normal termination of Gaussian 09 at Fri Aug 26 01:25:25 2022.
