 Gaussian 09, Revision E.01,
 Gaussian 09:  ES64L-G09RevE.01 30-Nov-2015

 -----
 #P G4
 -----

 --------
 Frag_830
 --------
 Symbolic Z-matrix:
 Charge =  0 Multiplicity = 1

 SCF Done:  E(RB3LYP) =  -339.696469957     A.U. after   14 cycles
 SCF Done:  E(RB3LYP) =  -339.710502473     A.U. after   13 cycles
 SCF Done:  E(RB3LYP) =  -339.714956424     A.U. after   12 cycles
 SCF Done:  E(RB3LYP) =  -339.720633566     A.U. after   13 cycles
 SCF Done:  E(RB3LYP) =  -339.722179916     A.U. after   12 cycles
 SCF Done:  E(RB3LYP) =  -339.723492329     A.U. after   12 cycles
 SCF Done:  E(RB3LYP) =  -339.725205038     A.U. after   12 cycles
 SCF Done:  E(RB3LYP) =  -339.727023235     A.U. after   14 cycles
 SCF Done:  E(RB3LYP) =  -339.728547028     A.U. after   12 cycles
 SCF Done:  E(RB3LYP) =  -339.729156046     A.U. after   12 cycles
 SCF Done:  E(RB3LYP) =  -339.729510182     A.U. after    9 cycles
 SCF Done:  E(RB3LYP) =  -339.729510780     A.U. after    8 cycles
 SCF Done:  E(RB3LYP) =  -339.729510879     A.U. after    7 cycles
 Optimization completed.
    -- Stationary point found.
 Normal termination of Gaussian 09 at Fri Aug 26 09:57:43 2022.

 ----------------------------------------------------------
 #P Geom=AllCheck Guess=TCheck SCRF=Check B3LYP/GTBas3 Freq
 ----------------------------------------------------------

 Structure from the checkpoint file:  "G4.Frag_830.chk"
 --------
 Frag_830
 --------
 Charge =  0 Multiplicity = 1

 SCF Done:  E(RB3LYP) =  -339.729510879     A.U. after    1 cycles

  Exact polarizability:  53.304  -2.197  50.562  -0.130   0.169  31.744
 Approx polarizability:  74.226  -7.605  78.497  -2.636   2.078  48.076

                      1                      2                      3
                      A                      A                      A
 Frequencies --     98.9801               138.7463               227.3214
 Red. masses --      1.0437                 4.8109                 3.5614
 Frc consts  --      0.0060                 0.0546                 0.1084
 IR Inten    --      0.0467                 6.1420                18.6034

                      4                      5                      6
                      A                      A                      A
 Frequencies --    294.6533               408.7001               418.2459
 Red. masses --      3.4592                 3.9616                 1.1521
 Frc consts  --      0.1769                 0.3899                 0.1187
 IR Inten    --     15.1272                33.7493                10.3748

                      7                      8                      9
                      A                      A                      A
 Frequencies --    467.7254               499.0176               611.8414
 Red. masses --      1.9025                 1.6269                 3.2996
 Frc consts  --      0.2452                 0.2387                 0.7278
 IR Inten    --     37.0362                42.4892                24.3385

                     10                     11                     12
                      A                      A                      A
 Frequencies --    627.5801               745.9159               935.2847
 Red. masses --      3.6684                 5.0128                 1.6287
 Frc consts  --      0.8513                 1.6433                 0.8394
 IR Inten    --     13.8125                20.3127               107.1664

                     13                     14                     15
                      A                      A                      A
 Frequencies --    976.0340              1054.4102              1082.5934
 Red. masses --      2.6832                 1.7143                 2.8091
 Frc consts  --      1.5060                 1.1230                 1.9398
 IR Inten    --     26.9640                13.9962                49.9917

                     16                     17                     18
                      A                      A                      A
 Frequencies --   1218.0998              1339.0700              1363.2823
 Red. masses --      3.0507                 1.2561                 1.6750
 Frc consts  --      2.6669                 1.3270                 1.8342
 IR Inten    --     16.7614                 8.6804               134.2288

                     19                     20                     21
                      A                      A                      A
 Frequencies --   1400.0194              1462.9795              1474.6265
 Red. masses --      1.4526                 1.0675                 1.0549
 Frc consts  --      1.6775                 1.3462                 1.3515
 IR Inten    --     69.3218                24.7949                12.1864

                     22                     23                     24
                      A                      A                      A
 Frequencies --   1520.2281              1712.0820              1750.2802
 Red. masses --      1.8534                 1.1268                 8.0483
 Frc consts  --      2.5237                 1.9460                14.5268
 IR Inten    --     65.2462                 8.0431               213.2014

                     25                     26                     27
                      A                      A                      A
 Frequencies --   3056.8115              3129.5441              3169.6015
 Red. masses --      1.0404                 1.0924                 1.1048
 Frc consts  --      5.7279                 6.3037                 6.5392
 IR Inten    --      2.7828                 5.7654                 5.7684

                     28                     29                     30
                      A                      A                      A
 Frequencies --   3426.3962              3531.1530              3539.0117
 Red. masses --      1.0522                 1.0884                 1.0642
 Frc consts  --      7.2782                 7.9959                 7.8530
 IR Inten    --      3.6403                10.4794                72.9661

 - Thermochemistry -
 -------------------
 Temperature   298.150 Kelvin.  Pressure   1.00000 Atm.
 Atom     1 has atomic number  6 and mass  12.00000

 Molecular mass:    90.04293 amu.
 Principal axes and moments of inertia in atomic units:
                           1         2         3
     Eigenvalues --   350.88067 496.85552 817.63154
           X            0.99786   0.06509   0.00587
           Y           -0.06507   0.99788  -0.00290
           Z           -0.00604   0.00251   0.99998
 This molecule is an asymmetric top.
 Rotational symmetry number  1.
 Rotational temperatures (Kelvin)      0.24685     0.17432     0.10593
 Rotational constants (GHZ):           5.14346     3.63233     2.20728
 Zero-point vibrational energy     249303.2 (Joules/Mol)
                                   59.58489 (Kcal/Mol)
 Warning -- explicit consideration of   9 degrees of freedom as
           vibrations may cause significant error
 Vibrational temperatures:    142.41   199.62   327.06   423.94   588.03
          (Kelvin)            601.76   672.95   717.97   880.30   902.95
                             1073.21  1345.66  1404.29  1517.06  1557.61
                             1752.57  1926.62  1961.46  2014.31  2104.90
                             2121.66  2187.27  2463.30  2518.26  4398.06
                             4502.71  4560.34  4929.81  5080.54  5091.84

 Zero-point correction=                           0.094955 (Hartree/Particle)
 Thermal correction to Energy=                    0.101799
 Thermal correction to Enthalpy=                  0.102743
 Thermal correction to Gibbs Free Energy=         0.064570
 Sum of electronic and zero-point Energies=           -339.634556
 Sum of electronic and thermal Energies=              -339.627712
 Sum of electronic and thermal Enthalpies=            -339.626768
 Sum of electronic and thermal Free Energies=         -339.664941

                     E (Thermal)             CV                S
                      KCal/Mol        Cal/Mol-Kelvin    Cal/Mol-Kelvin
 Total                   63.880             23.816             80.343
 Electronic               0.000              0.000              0.000
 Translational            0.889              2.981             39.405
 Rotational               0.889              2.981             26.458
 Vibrational             62.102             17.854             14.480
 Vibration     1          0.604              1.950              3.474
 Vibration     2          0.614              1.915              2.821
 Vibration     3          0.651              1.799              1.900
 Vibration     4          0.689              1.684              1.447
 Vibration     5          0.773              1.451              0.931
 Vibration     6          0.781              1.431              0.898
 Vibration     7          0.825              1.322              0.744
 Vibration     8          0.854              1.252              0.661
 Vibration     9          0.971              1.007              0.430

 Optimization completed.
    -- Stationary point found.
 Normal termination of Gaussian 09 at Fri Aug 26 09:58:10 2022.

 -----------------------------------------------------------------
 #P Geom=AllCheck Guess=TCheck SCRF=Check CCSD(T,E4T,FrzG4)/GTBas1
 -----------------------------------------------------------------

 Structure from the checkpoint file:  "G4.Frag_830.chk"
 --------
 Frag_830
 --------
 Charge =  0 Multiplicity = 1

 SCF Done:  E(RHF) =  -337.760633760     A.U. after   13 cycles
 E2 =    -0.9422161035D+00 EUMP2 =    -0.33870284986378D+03
 CCSD(T)
 CCSD(T)= -0.33876868993D+03
 8.7380619\CCSD(T)=-338.7686899\RMSD=9.350e-09\PG=C01 [X(C2H6N2O2)]\\@
 Normal termination of Gaussian 09 at Fri Aug 26 10:00:06 2022.

 ---------------------------------------------------------
 #P Geom=AllCheck Guess=TCheck SCRF=Check MP4=FrzG4/GTBas2
 ---------------------------------------------------------

 Structure from the checkpoint file:  "G4.Frag_830.chk"
 --------
 Frag_830
 --------
 Charge =  0 Multiplicity = 1

 SCF Done:  E(RHF) =  -337.772259659     A.U. after   13 cycles
 E2 =    -0.9576517652D+00 EUMP2 =    -0.33872991142441D+03
 Normal termination of Gaussian 09 at Fri Aug 26 10:00:43 2022.

 ---------------------------------------------------------
 #P Geom=AllCheck Guess=TCheck SCRF=Check MP4=FrzG4/GTBas3
 ---------------------------------------------------------

 Structure from the checkpoint file:  "G4.Frag_830.chk"
 --------
 Frag_830
 --------
 Charge =  0 Multiplicity = 1

 SCF Done:  E(RHF) =  -337.804096209     A.U. after   12 cycles
 E2 =    -0.1150785517D+01 EUMP2 =    -0.33895488172683D+03
 Normal termination of Gaussian 09 at Fri Aug 26 10:03:35 2022.

 -----------------------------------------------------------
 #P Geom=AllCheck Guess=TCheck SCRF=Check MP2=Full/GTLargeXP
 -----------------------------------------------------------

 Structure from the checkpoint file:  "G4.Frag_830.chk"
 --------
 Frag_830
 --------
 Charge =  0 Multiplicity = 1

 SCF Done:  E(RHF) =  -337.897093989     A.U. after   12 cycles
 E2 =    -0.1498700272D+01 EUMP2 =    -0.33939579426112D+03
 Normal termination of Gaussian 09 at Fri Aug 26 10:05:08 2022.
 SCF Done:  E(RHF) =  -337.924795564     A.U. after    9 cycles
 Normal termination of Gaussian 09 at Fri Aug 26 10:06:43 2022.

                         Standard orientation:
 ---------------------------------------------------------------------
 Center     Atomic      Atomic             Coordinates (Angstroms)
 Number     Number       Type             X           Y           Z
 ---------------------------------------------------------------------
      1          6           0        1.724599    0.866343    0.027805
      2          6           0        0.702752   -0.242917    0.030756
      3          8           0        0.970590   -1.429475   -0.101523
      4          7           0       -0.608848    0.119848    0.250791
      5          7           0       -1.073133    1.367719   -0.114470
      6          8           0       -1.535483   -0.925150    0.017290
      7          1           0        1.472150    1.655946    0.735518
      8          1           0        1.772797    1.320530   -0.967540
      9          1           0        2.697424    0.432379    0.260977
     10          1           0       -1.475964    1.317953   -1.051813
     11          1           0       -1.816321    1.631107    0.526625
     12          1           0       -0.921183   -1.674443   -0.135513
 ---------------------------------------------------------------------

 SCF Done:  E(RHF) =  -337.930551220     A.U. after    8 cycles

 The electronic state is 1-A.
 Alpha  occ. eigenvalues --  -20.60004 -20.54257 -15.66802 -15.61210 -11.36925
 Alpha  occ. eigenvalues --  -11.24463  -1.46522  -1.37864  -1.26676  -1.07718
 Alpha  occ. eigenvalues --   -0.99211  -0.80501  -0.72839  -0.72010  -0.70729
 Alpha  occ. eigenvalues --   -0.63222  -0.61194  -0.59613  -0.57746  -0.55566
 Alpha  occ. eigenvalues --   -0.51214  -0.47944  -0.44619  -0.39386
 Alpha virt. eigenvalues --    0.03590   0.04377   0.05362   0.05655   0.07493
 Alpha virt. eigenvalues --    0.07723   0.08104   0.08421   0.08853   0.11744
 Alpha virt. eigenvalues --    0.11828   0.13286   0.14569   0.15311   0.15865

 Mulliken charges:
               1
     1  C   -0.493176
     2  C    0.488064
     3  O   -0.615727
     4  N    0.060723
     5  N   -0.589164
     6  O   -0.521278
     7  H    0.210267
     8  H    0.192169
     9  H    0.220659
    10  H    0.305697
    11  H    0.327573
    12  H    0.414193
 Sum of Mulliken charges =  -0.00000

 Dipole moment (field-independent basis, Debye):
    X=             -0.4333    Y=              3.1272    Z=             -0.5610  Tot=              3.2065
 Quadrupole moment (field-independent basis, Debye-Ang):
   XX=            -34.6932   YY=            -37.6091   ZZ=            -34.3657
   XY=              0.3889   XZ=              1.0204   YZ=             -0.1615

 Normal termination of Gaussian 09 at Fri Aug 26 10:12:39 2022.
