 Gaussian 09, Revision E.01,
 Gaussian 09:  ES64L-G09RevE.01 30-Nov-2015

 -----
 #P G4
 -----

 --------
 Frag_960
 --------
 Symbolic Z-matrix:
 Charge =  0 Multiplicity = 1

 SCF Done:  E(RB3LYP) =  -303.846050362     A.U. after   14 cycles
 SCF Done:  E(RB3LYP) =  -303.855408257     A.U. after   12 cycles
 SCF Done:  E(RB3LYP) =  -303.855838346     A.U. after   11 cycles
 SCF Done:  E(RB3LYP) =  -303.855981926     A.U. after   11 cycles
 SCF Done:  E(RB3LYP) =  -303.856127351     A.U. after   11 cycles
 SCF Done:  E(RB3LYP) =  -303.856196888     A.U. after   11 cycles
 SCF Done:  E(RB3LYP) =  -303.856287353     A.U. after   11 cycles
 SCF Done:  E(RB3LYP) =  -303.856391233     A.U. after   11 cycles
 SCF Done:  E(RB3LYP) =  -303.856547971     A.U. after   12 cycles
 SCF Done:  E(RB3LYP) =  -303.856906049     A.U. after   11 cycles
 SCF Done:  E(RB3LYP) =  -303.857763407     A.U. after    8 cycles
 SCF Done:  E(RB3LYP) =  -303.857763558     A.U. after    7 cycles
 SCF Done:  E(RB3LYP) =  -303.857763666     A.U. after    7 cycles
 Optimization completed.
    -- Stationary point found.
 Normal termination of Gaussian 09 at Tue Aug 23 15:30:14 2022.

 ----------------------------------------------------------
 #P Geom=AllCheck Guess=TCheck SCRF=Check B3LYP/GTBas3 Freq
 ----------------------------------------------------------

 Structure from the checkpoint file:  "G4.Frag_960.chk"
 --------
 Frag_960
 --------
 Charge =  0 Multiplicity = 1

 SCF Done:  E(RB3LYP) =  -303.857763666     A.U. after    1 cycles

  Exact polarizability:  52.566  -3.547  55.778  -1.969   1.022  44.597
 Approx polarizability:  76.494 -12.093  82.615  -2.702   0.896  64.766

                      1                      2                      3
                      A                      A                      A
 Frequencies --     52.6385               148.2448               216.9922
 Red. masses --      2.8274                 1.1468                 1.3305
 Frc consts  --      0.0046                 0.0148                 0.0369
 IR Inten    --      3.2499                 0.5046                37.5112

                      4                      5                      6
                      A                      A                      A
 Frequencies --    251.9825               275.2443               318.7636
 Red. masses --      2.3515                 3.1602                 1.0874
 Frc consts  --      0.0880                 0.1411                 0.0651
 IR Inten    --      7.6271                14.4147               102.5253

                      7                      8                      9
                      A                      A                      A
 Frequencies --    405.8773               510.9167               589.3180
 Red. masses --      3.7033                 2.7919                 2.2451
 Frc consts  --      0.3594                 0.4294                 0.4594
 IR Inten    --     14.1050                16.3917                14.9318

                     10                     11                     12
                      A                      A                      A
 Frequencies --    600.7123               775.9979               870.1183
 Red. masses --      3.7039                 2.6672                 1.6578
 Frc consts  --      0.7875                 0.9463                 0.7395
 IR Inten    --      5.9100                40.5822               161.6370

                     13                     14                     15
                      A                      A                      A
 Frequencies --    929.4115               996.9535              1018.8339
 Red. masses --      1.4686                 2.3023                 1.8549
 Frc consts  --      0.7474                 1.3483                 1.1344
 IR Inten    --     65.2674                 9.4969                20.5246

                     16                     17                     18
                      A                      A                      A
 Frequencies --   1080.9587              1103.6441              1126.9574
 Red. masses --      1.4261                 2.4045                 1.7937
 Frc consts  --      0.9818                 1.7256                 1.3422
 IR Inten    --      6.5432                92.0875                78.7117

                     19                     20                     21
                      A                      A                      A
 Frequencies --   1186.7255              1336.1799              1343.9998
 Red. masses --      1.2186                 1.3769                 1.5021
 Frc consts  --      1.0111                 1.4484                 1.5986
 IR Inten    --     14.5343                 7.4465                84.9536

                     22                     23                     24
                      A                      A                      A
 Frequencies --   1370.2411              1414.5559              1422.9796
 Red. masses --      1.2962                 1.6101                 1.3549
 Frc consts  --      1.4339                 1.8982                 1.6164
 IR Inten    --     11.7807                23.8692                29.1834

                     25                     26                     27
                      A                      A                      A
 Frequencies --   1476.1362              1481.5987              1641.7894
 Red. masses --      1.0528                 1.0516                 1.1087
 Frc consts  --      1.3515                 1.3600                 1.7608
 IR Inten    --      9.6475                 6.5199                26.9873

                     28                     29                     30
                      A                      A                      A
 Frequencies --   1720.4585              2950.3547              3040.7242
 Red. masses --      8.4706                 1.0845                 1.0399
 Frc consts  --     14.7724                 5.5620                 5.6647
 IR Inten    --     45.8410                62.7771                 9.4570

                     31                     32                     33
                      A                      A                      A
 Frequencies --   3099.4144              3154.5126              3386.2297
 Red. masses --      1.0945                 1.1014                 1.0732
 Frc consts  --      6.1949                 6.4576                 7.2506
 IR Inten    --     11.1171                 6.4708                 8.6061

                     34                     35                     36
                      A                      A                      A
 Frequencies --   3500.4909              3590.8110              3816.7555
 Red. masses --      1.0487                 1.0928                 1.0660
 Frc consts  --      7.5712                 8.3016                 9.1498
 IR Inten    --      1.9313                 3.0867                26.0033

 - Thermochemistry -
 -------------------
 Temperature   298.150 Kelvin.  Pressure   1.00000 Atm.
 Atom     1 has atomic number  6 and mass  12.00000

 Molecular mass:    88.06366 amu.
 Principal axes and moments of inertia in atomic units:
                           1         2         3
     Eigenvalues --   373.35198 679.21154 702.64526
           X            0.99868   0.05055  -0.00932
           Y           -0.04784   0.98043   0.19098
           Z            0.01879  -0.19028   0.98155
 This molecule is an asymmetric top.
 Rotational symmetry number  1.
 Rotational temperatures (Kelvin)      0.23199     0.12752     0.12327
 Rotational constants (GHZ):           4.83389     2.65711     2.56850
 Zero-point vibrational energy     312270.3 (Joules/Mol)
                                   74.63440 (Kcal/Mol)
 Warning -- explicit consideration of  10 degrees of freedom as
           vibrations may cause significant error
 Vibrational temperatures:     75.73   213.29   312.20   362.55   396.01
          (Kelvin)            458.63   583.97   735.09   847.90   864.29
                             1116.49  1251.90  1337.21  1434.39  1465.87
                             1555.26  1587.90  1621.44  1707.43  1922.46
                             1933.71  1971.47  2035.23  2047.35  2123.83
                             2131.69  2362.17  2475.35  4244.90  4374.92
                             4459.36  4538.63  4872.02  5036.42  5166.37
                             5491.45

 Zero-point correction=                           0.118937 (Hartree/Particle)
 Thermal correction to Energy=                    0.126373
 Thermal correction to Enthalpy=                  0.127317
 Thermal correction to Gibbs Free Energy=         0.087617
 Sum of electronic and zero-point Energies=           -303.738826
 Sum of electronic and thermal Energies=              -303.731391
 Sum of electronic and thermal Enthalpies=            -303.730447
 Sum of electronic and thermal Free Energies=         -303.770146

                     E (Thermal)             CV                S
                      KCal/Mol        Cal/Mol-Kelvin    Cal/Mol-Kelvin
 Total                   79.300             25.835             83.554
 Electronic               0.000              0.000              0.000
 Translational            0.889              2.981             39.339
 Rotational               0.889              2.981             26.680
 Vibrational             77.523             19.874             17.536
 Vibration     1          0.596              1.977              4.716
 Vibration     2          0.618              1.905              2.695
 Vibration     3          0.646              1.815              1.984
 Vibration     4          0.664              1.759              1.717
 Vibration     5          0.677              1.719              1.563
 Vibration     6          0.705              1.638              1.316
 Vibration     7          0.771              1.457              0.941
 Vibration     8          0.866              1.226              0.631
 Vibration     9          0.947              1.055              0.468
 Vibration    10          0.959              1.030              0.448

 Normal termination of Gaussian 09 at Tue Aug 23 15:32:36 2022.

 -----------------------------------------------------------------
 #P Geom=AllCheck Guess=TCheck SCRF=Check CCSD(T,E4T,FrzG4)/GTBas1
 -----------------------------------------------------------------

 Structure from the checkpoint file:  "G4.Frag_960.chk"
 --------
 Frag_960
 --------
 Charge =  0 Multiplicity = 1

 SCF Done:  E(RHF) =  -301.982306459     A.U. after   13 cycles
 E2 =    -0.8915631595D+00 EUMP2 =    -0.30287386961811D+03
 CCSD(T)
 CCSD(T)= -0.30295117284D+03
 P4SDQ=-302.9227035\CCSD=-302.9229666\CCSD(T)=-302.9511728\RMSD=6.292e-
 Normal termination of Gaussian 09 at Tue Aug 23 15:38:47 2022.

 ---------------------------------------------------------
 #P Geom=AllCheck Guess=TCheck SCRF=Check MP4=FrzG4/GTBas2
 ---------------------------------------------------------

 Structure from the checkpoint file:  "G4.Frag_960.chk"
 --------
 Frag_960
 --------
 Charge =  0 Multiplicity = 1

 SCF Done:  E(RHF) =  -301.994092107     A.U. after   14 cycles
 E2 =    -0.9062612821D+00 EUMP2 =    -0.30290035338900D+03
 Normal termination of Gaussian 09 at Tue Aug 23 15:44:56 2022.

 ---------------------------------------------------------
 #P Geom=AllCheck Guess=TCheck SCRF=Check MP4=FrzG4/GTBas3
 ---------------------------------------------------------

 Structure from the checkpoint file:  "G4.Frag_960.chk"
 --------
 Frag_960
 --------
 Charge =  0 Multiplicity = 1

 SCF Done:  E(RHF) =  -302.027131400     A.U. after   12 cycles
 E2 =    -0.1092380518D+01 EUMP2 =    -0.30311951191812D+03
 Normal termination of Gaussian 09 at Tue Aug 23 18:14:59 2022.

 -----------------------------------------------------------
 #P Geom=AllCheck Guess=TCheck SCRF=Check MP2=Full/GTLargeXP
 -----------------------------------------------------------

 Structure from the checkpoint file:  "G4.Frag_960.chk"
 --------
 Frag_960
 --------
 Charge =  0 Multiplicity = 1

 SCF Done:  E(RHF) =  -302.107929256     A.U. after   13 cycles
 E2 =    -0.1429681570D+01 EUMP2 =    -0.30353761082608D+03
 Normal termination of Gaussian 09 at Tue Aug 23 18:20:44 2022.
 SCF Done:  E(RHF) =  -302.131635676     A.U. after    9 cycles
 Normal termination of Gaussian 09 at Tue Aug 23 18:26:34 2022.

                         Standard orientation:
 ---------------------------------------------------------------------
 Center     Atomic      Atomic             Coordinates (Angstroms)
 Number     Number       Type             X           Y           Z
 ---------------------------------------------------------------------
      1          6           0        1.204111    1.289074    0.119639
      2          6           0        0.798257   -0.159335    0.007110
      3          7           0        1.693050   -1.065645   -0.018511
      4          6           0       -0.707750   -0.453341   -0.068831
      5          7           0       -1.471694   -0.047344    1.093277
      6          8           0       -1.293426    0.233968   -1.159809
      7          1           0        0.701534    1.889150   -0.644854
      8          1           0        2.285822    1.379440    0.018581
      9          1           0        0.910235    1.700492    1.092356
     10          1           0        1.259708   -1.992537   -0.096859
     11          1           0       -0.827469   -1.545867   -0.174070
     12          1           0       -1.132847   -0.527088    1.920956
     13          1           0       -1.366825    0.951491    1.246466
     14          1           0       -0.799957    0.005719   -1.954979
 ---------------------------------------------------------------------

 SCF Done:  E(RHF) =  -302.136795030     A.U. after    8 cycles

 The electronic state is 1-A.
 Alpha  occ. eigenvalues --  -20.57498 -15.55850 -15.55612 -11.33101 -11.29040
 Alpha  occ. eigenvalues --  -11.23041  -1.39117  -1.22513  -1.18391  -0.99744
 Alpha  occ. eigenvalues --   -0.91116  -0.77137  -0.73819  -0.70273  -0.63051
 Alpha  occ. eigenvalues --   -0.61630  -0.58881  -0.57541  -0.55550  -0.54501
 Alpha  occ. eigenvalues --   -0.48381  -0.46412  -0.43084  -0.39245
 Alpha virt. eigenvalues --    0.03549   0.03937   0.04848   0.05593   0.06581
 Alpha virt. eigenvalues --    0.07261   0.07446   0.07897   0.08296   0.10037
 Alpha virt. eigenvalues --    0.11240   0.11829   0.12825   0.13274   0.13448

 Mulliken charges:
               1
     1  C   -0.532718
     2  C    0.234310
     3  N   -0.590183
     4  C    0.159014
     5  N   -0.670589
     6  O   -0.565984
     7  H    0.198883
     8  H    0.209398
     9  H    0.170039
    10  H    0.269105
    11  H    0.148148
    12  H    0.299275
    13  H    0.298840
    14  H    0.372462
 Sum of Mulliken charges =  -0.00000

 Dipole moment (field-independent basis, Debye):
    X=              0.1840    Y=              0.1113    Z=              0.2116  Tot=              0.3017
 Quadrupole moment (field-independent basis, Debye-Ang):
   XX=            -51.3884   YY=            -33.5704   ZZ=            -32.3561
   XY=              3.0783   XZ=             -1.0976   YZ=              1.5235

 Normal termination of Gaussian 09 at Tue Aug 23 21:06:13 2022.
