 Gaussian 09, Revision E.01,
 Gaussian 09:  ES64L-G09RevE.01 30-Nov-2015

 -----
 #P G4
 -----

 --------
 Frag_995
 --------
 Symbolic Z-matrix:
 Charge =  0 Multiplicity = 1

 SCF Done:  E(RB3LYP) =  -323.732353414     A.U. after   14 cycles
 SCF Done:  E(RB3LYP) =  -323.737682544     A.U. after   12 cycles
 SCF Done:  E(RB3LYP) =  -323.738731471     A.U. after   12 cycles
 SCF Done:  E(RB3LYP) =  -323.739140656     A.U. after   13 cycles
 SCF Done:  E(RB3LYP) =  -323.740453422     A.U. after   13 cycles
 SCF Done:  E(RB3LYP) =  -323.742461516     A.U. after   13 cycles
 SCF Done:  E(RB3LYP) =  -323.743211973     A.U. after   12 cycles
 SCF Done:  E(RB3LYP) =  -323.743593245     A.U. after   11 cycles
 SCF Done:  E(RB3LYP) =  -323.743793171     A.U. after   11 cycles
 SCF Done:  E(RB3LYP) =  -323.743958775     A.U. after   11 cycles
 SCF Done:  E(RB3LYP) =  -323.744357576     A.U. after    9 cycles
 SCF Done:  E(RB3LYP) =  -323.744357800     A.U. after    7 cycles
 SCF Done:  E(RB3LYP) =  -323.744357815     A.U. after    7 cycles
 Optimization completed.
    -- Stationary point found.
 Normal termination of Gaussian 09 at Fri Aug 26 05:48:43 2022.

 ----------------------------------------------------------
 #P Geom=AllCheck Guess=TCheck SCRF=Check B3LYP/GTBas3 Freq
 ----------------------------------------------------------

 Structure from the checkpoint file:  "G4.Frag_995.chk"
 --------
 Frag_995
 --------
 Charge =  0 Multiplicity = 1

 SCF Done:  E(RB3LYP) =  -323.744357815     A.U. after    1 cycles

  Exact polarizability:  49.589  -0.547  51.030   1.267  -2.491  40.173
 Approx polarizability:  65.025   1.414  80.114   0.665  -7.315  60.935

                      1                      2                      3
                      A                      A                      A
 Frequencies --     59.3485               100.8588               218.0316
 Red. masses --      2.1645                 1.4113                 1.4126
 Frc consts  --      0.0045                 0.0085                 0.0396
 IR Inten    --      0.5897                 0.4442                24.4709

                      4                      5                      6
                      A                      A                      A
 Frequencies --    257.1939               298.9481               395.3578
 Red. masses --      2.0718                 3.5188                 4.4443
 Frc consts  --      0.0807                 0.1853                 0.4093
 IR Inten    --     13.7436                10.6157                 9.5897

                      7                      8                      9
                      A                      A                      A
 Frequencies --    483.3434               517.2155               606.8195
 Red. masses --      1.4581                 1.9005                 2.9202
 Frc consts  --      0.2007                 0.2996                 0.6335
 IR Inten    --     51.1345                16.7868                 4.0362

                     10                     11                     12
                      A                      A                      A
 Frequencies --    641.2914               776.9700               835.0569
 Red. masses --      3.0507                 1.8783                 1.8193
 Frc consts  --      0.7392                 0.6681                 0.7475
 IR Inten    --     16.5165               105.7586               121.8531

                     13                     14                     15
                      A                      A                      A
 Frequencies --    967.1304               994.4729              1028.1106
 Red. masses --      2.1712                 2.3559                 1.8673
 Frc consts  --      1.1965                 1.3727                 1.1629
 IR Inten    --     17.7601                 7.5409                11.3298

                     16                     17                     18
                      A                      A                      A
 Frequencies --   1128.3836              1191.3716              1228.9230
 Red. masses --      3.2337                 2.2074                 1.3864
 Frc consts  --      2.4258                 1.8460                 1.2336
 IR Inten    --    115.3064                63.1185                18.7745

                     19                     20                     21
                      A                      A                      A
 Frequencies --   1298.5734              1380.9061              1415.4570
 Red. masses --      1.6107                 1.3054                 1.2911
 Frc consts  --      1.6003                 1.4667                 1.5241
 IR Inten    --     28.8544                37.8997                 3.6423

                     22                     23                     24
                      A                      A                      A
 Frequencies --   1448.0872              1463.7951              1475.0317
 Red. masses --      1.2278                 1.0988                 1.0526
 Frc consts  --      1.5169                 1.3872                 1.3493
 IR Inten    --    108.0236                22.2556                 8.6104

                     25                     26                     27
                      A                      A                      A
 Frequencies --   1638.8581              1794.7149              3010.5992
 Red. masses --      1.1104                10.2490                 1.0837
 Frc consts  --      1.7572                19.4501                 5.7874
 IR Inten    --     20.0951               129.3082                37.4297

                     28                     29                     30
                      A                      A                      A
 Frequencies --   3040.4401              3106.0863              3155.2108
 Red. masses --      1.0396                 1.0941                 1.1028
 Frc consts  --      5.6624                 6.2194                 6.4684
 IR Inten    --      3.1489                 7.7088                 7.7675

                     31                     32                     33
                      A                      A                      A
 Frequencies --   3488.0867              3587.1827              3674.5945
 Red. masses --      1.0486                 1.0936                 1.0644
 Frc consts  --      7.5167                 8.2911                 8.4677
 IR Inten    --      0.9135                 0.7966                73.3112

 - Thermochemistry -
 -------------------
 Temperature   298.150 Kelvin.  Pressure   1.00000 Atm.
 Atom     1 has atomic number  6 and mass  12.00000

 Molecular mass:    89.04768 amu.
 Principal axes and moments of inertia in atomic units:
                           1         2         3
     Eigenvalues --   360.03787 581.36246 795.95264
           X            0.99785  -0.06047   0.02522
           Y            0.06039   0.99817   0.00424
           Z           -0.02543  -0.00271   0.99967
 This molecule is an asymmetric top.
 Rotational symmetry number  1.
 Rotational temperatures (Kelvin)      0.24057     0.14898     0.10882
 Rotational constants (GHZ):           5.01264     3.10433     2.26740
 Zero-point vibrational energy     279366.6 (Joules/Mol)
                                   66.77022 (Kcal/Mol)
 Warning -- explicit consideration of   9 degrees of freedom as
           vibrations may cause significant error
 Vibrational temperatures:     85.39   145.11   313.70   370.04   430.12
          (Kelvin)            568.83   695.42   744.16   873.08   922.67
                             1117.89  1201.46  1391.48  1430.82  1479.22
                             1623.49  1714.12  1768.14  1868.36  1986.81
                             2036.52  2083.47  2106.07  2122.24  2357.95
                             2582.19  4331.58  4374.51  4468.96  4539.64
                             5018.57  5161.15  5286.92

 Zero-point correction=                           0.106405 (Hartree/Particle)
 Thermal correction to Energy=                    0.113643
 Thermal correction to Enthalpy=                  0.114587
 Thermal correction to Gibbs Free Energy=         0.075131
 Sum of electronic and zero-point Energies=           -323.637953
 Sum of electronic and thermal Energies=              -323.630715
 Sum of electronic and thermal Enthalpies=            -323.629771
 Sum of electronic and thermal Free Energies=         -323.669227

                     E (Thermal)             CV                S
                      KCal/Mol        Cal/Mol-Kelvin    Cal/Mol-Kelvin
 Total                   71.312             24.840             83.043
 Electronic               0.000              0.000              0.000
 Translational            0.889              2.981             39.372
 Rotational               0.889              2.981             26.613
 Vibrational             69.535             18.878             17.058
 Vibration     1          0.597              1.974              4.479
 Vibration     2          0.604              1.948              3.438
 Vibration     3          0.646              1.814              1.975
 Vibration     4          0.667              1.751              1.681
 Vibration     5          0.692              1.676              1.423
 Vibration     6          0.762              1.480              0.980
 Vibration     7          0.840              1.287              0.701
 Vibration     8          0.872              1.212              0.616
 Vibration     9          0.966              1.017              0.438

 Optimization completed.
    -- Stationary point found.
 Normal termination of Gaussian 09 at Fri Aug 26 05:49:13 2022.

 -----------------------------------------------------------------
 #P Geom=AllCheck Guess=TCheck SCRF=Check CCSD(T,E4T,FrzG4)/GTBas1
 -----------------------------------------------------------------

 Structure from the checkpoint file:  "G4.Frag_995.chk"
 --------
 Frag_995
 --------
 Charge =  0 Multiplicity = 1

 SCF Done:  E(RHF) =  -321.831683509     A.U. after   14 cycles
 E2 =    -0.9046795849D+00 EUMP2 =    -0.32273636309386D+03
 CCSD(T)
 CCSD(T)= -0.32280603679D+03
 Normal termination of Gaussian 09 at Fri Aug 26 05:51:22 2022.

 ---------------------------------------------------------
 #P Geom=AllCheck Guess=TCheck SCRF=Check MP4=FrzG4/GTBas2
 ---------------------------------------------------------

 Structure from the checkpoint file:  "G4.Frag_995.chk"
 --------
 Frag_995
 --------
 Charge =  0 Multiplicity = 1

 SCF Done:  E(RHF) =  -321.843380332     A.U. after   14 cycles
 E2 =    -0.9194911163D+00 EUMP2 =    -0.32276287144801D+03
 Normal termination of Gaussian 09 at Fri Aug 26 05:51:57 2022.

 ---------------------------------------------------------
 #P Geom=AllCheck Guess=TCheck SCRF=Check MP4=FrzG4/GTBas3
 ---------------------------------------------------------

 Structure from the checkpoint file:  "G4.Frag_995.chk"
 --------
 Frag_995
 --------
 Charge =  0 Multiplicity = 1

 SCF Done:  E(RHF) =  -321.875386922     A.U. after   13 cycles
 E2 =    -0.1112705120D+01 EUMP2 =    -0.32298809204243D+03
 Normal termination of Gaussian 09 at Fri Aug 26 05:55:17 2022.

 -----------------------------------------------------------
 #P Geom=AllCheck Guess=TCheck SCRF=Check MP2=Full/GTLargeXP
 -----------------------------------------------------------

 Structure from the checkpoint file:  "G4.Frag_995.chk"
 --------
 Frag_995
 --------
 Charge =  0 Multiplicity = 1

 SCF Done:  E(RHF) =  -321.963825938     A.U. after   13 cycles
 E2 =    -0.1455009808D+01 EUMP2 =    -0.32341883574619D+03
 Normal termination of Gaussian 09 at Fri Aug 26 05:57:19 2022.
 SCF Done:  E(RHF) =  -321.989285908     A.U. after    9 cycles
 Normal termination of Gaussian 09 at Fri Aug 26 05:59:02 2022.

                         Standard orientation:
 ---------------------------------------------------------------------
 Center     Atomic      Atomic             Coordinates (Angstroms)
 Number     Number       Type             X           Y           Z
 ---------------------------------------------------------------------
      1          6           0       -1.892986    0.613265   -0.284517
      2          6           0       -0.699274   -0.268031   -0.000953
      3          8           0       -0.795306   -1.339948    0.560413
      4          6           0        0.701089    0.239210   -0.409133
      5          7           0        1.155467    1.291729    0.505130
      6          8           0        1.588564   -0.830315   -0.403862
      7          1           0       -2.084273    0.613831   -1.364652
      8          1           0       -2.773906    0.233204    0.233956
      9          1           0       -1.704111    1.650369    0.006340
     10          1           0        0.660090    0.688616   -1.411454
     11          1           0        1.030755    1.005131    1.472478
     12          1           0        0.650489    2.160267    0.361039
     13          1           0        1.133658   -1.538090    0.081596
 ---------------------------------------------------------------------

 SCF Done:  E(RHF) =  -321.994856823     A.U. after    8 cycles

 The electronic state is 1-A.
 Alpha  occ. eigenvalues --  -20.56926 -20.55679 -15.56211 -11.34850 -11.32940
 Alpha  occ. eigenvalues --  -11.25443  -1.42296  -1.37098  -1.18864  -1.03594
 Alpha  occ. eigenvalues --   -0.91949  -0.78570  -0.71648  -0.70601  -0.65508
 Alpha  occ. eigenvalues --   -0.64010  -0.61781  -0.59306  -0.57968  -0.53850
 Alpha  occ. eigenvalues --   -0.51719  -0.47736  -0.46688  -0.40034
 Alpha virt. eigenvalues --    0.02680   0.04404   0.04667   0.05331   0.07072
 Alpha virt. eigenvalues --    0.07112   0.07180   0.07735   0.08416   0.09935
 Alpha virt. eigenvalues --    0.11415   0.11714   0.12289   0.12940   0.14073

 Mulliken charges:
               1
     1  C   -0.556647
     2  C    0.456642
     3  O   -0.552157
     4  C    0.124012
     5  N   -0.648270
     6  O   -0.590601
     7  H    0.201147
     8  H    0.216157
     9  H    0.187465
    10  H    0.169824
    11  H    0.297491
    12  H    0.289472
    13  H    0.405466
 Sum of Mulliken charges =  -0.00000

 Dipole moment (field-independent basis, Debye):
    X=             -2.9676    Y=              2.8356    Z=             -0.3708  Tot=              4.1212
 Quadrupole moment (field-independent basis, Debye-Ang):
   XX=            -42.6371   YY=            -36.6307   ZZ=            -34.4967
   XY=             -3.7012   XZ=              2.9187   YZ=              0.6174

 Normal termination of Gaussian 09 at Fri Aug 26 06:05:28 2022.
