 Gaussian 09, Revision E.01,
 Gaussian 09:  ES64L-G09RevE.01 30-Nov-2015

 -----
 #P G4
 -----

 --------
 Frag_981
 --------
 Symbolic Z-matrix:
 Charge =  0 Multiplicity = 1

 SCF Done:  E(RB3LYP) =  -359.535796180     A.U. after   17 cycles
 SCF Done:  E(RB3LYP) =  -359.563000334     A.U. after   15 cycles
 SCF Done:  E(RB3LYP) =  -359.558223426     A.U. after   14 cycles
 SCF Done:  E(RB3LYP) =  -359.564215201     A.U. after   11 cycles
 SCF Done:  E(RB3LYP) =  -359.564235726     A.U. after   14 cycles
 SCF Done:  E(RB3LYP) =  -359.566127617     A.U. after   13 cycles
 SCF Done:  E(RB3LYP) =  -359.566247705     A.U. after   12 cycles
 SCF Done:  E(RB3LYP) =  -359.566332521     A.U. after   13 cycles
 SCF Done:  E(RB3LYP) =  -359.566441579     A.U. after   14 cycles
 SCF Done:  E(RB3LYP) =  -359.566561618     A.U. after   13 cycles
 SCF Done:  E(RB3LYP) =  -359.577056658     A.U. after    9 cycles
 SCF Done:  E(RB3LYP) =  -359.577057182     A.U. after    8 cycles
 SCF Done:  E(RB3LYP) =  -359.577057291     A.U. after    7 cycles
 Optimization completed.
    -- Stationary point found.
 Normal termination of Gaussian 09 at Mon Aug 22 22:58:15 2022.

 ----------------------------------------------------------
 #P Geom=AllCheck Guess=TCheck SCRF=Check B3LYP/GTBas3 Freq
 ----------------------------------------------------------

 Structure from the checkpoint file:  "G4.Frag_981.chk"
 --------
 Frag_981
 --------
 Charge =  0 Multiplicity = 1

 SCF Done:  E(RB3LYP) =  -359.577057291     A.U. after    1 cycles

  Exact polarizability:  44.118   1.428  47.687  -0.935  -1.788  31.814
 Approx polarizability:  60.638   0.981  88.538  -2.412  -7.507  47.127

                      1                      2                      3
                      A                      A                      A
 Frequencies --     64.0489               191.7152               284.1522
 Red. masses --      6.8755                 1.0647                 2.9770
 Frc consts  --      0.0166                 0.0231                 0.1416
 IR Inten    --      4.1579                 0.9962                19.2392

                      4                      5                      6
                      A                      A                      A
 Frequencies --    304.9607               402.2709               447.8661
 Red. masses --      1.5424                 3.4907                 2.2412
 Frc consts  --      0.0845                 0.3328                 0.2649
 IR Inten    --     80.5947                41.1954                 7.9715

                      7                      8                      9
                      A                      A                      A
 Frequencies --    508.6188               587.3495               733.3300
 Red. masses --      6.2491                 5.6562                 3.4746
 Frc consts  --      0.9525                 1.1497                 1.1009
 IR Inten    --      3.4256                17.3762                 3.2887

                     10                     11                     12
                      A                      A                      A
 Frequencies --    860.1883               925.6080              1041.3889
 Red. masses --      8.9449                 2.1759                 1.6305
 Frc consts  --      3.8995                 1.0984                 1.0419
 IR Inten    --     21.4625                 1.0699                30.5808

                     13                     14                     15
                      A                      A                      A
 Frequencies --   1124.8963              1214.5425              1293.5503
 Red. masses --      2.0396                 2.7439                 1.1519
 Frc consts  --      1.5206                 2.3847                 1.1357
 IR Inten    --     17.7740                85.4490                66.7422

                     16                     17                     18
                      A                      A                      A
 Frequencies --   1356.3606              1394.8523              1418.3487
 Red. masses --      1.2540                 1.3411                 3.2403
 Frc consts  --      1.3592                 1.5374                 3.8406
 IR Inten    --     76.4874                19.6856                27.6238

                     19                     20                     21
                      A                      A                      A
 Frequencies --   1446.2383              1485.4644              1490.2265
 Red. masses --      2.0476                 1.0820                 1.0581
 Frc consts  --      2.5234                 1.4066                 1.3844
 IR Inten    --     86.3532                 9.6803                 0.8568

                     22                     23                     24
                      A                      A                      A
 Frequencies --   1671.0697              2989.6213              3063.7240
 Red. masses --     12.3712                 1.0826                 1.0351
 Frc consts  --     20.3540                 5.7011                 5.7243
 IR Inten    --    225.9259                30.0697                 5.7168

                     25                     26                     27
                      A                      A                      A
 Frequencies --   3139.0376              3165.9225              3716.6200
 Red. masses --      1.1027                 1.1022                 1.0636
 Frc consts  --      6.4019                 6.5088                 8.6560
 IR Inten    --      8.5033                 4.0731                79.3240

 - Thermochemistry -
 -------------------
 Temperature   298.150 Kelvin.  Pressure   1.00000 Atm.
 Atom     1 has atomic number  6 and mass  12.00000

 Molecular mass:    91.02694 amu.
 Principal axes and moments of inertia in atomic units:
                           1         2         3
     Eigenvalues --   337.50544 499.68455 779.29394
           X            0.99282   0.11941   0.00747
           Y           -0.11951   0.99272   0.01471
           Z           -0.00566  -0.01549   0.99986
 This molecule is an asymmetric top.
 Rotational symmetry number  1.
 Rotational temperatures (Kelvin)      0.25663     0.17334     0.11114
 Rotational constants (GHZ):           5.34730     3.61176     2.31587
 Zero-point vibrational energy     217253.6 (Joules/Mol)
                                   51.92487 (Kcal/Mol)
 Warning -- explicit consideration of   8 degrees of freedom as
           vibrations may cause significant error
 Vibrational temperatures:     92.15   275.84   408.83   438.77   578.78
          (Kelvin)            644.38   731.79   845.06  1055.10  1237.62
                             1331.74  1498.32  1618.47  1747.45  1861.13
                             1951.50  2006.88  2040.68  2080.81  2137.25
                             2144.10  2404.29  4301.39  4408.01  4516.37
                             4555.05  5347.38

 Zero-point correction=                           0.082748 (Hartree/Particle)
 Thermal correction to Energy=                    0.089107
 Thermal correction to Enthalpy=                  0.090051
 Thermal correction to Gibbs Free Energy=         0.052525
 Sum of electronic and zero-point Energies=           -359.494310
 Sum of electronic and thermal Energies=              -359.487950
 Sum of electronic and thermal Enthalpies=            -359.487006
 Sum of electronic and thermal Free Energies=         -359.524533

                     E (Thermal)             CV                S
                      KCal/Mol        Cal/Mol-Kelvin    Cal/Mol-Kelvin
 Total                   55.915             21.620             78.981
 Electronic               0.000              0.000              0.000
 Translational            0.889              2.981             39.438
 Rotational               0.889              2.981             26.377
 Vibrational             54.138             15.658             13.166
 Vibration     1          0.597              1.971              4.328
 Vibration     2          0.634              1.851              2.211
 Vibration     3          0.683              1.703              1.509
 Vibration     4          0.696              1.664              1.390
 Vibration     5          0.768              1.465              0.954
 Vibration     6          0.807              1.366              0.802
 Vibration     7          0.864              1.231              0.637
 Vibration     8          0.944              1.059              0.472

 Optimization completed.
    -- Stationary point found.
 Normal termination of Gaussian 09 at Mon Aug 22 23:00:08 2022.

 -----------------------------------------------------------------
 #P Geom=AllCheck Guess=TCheck SCRF=Check CCSD(T,E4T,FrzG4)/GTBas1
 -----------------------------------------------------------------

 Structure from the checkpoint file:  "G4.Frag_981.chk"
 --------
 Frag_981
 --------
 Charge =  0 Multiplicity = 1

 SCF Done:  E(RHF) =  -357.551601284     A.U. after   15 cycles
 E2 =    -0.9832161985D+00 EUMP2 =    -0.35853481748267D+03
 CCSD(T)
 CCSD(T)= -0.35858935879D+03
 8.5988442\MP4SDQ=-358.557201\CCSD=-358.5534949\CCSD(T)=-358.5893588\RM
 Normal termination of Gaussian 09 at Mon Aug 22 23:04:53 2022.

 ---------------------------------------------------------
 #P Geom=AllCheck Guess=TCheck SCRF=Check MP4=FrzG4/GTBas2
 ---------------------------------------------------------

 Structure from the checkpoint file:  "G4.Frag_981.chk"
 --------
 Frag_981
 --------
 Charge =  0 Multiplicity = 1

 SCF Done:  E(RHF) =  -357.563415204     A.U. after   14 cycles
 E2 =    -0.9983376195D+00 EUMP2 =    -0.35856175282360D+03
 Normal termination of Gaussian 09 at Mon Aug 22 23:09:31 2022.

 ---------------------------------------------------------
 #P Geom=AllCheck Guess=TCheck SCRF=Check MP4=FrzG4/GTBas3
 ---------------------------------------------------------

 Structure from the checkpoint file:  "G4.Frag_981.chk"
 --------
 Frag_981
 --------
 Charge =  0 Multiplicity = 1

 SCF Done:  E(RHF) =  -357.595378462     A.U. after   13 cycles
 E2 =    -0.1198158731D+01 EUMP2 =    -0.35879353719308D+03
 Normal termination of Gaussian 09 at Tue Aug 23 00:54:37 2022.

 -----------------------------------------------------------
 #P Geom=AllCheck Guess=TCheck SCRF=Check MP2=Full/GTLargeXP
 -----------------------------------------------------------

 Structure from the checkpoint file:  "G4.Frag_981.chk"
 --------
 Frag_981
 --------
 Charge =  0 Multiplicity = 1

 SCF Done:  E(RHF) =  -357.694630934     A.U. after   13 cycles
 E2 =    -0.1550263191D+01 EUMP2 =    -0.35924489412499D+03
 Normal termination of Gaussian 09 at Tue Aug 23 00:59:06 2022.
 SCF Done:  E(RHF) =  -357.724540569     A.U. after    9 cycles
 Normal termination of Gaussian 09 at Tue Aug 23 01:03:30 2022.

                         Standard orientation:
 ---------------------------------------------------------------------
 Center     Atomic      Atomic             Coordinates (Angstroms)
 Number     Number       Type             X           Y           Z
 ---------------------------------------------------------------------
      1          6           0        1.493510    1.015946    0.272020
      2          6           0        0.671557   -0.069800   -0.393365
      3          8           0        1.089227   -1.322431   -0.005916
      4          7           0       -0.830795    0.097035   -0.029140
      5          8           0       -1.432682   -0.928484    0.260708
      6          8           0       -1.311860    1.209600   -0.110094
      7          1           0        1.453530    0.902502    1.358146
      8          1           0        1.125725    2.002204   -0.010580
      9          1           0        2.531812    0.909936   -0.050804
     10          1           0        0.645889    0.060046   -1.486962
     11          1           0        0.310726   -1.900282   -0.035340
 ---------------------------------------------------------------------

 SCF Done:  E(RHF) =  -357.730812557     A.U. after    8 cycles

 The electronic state is 1-A.
 Alpha  occ. eigenvalues --  -20.61768 -20.61734 -20.59682 -15.85379 -11.37590
 Alpha  occ. eigenvalues --  -11.25107  -1.61985  -1.43094  -1.40795  -1.09307
 Alpha  occ. eigenvalues --   -0.97349  -0.84445  -0.80406  -0.75702  -0.74168
 Alpha  occ. eigenvalues --   -0.68847  -0.63086  -0.60730  -0.58686  -0.56812
 Alpha  occ. eigenvalues --   -0.51036  -0.50828  -0.48100  -0.46884
 Alpha virt. eigenvalues --    0.03348   0.03822   0.05269   0.05828   0.07105
 Alpha virt. eigenvalues --    0.07603   0.07938   0.08458   0.09941   0.10392
 Alpha virt. eigenvalues --    0.13269   0.13584   0.14078   0.15130   0.16161

 Mulliken charges:
               1
     1  C   -0.508283
     2  C    0.173481
     3  O   -0.556365
     4  N    0.496216
     5  O   -0.414015
     6  O   -0.395909
     7  H    0.192741
     8  H    0.213737
     9  H    0.197058
    10  H    0.195133
    11  H    0.406205
 Sum of Mulliken charges =  -0.00000

 Dipole moment (field-independent basis, Debye):
    X=              2.4860    Y=              0.2859    Z=             -1.0657  Tot=              2.7198
 Quadrupole moment (field-independent basis, Debye-Ang):
   XX=            -40.5597   YY=            -36.2883   ZZ=            -33.2962
   XY=              3.8791   XZ=              0.1495   YZ=              1.0914

 Normal termination of Gaussian 09 at Tue Aug 23 03:05:00 2022.
