 Gaussian 09, Revision E.01,
 Gaussian 09:  ES64L-G09RevE.01 30-Nov-2015

 -----
 #P G4
 -----

 --------
 Frag_795
 --------
 Symbolic Z-matrix:
 Charge =  0 Multiplicity = 1

 SCF Done:  E(RB3LYP) =  -267.931905682     A.U. after   14 cycles
 SCF Done:  E(RB3LYP) =  -267.937448969     A.U. after   12 cycles
 SCF Done:  E(RB3LYP) =  -267.938250153     A.U. after   12 cycles
 SCF Done:  E(RB3LYP) =  -267.940736386     A.U. after   14 cycles
 SCF Done:  E(RB3LYP) =  -267.904729617     A.U. after   13 cycles
 SCF Done:  E(RB3LYP) =  -267.941584955     A.U. after   10 cycles
 SCF Done:  E(RB3LYP) =  -267.943926127     A.U. after   14 cycles
 SCF Done:  E(RB3LYP) =  -267.943243262     A.U. after   12 cycles
 SCF Done:  E(RB3LYP) =  -267.944718018     A.U. after    9 cycles
 SCF Done:  E(RB3LYP) =  -267.943482392     A.U. after   12 cycles
 SCF Done:  E(RB3LYP) =  -267.945882082     A.U. after   10 cycles
 SCF Done:  E(RB3LYP) =  -267.945898600     A.U. after   10 cycles
 SCF Done:  E(RB3LYP) =  -267.945898440     A.U. after    7 cycles
 Optimization completed.
    -- Stationary point found.
 Normal termination of Gaussian 09 at Sun Aug 21 12:37:45 2022.

 ----------------------------------------------------------
 #P Geom=AllCheck Guess=TCheck SCRF=Check B3LYP/GTBas3 Freq
 ----------------------------------------------------------

 Structure from the checkpoint file:  "G4.Frag_795.chk"
 --------
 Frag_795
 --------
 Charge =  0 Multiplicity = 1

 SCF Done:  E(RB3LYP) =  -267.945898440     A.U. after    1 cycles

  Exact polarizability:  71.043   0.657  50.386   1.091  -0.167  54.855
 Approx polarizability:  98.194   1.236  69.406   4.833  -0.813  81.585

                      1                      2                      3
                      A                      A                      A
 Frequencies --    115.5766               194.9441               231.9322
 Red. masses --      2.9055                 1.0661                 1.0438
 Frc consts  --      0.0229                 0.0239                 0.0331
 IR Inten    --      4.3978                26.9198                 4.2334

                      4                      5                      6
                      A                      A                      A
 Frequencies --    275.1263               325.2289               350.3382
 Red. masses --      1.0287                 2.4948                 2.4464
 Frc consts  --      0.0459                 0.1555                 0.1769
 IR Inten    --      2.5873                 6.6582                 4.6787

                      7                      8                      9
                      A                      A                      A
 Frequencies --    362.5221               428.4974               457.6475
 Red. masses --      2.4807                 2.4573                 2.2340
 Frc consts  --      0.1921                 0.2658                 0.2757
 IR Inten    --      8.3952                 1.6598                 8.5776

                     10                     11                     12
                      A                      A                      A
 Frequencies --    576.7358               734.5713               767.0796
 Red. masses --      3.0502                 4.0399                 1.3190
 Frc consts  --      0.5978                 1.2844                 0.4573
 IR Inten    --      1.4213                 1.2319                 3.6251

                     13                     14                     15
                      A                      A                      A
 Frequencies --    817.5903               914.2804               931.6290
 Red. masses --      1.9648                 1.5144                 1.4898
 Frc consts  --      0.7738                 0.7459                 0.7619
 IR Inten    --     99.7091                36.7804                 0.5595

                     16                     17                     18
                      A                      A                      A
 Frequencies --    969.6937              1019.4532              1079.8281
 Red. masses --      1.7935                 1.3338                 1.3668
 Frc consts  --      0.9936                 0.8167                 0.9390
 IR Inten    --      1.2903                 3.1071                14.9253

                     19                     20                     21
                      A                      A                      A
 Frequencies --   1086.5010              1198.5630              1216.9832
 Red. masses --      1.4308                 1.8828                 2.2032
 Frc consts  --      0.9952                 1.5935                 1.9226
 IR Inten    --      3.0177                 7.0535                42.3611

                     22                     23                     24
                      A                      A                      A
 Frequencies --   1255.0111              1329.7650              1389.2807
 Red. masses --      2.4131                 1.9126                 1.2807
 Frc consts  --      2.2394                 1.9926                 1.4563
 IR Inten    --     39.6736                 9.1890                 9.1488

                     25                     26                     27
                      A                      A                      A
 Frequencies --   1408.9663              1474.5121              1476.7244
 Red. masses --      1.2430                 1.1079                 1.0602
 Frc consts  --      1.4538                 1.4191                 1.3622
 IR Inten    --      4.6571                 8.6094                 2.2461

                     28                     29                     30
                      A                      A                      A
 Frequencies --   1484.1279              1493.8646              1506.5309
 Red. masses --      1.0497                 1.0564                 1.0607
 Frc consts  --      1.3623                 1.3890                 1.4184
 IR Inten    --      1.2429                 3.6010                 2.3890

                     31                     32                     33
                      A                      A                      A
 Frequencies --   1651.6935              1733.6223              3030.7329
 Red. masses --      1.0960                 7.4335                 1.0350
 Frc consts  --      1.7616                13.1630                 5.6014
 IR Inten    --     28.7024                20.9106                21.6439

                     34                     35                     36
                      A                      A                      A
 Frequencies --   3039.2556              3049.9423              3100.8690
 Red. masses --      1.0374                 1.0543                 1.1016
 Frc consts  --      5.6458                 5.7783                 6.2408
 IR Inten    --     20.9222                31.6593                26.6985

                     37                     38                     39
                      A                      A                      A
 Frequencies --   3110.9267              3120.1455              3137.8824
 Red. masses --      1.0996                 1.1015                 1.1107
 Frc consts  --      6.2697                 6.3181                 6.4436
 IR Inten    --     22.9863                19.1923                10.2147

                     40                     41                     42
                      A                      A                      A
 Frequencies --   3138.8774              3493.3515              3579.0720
 Red. masses --      1.1059                 1.0503                 1.0914
 Frc consts  --      6.4198                 7.5518                 8.2371
 IR Inten    --     36.1042                 0.1683                 0.7320

 - Thermochemistry -
 -------------------
 Temperature   298.150 Kelvin.  Pressure   1.00000 Atm.
 Atom     1 has atomic number  6 and mass  12.00000

 Molecular mass:    86.08440 amu.
 Principal axes and moments of inertia in atomic units:
                           1         2         3
     Eigenvalues --   396.27664 618.71368 623.94343
           X            0.99957   0.02280   0.01867
           Y            0.00256  -0.69831   0.71580
           Z           -0.02936   0.71544   0.69806
 This molecule is an asymmetric top.
 Rotational symmetry number  1.
 Rotational temperatures (Kelvin)      0.21857     0.13999     0.13882
 Rotational constants (GHZ):           4.55425     2.91692     2.89248
 Zero-point vibrational energy     371200.5 (Joules/Mol)
                                   88.71905 (Kcal/Mol)
 Warning -- explicit consideration of  10 degrees of freedom as
           vibrations may cause significant error
 Vibrational temperatures:    166.29   280.48   333.70   395.84   467.93
          (Kelvin)            504.06   521.59   616.51   658.45   829.79
                             1056.88  1103.66  1176.33  1315.44  1340.40
                             1395.17  1466.76  1553.63  1563.23  1724.46
                             1750.97  1805.68  1913.23  1998.86  2027.19
                             2121.49  2124.67  2135.33  2149.34  2167.56
                             2376.42  2494.29  4360.54  4372.81  4388.18
                             4461.45  4475.92  4489.19  4514.71  4516.14
                             5026.15  5149.48

 Zero-point correction=                           0.141383 (Hartree/Particle)
 Thermal correction to Energy=                    0.148856
 Thermal correction to Enthalpy=                  0.149800
 Thermal correction to Gibbs Free Energy=         0.110938
 Sum of electronic and zero-point Energies=           -267.804516
 Sum of electronic and thermal Energies=              -267.797043
 Sum of electronic and thermal Enthalpies=            -267.796098
 Sum of electronic and thermal Free Energies=         -267.834961

                     E (Thermal)             CV                S
                      KCal/Mol        Cal/Mol-Kelvin    Cal/Mol-Kelvin
 Total                   93.408             27.616             81.792
 Electronic               0.000              0.000              0.000
 Translational            0.889              2.981             39.271
 Rotational               0.889              2.981             26.528
 Vibrational             91.631             21.655             15.992
 Vibration     1          0.608              1.936              3.173
 Vibration     2          0.636              1.847              2.180
 Vibration     3          0.653              1.792              1.864
 Vibration     4          0.677              1.719              1.564
 Vibration     5          0.709              1.625              1.284
 Vibration     6          0.727              1.575              1.165
 Vibration     7          0.736              1.549              1.111
 Vibration     8          0.790              1.408              0.864
 Vibration     9          0.816              1.344              0.773
 Vibration    10          0.933              1.082              0.491

 Optimization completed.
    -- Stationary point found.
 Normal termination of Gaussian 09 at Sun Aug 21 12:40:57 2022.

 -----------------------------------------------------------------
 #P Geom=AllCheck Guess=TCheck SCRF=Check CCSD(T,E4T,FrzG4)/GTBas1
 -----------------------------------------------------------------

 Structure from the checkpoint file:  "G4.Frag_795.chk"
 --------
 Frag_795
 --------
 Charge =  0 Multiplicity = 1

 SCF Done:  E(RHF) =  -266.159650607     A.U. after   13 cycles
 E2 =    -0.8501086571D+00 EUMP2 =    -0.26700975926405D+03
 CCSD(T)
 CCSD(T)= -0.26709795804D+03
 267.0967645\MP4SDQ=-267.0674631\CCSD=-267.068601\CCSD(T)=-267.097958\R
 Normal termination of Gaussian 09 at Sun Aug 21 12:48:09 2022.

 ---------------------------------------------------------
 #P Geom=AllCheck Guess=TCheck SCRF=Check MP4=FrzG4/GTBas2
 ---------------------------------------------------------

 Structure from the checkpoint file:  "G4.Frag_795.chk"
 --------
 Frag_795
 --------
 Charge =  0 Multiplicity = 1

 SCF Done:  E(RHF) =  -266.167625596     A.U. after   13 cycles
 E2 =    -0.8619833660D+00 EUMP2 =    -0.26702960896224D+03
 Normal termination of Gaussian 09 at Sun Aug 21 12:57:39 2022.

 ---------------------------------------------------------
 #P Geom=AllCheck Guess=TCheck SCRF=Check MP4=FrzG4/GTBas3
 ---------------------------------------------------------

 Structure from the checkpoint file:  "G4.Frag_795.chk"
 --------
 Frag_795
 --------
 Charge =  0 Multiplicity = 1

 SCF Done:  E(RHF) =  -266.194971751     A.U. after   11 cycles
 E2 =    -0.1042860404D+01 EUMP2 =    -0.26723783215521D+03
 Normal termination of Gaussian 09 at Sun Aug 21 16:31:49 2022.

 -----------------------------------------------------------
 #P Geom=AllCheck Guess=TCheck SCRF=Check MP2=Full/GTLargeXP
 -----------------------------------------------------------

 Structure from the checkpoint file:  "G4.Frag_795.chk"
 --------
 Frag_795
 --------
 Charge =  0 Multiplicity = 1

 SCF Done:  E(RHF) =  -266.257980198     A.U. after   12 cycles
 E2 =    -0.1368568266D+01 EUMP2 =    -0.26762654846357D+03
 Normal termination of Gaussian 09 at Sun Aug 21 16:38:59 2022.
 SCF Done:  E(RHF) =  -266.278405425     A.U. after    9 cycles
 Normal termination of Gaussian 09 at Sun Aug 21 16:46:23 2022.

                         Standard orientation:
 ---------------------------------------------------------------------
 Center     Atomic      Atomic             Coordinates (Angstroms)
 Number     Number       Type             X           Y           Z
 ---------------------------------------------------------------------
      1          6           0        2.052401    0.012636   -0.102415
      2          7           0        0.956659    0.093549   -0.727444
      3          6           0       -0.314743    0.003291    0.007378
      4          6           0       -1.148254    1.216267   -0.447652
      5          6           0       -0.982280   -1.306498   -0.439145
      6          7           0       -0.137704   -0.042194    1.465346
      7          1           0        2.123960   -0.131354    0.979980
      8          1           0        2.981818    0.077015   -0.671440
      9          1           0       -2.145117    1.184864    0.003983
     10          1           0       -1.250676    1.234073   -1.535810
     11          1           0       -0.658407    2.147435   -0.142539
     12          1           0       -0.419348   -2.162244   -0.056339
     13          1           0       -2.010008   -1.364357   -0.064429
     14          1           0       -1.004906   -1.363319   -1.529030
     15          1           0       -0.964301   -0.433104    1.904074
     16          1           0       -0.028447    0.897332    1.837234
 ---------------------------------------------------------------------

 SCF Done:  E(RHF) =  -266.282731230     A.U. after    8 cycles

 The electronic state is 1-A.
 Alpha  occ. eigenvalues --  -15.55021 -15.54226 -11.29097 -11.25977 -11.21339
 Alpha  occ. eigenvalues --  -11.21272  -1.24684  -1.15478  -1.01701  -0.93703
 Alpha  occ. eigenvalues --   -0.84917  -0.74429  -0.67669  -0.64909  -0.63235
 Alpha  occ. eigenvalues --   -0.58928  -0.56757  -0.54166  -0.52905  -0.50557
 Alpha  occ. eigenvalues --   -0.49240  -0.41836  -0.40282  -0.39714
 Alpha virt. eigenvalues --    0.03405   0.04274   0.04430   0.05111   0.06391
 Alpha virt. eigenvalues --    0.06693   0.06984   0.07393   0.07660   0.09707
 Alpha virt. eigenvalues --    0.10437   0.10713   0.11360   0.13174   0.13651

 Mulliken charges:
               1
     1  C   -0.248456
     2  N   -0.392946
     3  C    0.457341
     4  C   -0.542785
     5  C   -0.568727
     6  N   -0.789175
     7  H    0.219614
     8  H    0.210791
     9  H    0.163200
    10  H    0.186907
    11  H    0.166975
    12  H    0.181830
    13  H    0.158448
    14  H    0.196637
    15  H    0.302524
    16  H    0.297823
 Sum of Mulliken charges =  -0.00000

 Dipole moment (field-independent basis, Debye):
    X=             -0.7911    Y=              0.4061    Z=              1.4955  Tot=              1.7400
 Quadrupole moment (field-independent basis, Debye-Ang):
   XX=            -34.9916   YY=            -38.9140   ZZ=            -40.3554
   XY=              0.6438   XZ=             -0.2015   YZ=              1.8114

 Normal termination of Gaussian 09 at Sun Aug 21 20:06:04 2022.
