 Gaussian 09, Revision E.01,
 Gaussian 09:  ES64L-G09RevE.01 30-Nov-2015

 -----
 #P G4
 -----

 --------
 Frag_511
 --------
 Symbolic Z-matrix:
 Charge =  0 Multiplicity = 1

 SCF Done:  E(RB3LYP) =  -286.595758836     A.U. after   14 cycles
 SCF Done:  E(RB3LYP) =  -286.609943667     A.U. after   13 cycles
 SCF Done:  E(RB3LYP) =  -286.611015624     A.U. after   11 cycles
 SCF Done:  E(RB3LYP) =  -286.611451611     A.U. after   11 cycles
 SCF Done:  E(RB3LYP) =  -286.611722900     A.U. after   12 cycles
 SCF Done:  E(RB3LYP) =  -286.612004302     A.U. after   11 cycles
 SCF Done:  E(RB3LYP) =  -286.612111210     A.U. after   12 cycles
 SCF Done:  E(RB3LYP) =  -286.612119791     A.U. after    9 cycles
 SCF Done:  E(RB3LYP) =  -286.612122896     A.U. after    9 cycles
 SCF Done:  E(RB3LYP) =  -286.612123301     A.U. after    8 cycles
 Optimization completed.
    -- Stationary point found.
 Normal termination of Gaussian 09 at Fri Aug 26 08:41:58 2022.

 ----------------------------------------------------------
 #P Geom=AllCheck Guess=TCheck SCRF=Check B3LYP/GTBas3 Freq
 ----------------------------------------------------------

 Structure from the checkpoint file:  "G4.Frag_511.chk"
 --------
 Frag_511
 --------
 Charge =  0 Multiplicity = 1

 SCF Done:  E(RB3LYP) =  -286.612123301     A.U. after    1 cycles

  Exact polarizability:  60.286   8.793  69.915   0.092  -0.452  32.056
 Approx polarizability:  81.716  19.481 118.997  -0.233   0.850  49.287

                      1                      2                      3
                      A                      A                      A
 Frequencies --     78.0194               173.5768               279.1221
 Red. masses --      3.8099                 1.0519                 3.3764
 Frc consts  --      0.0137                 0.0187                 0.1550
 IR Inten    --      2.6696                 0.3077                 8.8640

                      4                      5                      6
                      A                      A                      A
 Frequencies --    351.9946               380.2988               450.6418
 Red. masses --      2.9852                 2.3382                 1.2046
 Frc consts  --      0.2179                 0.1992                 0.1441
 IR Inten    --      2.4678                15.3598                92.9922

                      7                      8                      9
                      A                      A                      A
 Frequencies --    523.7391               547.3828               636.4145
 Red. masses --      2.7736                 3.7441                 1.4773
 Frc consts  --      0.4483                 0.6610                 0.3525
 IR Inten    --      4.9548                17.4976                 2.5689

                     10                     11                     12
                      A                      A                      A
 Frequencies --    766.1177               802.9460               914.4995
 Red. masses --      3.5824                 1.9533                 1.2431
 Frc consts  --      1.2388                 0.7420                 0.6125
 IR Inten    --     22.5893                 3.7827                55.5582

                     13                     14                     15
                      A                      A                      A
 Frequencies --    937.7333               956.2695              1023.4943
 Red. masses --      1.4197                 1.7744                 1.4033
 Frc consts  --      0.7355                 0.9560                 0.8661
 IR Inten    --     31.8635                 6.4655                 5.4238

                     16                     17                     18
                      A                      A                      A
 Frequencies --   1074.9240              1098.5617              1212.7222
 Red. masses --      1.4992                 2.5497                 1.2433
 Frc consts  --      1.0206                 1.8129                 1.0773
 IR Inten    --      2.9440                52.1946                37.4963

                     19                     20                     21
                      A                      A                      A
 Frequencies --   1263.3625              1403.7334              1415.9252
 Red. masses --      1.8880                 1.5501                 2.1065
 Frc consts  --      1.7754                 1.7997                 2.4882
 IR Inten    --    120.8653               117.1664                59.8162

                     22                     23                     24
                      A                      A                      A
 Frequencies --   1449.7970              1469.1534              1491.9898
 Red. masses --      1.2075                 1.0474                 1.0709
 Frc consts  --      1.4953                 1.3320                 1.4045
 IR Inten    --      3.3890                 7.8619                11.4908

                     25                     26                     27
                      A                      A                      A
 Frequencies --   1693.6233              1746.0539              3046.1243
 Red. masses --      5.0108                 7.3000                 1.0360
 Frc consts  --      8.4682                13.1127                 5.6638
 IR Inten    --     40.8029                97.3046                12.8362

                     28                     29                     30
                      A                      A                      A
 Frequencies --   3107.7210              3132.9030              3147.1116
 Red. masses --      1.0977                 1.1034                 1.0627
 Frc consts  --      6.2463                 6.3806                 6.2014
 IR Inten    --      9.6456                13.4729                 4.3243

                     31                     32                     33
                      A                      A                      A
 Frequencies --   3226.2013              3471.2304              3803.4502
 Red. masses --      1.1129                 1.0737                 1.0651
 Frc consts  --      6.8250                 7.6228                 9.0780
 IR Inten    --      9.8485                 3.0038                28.6043

 - Thermochemistry -
 -------------------
 Temperature   298.150 Kelvin.  Pressure   1.00000 Atm.
 Atom     1 has atomic number  6 and mass  12.00000

 Molecular mass:    85.05276 amu.
 Principal axes and moments of inertia in atomic units:
                           1         2         3
     Eigenvalues --   345.20803 527.57691 841.80073
           X            0.99989  -0.01484   0.00226
           Y            0.01486   0.99985  -0.00900
           Z           -0.00212   0.00904   0.99996
 This molecule is an asymmetric top.
 Rotational symmetry number  1.
 Rotational temperatures (Kelvin)      0.25090     0.16417     0.10289
 Rotational constants (GHZ):           5.22798     3.42081     2.14391
 Zero-point vibrational energy     281582.0 (Joules/Mol)
                                   67.29972 (Kcal/Mol)
 Warning -- explicit consideration of   8 degrees of freedom as
           vibrations may cause significant error
 Vibrational temperatures:    112.25   249.74   401.59   506.44   547.16
          (Kelvin)            648.37   753.54   787.56   915.66  1102.27
                             1155.26  1315.76  1349.19  1375.86  1472.58
                             1546.57  1580.58  1744.83  1817.69  2019.66
                             2037.20  2085.93  2113.78  2146.64  2436.74
                             2512.18  4382.69  4471.31  4507.54  4527.99
                             4641.78  4994.32  5472.31

 Zero-point correction=                           0.107249 (Hartree/Particle)
 Thermal correction to Energy=                    0.113858
 Thermal correction to Enthalpy=                  0.114802
 Thermal correction to Gibbs Free Energy=         0.077101
 Sum of electronic and zero-point Energies=           -286.504874
 Sum of electronic and thermal Energies=              -286.498265
 Sum of electronic and thermal Enthalpies=            -286.497321
 Sum of electronic and thermal Free Energies=         -286.535023

                     E (Thermal)             CV                S
                      KCal/Mol        Cal/Mol-Kelvin    Cal/Mol-Kelvin
 Total                   71.447             23.789             79.349
 Electronic               0.000              0.000              0.000
 Translational            0.889              2.981             39.235
 Rotational               0.889              2.981             26.530
 Vibrational             69.670             17.828             13.584
 Vibration     1          0.599              1.964              3.940
 Vibration     2          0.627              1.875              2.396
 Vibration     3          0.679              1.712              1.539
 Vibration     4          0.729              1.571              1.157
 Vibration     5          0.750              1.512              1.038
 Vibration     6          0.809              1.359              0.794
 Vibration     7          0.879              1.197              0.601
 Vibration     8          0.903              1.145              0.550

 Normal termination of Gaussian 09 at Fri Aug 26 08:42:27 2022.

 -----------------------------------------------------------------
 #P Geom=AllCheck Guess=TCheck SCRF=Check CCSD(T,E4T,FrzG4)/GTBas1
 -----------------------------------------------------------------

 Structure from the checkpoint file:  "G4.Frag_511.chk"
 --------
 Frag_511
 --------
 Charge =  0 Multiplicity = 1

 SCF Done:  E(RHF) =  -284.825876712     A.U. after   13 cycles
 E2 =    -0.8495539508D+00 EUMP2 =    -0.28567543066237D+03
 CCSD(T)
 CCSD(T)= -0.28575200378D+03
 Normal termination of Gaussian 09 at Fri Aug 26 08:44:09 2022.

 ---------------------------------------------------------
 #P Geom=AllCheck Guess=TCheck SCRF=Check MP4=FrzG4/GTBas2
 ---------------------------------------------------------

 Structure from the checkpoint file:  "G4.Frag_511.chk"
 --------
 Frag_511
 --------
 Charge =  0 Multiplicity = 1

 SCF Done:  E(RHF) =  -284.834973115     A.U. after   13 cycles
 E2 =    -0.8609363925D+00 EUMP2 =    -0.28569590950716D+03
 Normal termination of Gaussian 09 at Fri Aug 26 08:44:43 2022.

 ---------------------------------------------------------
 #P Geom=AllCheck Guess=TCheck SCRF=Check MP4=FrzG4/GTBas3
 ---------------------------------------------------------

 Structure from the checkpoint file:  "G4.Frag_511.chk"
 --------
 Frag_511
 --------
 Charge =  0 Multiplicity = 1

 SCF Done:  E(RHF) =  -284.864443404     A.U. after   11 cycles
 E2 =    -0.1034693551D+01 EUMP2 =    -0.28589913695581D+03
 Normal termination of Gaussian 09 at Fri Aug 26 08:47:32 2022.

 -----------------------------------------------------------
 #P Geom=AllCheck Guess=TCheck SCRF=Check MP2=Full/GTLargeXP
 -----------------------------------------------------------

 Structure from the checkpoint file:  "G4.Frag_511.chk"
 --------
 Frag_511
 --------
 Charge =  0 Multiplicity = 1

 SCF Done:  E(RHF) =  -284.936482132     A.U. after   12 cycles
 E2 =    -0.1362818673D+01 EUMP2 =    -0.28629930080509D+03
 Normal termination of Gaussian 09 at Fri Aug 26 08:49:16 2022.
 SCF Done:  E(RHF) =  -284.959263409     A.U. after    8 cycles
 Normal termination of Gaussian 09 at Fri Aug 26 08:50:52 2022.

                         Standard orientation:
 ---------------------------------------------------------------------
 Center     Atomic      Atomic             Coordinates (Angstroms)
 Number     Number       Type             X           Y           Z
 ---------------------------------------------------------------------
      1          6           0        1.136978    1.407534   -0.196823
      2          6           0        0.698058    0.158576   -0.011886
      3          6           0        1.625462   -1.011210    0.171297
      4          6           0       -0.756297   -0.161245   -0.018477
      5          7           0       -1.155190   -1.347888   -0.229306
      6          8           0       -1.629629    0.864560    0.192139
      7          1           0        0.474558    2.244347   -0.395935
      8          1           0        2.196759    1.636839   -0.199279
      9          1           0        2.670039   -0.695370    0.122790
     10          1           0        1.436345   -1.764107   -0.598525
     11          1           0        1.446913   -1.505122    1.131954
     12          1           0       -2.175789   -1.385157   -0.197329
     13          1           0       -1.150665    1.625373    0.539689
 ---------------------------------------------------------------------

 SCF Done:  E(RHF) =  -284.963938404     A.U. after    8 cycles

 The electronic state is 1-A.
 Alpha  occ. eigenvalues --  -20.60070 -15.53735 -11.34468 -11.26572 -11.24868
 Alpha  occ. eigenvalues --  -11.22540  -1.42691  -1.19941  -1.09469  -0.94843
 Alpha  occ. eigenvalues --   -0.86569  -0.78207  -0.70991  -0.67494  -0.62251
 Alpha  occ. eigenvalues --   -0.59829  -0.59023  -0.56701  -0.53401  -0.51340
 Alpha  occ. eigenvalues --   -0.44811  -0.42845  -0.37052
 Alpha virt. eigenvalues --    0.03356   0.04253   0.04702   0.04983   0.06486
 Alpha virt. eigenvalues --    0.07062   0.07552   0.07709   0.08004   0.09625
 Alpha virt. eigenvalues --    0.10384   0.11172   0.11346   0.12367   0.12908

 Mulliken charges:
               1
     1  C   -0.454708
     2  C    0.138223
     3  C   -0.537946
     4  C    0.419818
     5  N   -0.656901
     6  O   -0.549360
     7  H    0.189081
     8  H    0.199739
     9  H    0.161167
    10  H    0.218746
    11  H    0.184858
    12  H    0.302568
    13  H    0.384717
 Sum of Mulliken charges =  -0.00000

 Dipole moment (field-independent basis, Debye):
    X=              1.3797    Y=              2.3786    Z=              0.7428  Tot=              2.8483
 Quadrupole moment (field-independent basis, Debye-Ang):
   XX=            -35.4386   YY=            -36.0457   ZZ=            -38.4486
   XY=              0.2483   XZ=             -0.5053   YZ=             -0.0782

 Normal termination of Gaussian 09 at Fri Aug 26 08:57:34 2022.
