 Gaussian 09, Revision E.01,
 Gaussian 09:  ES64L-G09RevE.01 30-Nov-2015

 -----
 #P G4
 -----

 ---------
 Frag_1089
 ---------
 Symbolic Z-matrix:
 Charge =  0 Multiplicity = 1

 SCF Done:  E(RB3LYP) =  -360.429974058     A.U. after   12 cycles
 SCF Done:  E(RB3LYP) =  -360.430265905     A.U. after   10 cycles
 SCF Done:  E(RB3LYP) =  -360.430273029     A.U. after    7 cycles
 SCF Done:  E(RB3LYP) =  -360.430277902     A.U. after    7 cycles
 SCF Done:  E(RB3LYP) =  -360.430308662     A.U. after   10 cycles
 SCF Done:  E(RB3LYP) =  -360.429671061     A.U. after   12 cycles
 SCF Done:  E(RB3LYP) =  -360.430357528     A.U. after   10 cycles
 SCF Done:  E(RB3LYP) =  -360.430391305     A.U. after   10 cycles
 SCF Done:  E(RB3LYP) =  -360.430444012     A.U. after   10 cycles
 SCF Done:  E(RB3LYP) =  -360.430435151     A.U. after   10 cycles
 SCF Done:  E(RB3LYP) =  -360.432347861     A.U. after    9 cycles
 SCF Done:  E(RB3LYP) =  -360.432348363     A.U. after    7 cycles
 SCF Done:  E(RB3LYP) =  -360.432348561     A.U. after    6 cycles
 Optimization completed.
    -- Stationary point found.
 Normal termination of Gaussian 09 at Thu Sep  1 13:38:38 2022.

 ----------------------------------------------------------
 #P Geom=AllCheck Guess=TCheck SCRF=Check B3LYP/GTBas3 Freq
 ----------------------------------------------------------

 Structure from the checkpoint file:  "G4.Frag_1089.chk"
 ---------
 Frag_1089
 ---------
 Charge =  0 Multiplicity = 1

 SCF Done:  E(RB3LYP) =  -360.432348561     A.U. after    1 cycles

  Exact polarizability:  63.270  -0.401  61.741   1.156  -0.565  54.273
 Approx polarizability:  83.878  -0.010  86.850   1.621   0.176  80.067

                      1                      2                      3
                      A                      A                      A
 Frequencies --     92.5406               129.4206               222.6507
 Red. masses --      2.7864                 1.1137                 1.1958
 Frc consts  --      0.0141                 0.0110                 0.0349
 IR Inten    --      1.0456                22.7861                 0.1809

                      4                      5                      6
                      A                      A                      A
 Frequencies --    249.8863               271.1319               280.7502
 Red. masses --      1.0614                 1.7113                 1.4070
 Frc consts  --      0.0390                 0.0741                 0.0653
 IR Inten    --      1.2612                 9.7754                17.5082

                      7                      8                      9
                      A                      A                      A
 Frequencies --    318.7327               367.3716               398.9316
 Red. masses --      2.7814                 1.2694                 2.4615
 Frc consts  --      0.1665                 0.1009                 0.2308
 IR Inten    --      6.4194                66.6927                 3.0031

                     10                     11                     12
                      A                      A                      A
 Frequencies --    418.4634               467.6398               533.6912
 Red. masses --      3.0163                 2.2428                 3.2093
 Frc consts  --      0.3112                 0.2890                 0.5386
 IR Inten    --      8.7323                 5.1065                 4.9796

                     13                     14                     15
                      A                      A                      A
 Frequencies --    559.6143               584.1376               726.2658
 Red. masses --      3.6726                 3.2370                 2.3597
 Frc consts  --      0.6776                 0.6508                 0.7333
 IR Inten    --      3.2242                35.6551                86.4053

                     16                     17                     18
                      A                      A                      A
 Frequencies --    773.2556               874.9284               908.4486
 Red. masses --      1.7239                 1.5350                 3.2428
 Frc consts  --      0.6073                 0.6923                 1.5768
 IR Inten    --    111.3442               200.6956                70.3730

                     19                     20                     21
                      A                      A                      A
 Frequencies --    989.8543              1053.4061              1067.0713
 Red. masses --      2.4316                 1.9932                 1.5505
 Frc consts  --      1.4037                 1.3032                 1.0402
 IR Inten    --     74.6208                89.3827                 3.3186

                     22                     23                     24
                      A                      A                      A
 Frequencies --   1093.2645              1121.8241              1186.9835
 Red. masses --      1.9103                 1.2493                 1.4876
 Frc consts  --      1.3452                 0.9264                 1.2349
 IR Inten    --    161.0081                 2.5152                11.6042

                     25                     26                     27
                      A                      A                      A
 Frequencies --   1225.6772              1275.7851              1303.4297
 Red. masses --      3.3415                 1.7855                 2.0373
 Frc consts  --      2.9576                 1.7122                 2.0393
 IR Inten    --      9.2778                26.5694                32.1098

                     28                     29                     30
                      A                      A                      A
 Frequencies --   1342.0801              1378.9075              1435.3328
 Red. masses --      2.1647                 1.6992                 1.1639
 Frc consts  --      2.2973                 1.9035                 1.4127
 IR Inten    --     41.9342               134.6910                 2.8111

                     31                     32                     33
                      A                      A                      A
 Frequencies --   1467.6723              1484.3458              1498.2385
 Red. masses --      1.1864                 1.0507                 1.0555
 Frc consts  --      1.5057                 1.3640                 1.3960
 IR Inten    --      7.5230                 8.6592                 6.6023

                     34                     35                     36
                      A                      A                      A
 Frequencies --   1506.4341              1519.7318              1611.4741
 Red. masses --      1.0506                 1.0557                 1.1177
 Frc consts  --      1.4047                 1.4366                 1.7101
 IR Inten    --      9.4591                 9.4056                55.9456

                     37                     38                     39
                      A                      A                      A
 Frequencies --   1639.5763              2911.1866              2931.2746
 Red. masses --      1.1257                 1.0626                 1.0620
 Frc consts  --      1.7829                 5.3061                 5.3764
 IR Inten    --     24.4859                62.8759                98.3882

                     40                     41                     42
                      A                      A                      A
 Frequencies --   3064.4616              3070.3630              3113.0781
 Red. masses --      1.0691                 1.0759                 1.1009
 Frc consts  --      5.9153                 5.9758                 6.2859
 IR Inten    --     24.8581                42.9400                23.4491

                     43                     44                     45
                      A                      A                      A
 Frequencies --   3162.7381              3497.0783              3541.2429
 Red. masses --      1.0949                 1.0499                 1.0475
 Frc consts  --      6.4531                 7.5652                 7.7394
 IR Inten    --      7.3949                 1.0866                 3.1970

                     46                     47                     48
                      A                      A                      A
 Frequencies --   3592.6884              3649.4937              3827.0415
 Red. masses --      1.0911                 1.0964                 1.0651
 Frc consts  --      8.2973                 8.6035                 9.1912
 IR Inten    --      3.8796                10.0881                52.8404

 - Thermochemistry -
 -------------------
 Temperature   298.150 Kelvin.  Pressure   1.00000 Atm.
 Atom     1 has atomic number  6 and mass  12.00000

 Molecular mass:   105.09021 amu.
 Principal axes and moments of inertia in atomic units:
                           1         2         3
     Eigenvalues --   538.90556 742.61155 902.46635
           X            0.99968  -0.02146   0.01351
           Y            0.02173   0.99955  -0.02084
           Z           -0.01305   0.02113   0.99969
 This molecule is an asymmetric top.
 Rotational symmetry number  1.
 Warning -- assumption of classical behavior for rotation
           may cause significant error
 Rotational temperatures (Kelvin)      0.16072     0.11663     0.09597
 Rotational constants (GHZ):           3.34890     2.43026     1.99979
 Zero-point vibrational energy     417135.4 (Joules/Mol)
                                   99.69776 (Kcal/Mol)
 Warning -- explicit consideration of  14 degrees of freedom as
           vibrations may cause significant error
 Vibrational temperatures:    133.15   186.21   320.34   359.53   390.10
          (Kelvin)            403.94   458.58   528.57   573.97   602.07
                              672.83   767.86   805.16   840.44  1044.93
                             1112.54  1258.83  1307.05  1424.18  1515.61
                             1535.28  1572.96  1614.05  1707.80  1763.47
                             1835.57  1875.34  1930.95  1983.94  2065.12
                             2111.65  2135.64  2155.63  2167.42  2186.55
                             2318.55  2358.98  4188.54  4217.45  4409.07
                             4417.56  4479.02  4550.47  5031.51  5095.05
                             5169.07  5250.80  5506.25

 Zero-point correction=                           0.158878 (Hartree/Particle)
 Thermal correction to Energy=                    0.167756
 Thermal correction to Enthalpy=                  0.168700
 Thermal correction to Gibbs Free Energy=         0.126592
 Sum of electronic and zero-point Energies=           -360.273470
 Sum of electronic and thermal Energies=              -360.264593
 Sum of electronic and thermal Enthalpies=            -360.263649
 Sum of electronic and thermal Free Energies=         -360.305756

                     E (Thermal)             CV                S
                      KCal/Mol        Cal/Mol-Kelvin    Cal/Mol-Kelvin
 Total                  105.268             33.197             88.623
 Electronic               0.000              0.000              0.000
 Translational            0.889              2.981             39.866
 Rotational               0.889              2.981             27.382
 Vibrational            103.491             27.236             21.375
 Vibration     1          0.602              1.955              3.606
 Vibration     2          0.612              1.924              2.955
 Vibration     3          0.648              1.807              1.937
 Vibration     4          0.663              1.763              1.731
 Vibration     5          0.675              1.726              1.589
 Vibration     6          0.680              1.709              1.529
 Vibration     7          0.705              1.638              1.317
 Vibration     8          0.740              1.539              1.091
 Vibration     9          0.765              1.472              0.967
 Vibration    10          0.781              1.430              0.897
 Vibration    11          0.825              1.322              0.744
 Vibration    12          0.889              1.175              0.579
 Vibration    13          0.915              1.119              0.525
 Vibration    14          0.941              1.066              0.478

 Normal termination of Gaussian 09 at Thu Sep  1 13:39:35 2022.

 -----------------------------------------------------------------
 #P Geom=AllCheck Guess=TCheck SCRF=Check CCSD(T,E4T,FrzG4)/GTBas1
 -----------------------------------------------------------------

 Structure from the checkpoint file:  "G4.Frag_1089.chk"
 ---------
 Frag_1089
 ---------
 Charge =  0 Multiplicity = 1

 SCF Done:  E(RHF) =  -358.183742468     A.U. after   12 cycles
 E2 =    -0.1069155097D+01 EUMP2 =    -0.35925289756419D+03
 CCSD(T)
 CCSD(T)= -0.35934483337D+03
 Normal termination of Gaussian 09 at Thu Sep  1 13:44:21 2022.

 ---------------------------------------------------------
 #P Geom=AllCheck Guess=TCheck SCRF=Check MP4=FrzG4/GTBas2
 ---------------------------------------------------------

 Structure from the checkpoint file:  "G4.Frag_1089.chk"
 ---------
 Frag_1089
 ---------
 Charge =  0 Multiplicity = 1

 SCF Done:  E(RHF) =  -358.196588757     A.U. after   11 cycles
 E2 =    -0.1089006084D+01 EUMP2 =    -0.35928559484123D+03
 Normal termination of Gaussian 09 at Thu Sep  1 13:45:51 2022.

 ---------------------------------------------------------
 #P Geom=AllCheck Guess=TCheck SCRF=Check MP4=FrzG4/GTBas3
 ---------------------------------------------------------

 Structure from the checkpoint file:  "G4.Frag_1089.chk"
 ---------
 Frag_1089
 ---------
 Charge =  0 Multiplicity = 1

 SCF Done:  E(RHF) =  -358.236835590     A.U. after   11 cycles
 E2 =    -0.1321469580D+01 EUMP2 =    -0.35955830516933D+03
 Normal termination of Gaussian 09 at Thu Sep  1 13:58:12 2022.

 -----------------------------------------------------------
 #P Geom=AllCheck Guess=TCheck SCRF=Check MP2=Full/GTLargeXP
 -----------------------------------------------------------

 Structure from the checkpoint file:  "G4.Frag_1089.chk"
 ---------
 Frag_1089
 ---------
 Charge =  0 Multiplicity = 1

 SCF Done:  E(RHF) =  -358.331264686     A.U. after   11 cycles
 E2 =    -0.1721074617D+01 EUMP2 =    -0.36005233930282D+03
 Normal termination of Gaussian 09 at Thu Sep  1 14:02:10 2022.
 SCF Done:  E(RHF) =  -358.358816067     A.U. after    8 cycles
 Normal termination of Gaussian 09 at Thu Sep  1 14:06:04 2022.

                         Standard orientation:
 ---------------------------------------------------------------------
 Center     Atomic      Atomic             Coordinates (Angstroms)
 Number     Number       Type             X           Y           Z
 ---------------------------------------------------------------------
      1          6           0        1.470680    1.241646    0.018172
      2          7           0        0.792356    0.031704   -0.418082
      3          6           0        1.569640   -1.152035   -0.068967
      4          6           0       -0.626915   -0.030139   -0.021045
      5          7           0       -0.920827    0.097928    1.411688
      6          7           0       -1.390628    0.987446   -0.711925
      7          8           0       -1.075363   -1.304444   -0.421366
      8          1           0        0.883996    2.126329   -0.242105
      9          1           0        1.674562    1.272123    1.106690
     10          1           0        2.436553    1.316795   -0.490874
     11          1           0        2.565246   -1.063839   -0.515322
     12          1           0        1.086829   -2.043373   -0.465255
     13          1           0        1.706078   -1.277162    1.021841
     14          1           0       -0.705934   -0.786611    1.858681
     15          1           0       -0.339576    0.811159    1.843267
     16          1           0       -0.899248    1.321819   -1.531261
     17          1           0       -1.652266    1.749753   -0.102461
     18          1           0       -2.000072   -1.167824   -0.652994
 ---------------------------------------------------------------------

 SCF Done:  E(RHF) =  -358.365042387     A.U. after    8 cycles

 The electronic state is 1-A.
 Alpha  occ. eigenvalues --  -20.54983 -15.54931 -15.54448 -15.54327 -11.37021
 Alpha  occ. eigenvalues --  -11.25099 -11.23776  -1.39211  -1.23911  -1.17299
 Alpha  occ. eigenvalues --   -1.13685  -0.95238  -0.90320  -0.78823  -0.72358
 Alpha  occ. eigenvalues --   -0.69293  -0.67941  -0.63828  -0.62129  -0.59333
 Alpha  occ. eigenvalues --   -0.57850  -0.55289  -0.53903  -0.52945  -0.50381
 Alpha  occ. eigenvalues --   -0.47669  -0.43771  -0.41144  -0.36067
 Alpha virt. eigenvalues --    0.03130   0.04157   0.04784   0.04879   0.06238
 Alpha virt. eigenvalues --    0.06911   0.07109   0.07439   0.07959   0.09567
 Alpha virt. eigenvalues --    0.10935   0.11240   0.11922   0.12553   0.13274

 Mulliken charges:
               1
     1  C   -0.489344
     2  N   -0.007808
     3  C   -0.547934
     4  C    0.586765
     5  N   -0.765367
     6  N   -0.792855
     7  O   -0.628233
     8  H    0.168678
     9  H    0.132623
    10  H    0.178011
    11  H    0.167400
    12  H    0.217186
    13  H    0.129772
    14  H    0.316850
    15  H    0.290075
    16  H    0.321765
    17  H    0.318248
    18  H    0.404169
 Sum of Mulliken charges =  -0.00000

 Dipole moment (field-independent basis, Debye):
    X=              1.3951    Y=              1.6919    Z=              0.9072  Tot=              2.3732
 Quadrupole moment (field-independent basis, Debye-Ang):
   XX=            -45.5170   YY=            -42.0913   ZZ=            -44.5179
   XY=              0.2633   XZ=              1.9252   YZ=             -1.2397

 Normal termination of Gaussian 09 at Thu Sep  1 14:19:51 2022.
