 Gaussian 09, Revision E.01,
 Gaussian 09:  ES64L-G09RevE.01 30-Nov-2015

 -----
 #P G4
 -----

 --------
 Frag_707
 --------
 Symbolic Z-matrix:
 Charge =  0 Multiplicity = 1

 SCF Done:  E(RB3LYP) =  -210.018914616     A.U. after   16 cycles
 SCF Done:  E(RB3LYP) =  -210.057995692     A.U. after   13 cycles
 SCF Done:  E(RB3LYP) =  -210.101751400     A.U. after   14 cycles
 SCF Done:  E(RB3LYP) =  -210.107149018     A.U. after   12 cycles
 SCF Done:  E(RB3LYP) =  -210.103800704     A.U. after   13 cycles
 SCF Done:  E(RB3LYP) =  -210.107352860     A.U. after   11 cycles
 SCF Done:  E(RB3LYP) =  -210.107878760     A.U. after   11 cycles
 SCF Done:  E(RB3LYP) =  -210.108303741     A.U. after   12 cycles
 SCF Done:  E(RB3LYP) =  -210.108542736     A.U. after   12 cycles
 SCF Done:  E(RB3LYP) =  -210.108722441     A.U. after   11 cycles
 SCF Done:  E(RB3LYP) =  -210.108815100     A.U. after    8 cycles
 SCF Done:  E(RB3LYP) =  -210.108816306     A.U. after    8 cycles
 SCF Done:  E(RB3LYP) =  -210.108816700     A.U. after    8 cycles
 Optimization completed.
    -- Stationary point found.
 Normal termination of Gaussian 09 at Tue Aug 30 11:27:57 2022.

 ----------------------------------------------------------
 #P Geom=AllCheck Guess=TCheck SCRF=Check B3LYP/GTBas3 Freq
 ----------------------------------------------------------

 Structure from the checkpoint file:  "G4.Frag_707.chk"
 --------
 Frag_707
 --------
 Charge =  0 Multiplicity = 1

 SCF Done:  E(RB3LYP) =  -210.108816700     A.U. after    1 cycles

  Exact polarizability:  72.251  -7.494  50.361   0.232   0.377  23.239
 Approx polarizability: 118.647 -19.146  79.472   0.109  -0.776  34.623

                      1                      2                      3
                      A                      A                      A
 Frequencies --    190.7413               273.4049               314.7198
 Red. masses --      3.4074                 2.3676                 1.2487
 Frc consts  --      0.0730                 0.1043                 0.0729
 IR Inten    --      2.3245                10.1860                21.3212

                      4                      5                      6
                      A                      A                      A
 Frequencies --    425.5233               572.5810               589.3514
 Red. masses --      2.4100                 3.5280                 1.5364
 Frc consts  --      0.2571                 0.6815                 0.3144
 IR Inten    --      7.4405                42.5703                62.1404

                      7                      8                      9
                      A                      A                      A
 Frequencies --    615.9433               659.7061               685.6699
 Red. masses --      1.5183                 1.2331                 1.8235
 Frc consts  --      0.3394                 0.3162                 0.5051
 IR Inten    --     89.1929                40.2421                71.5540

                     10                     11                     12
                      A                      A                      A
 Frequencies --    727.1909               809.1432               826.7805
 Red. masses --      1.3319                 3.3454                 1.5463
 Frc consts  --      0.4150                 1.2905                 0.6228
 IR Inten    --     41.2543                 5.0607                59.3280

                     13                     14                     15
                      A                      A                      A
 Frequencies --    994.0415              1135.5242              1361.7999
 Red. masses --      1.5770                 1.4350                 3.3416
 Frc consts  --      0.9181                 1.0901                 3.6512
 IR Inten    --      5.3092                 2.6406                65.9234

                     16                     17                     18
                      A                      A                      A
 Frequencies --   1442.5963              1644.4718              1680.0920
 Red. masses --      1.1744                 1.1569                 4.6663
 Frc consts  --      1.4400                 1.8433                 7.7604
 IR Inten    --      0.1903                36.1031                97.1942

                     19                     20                     21
                      A                      A                      A
 Frequencies --   2230.5187              3167.4330              3271.1027
 Red. masses --      6.0532                 1.0624                 1.1133
 Frc consts  --     17.7438                 6.2798                 7.0189
 IR Inten    --      3.1848                 4.4056                 3.7885

                     22                     23                     24
                      A                      A                      A
 Frequencies --   3503.0978              3552.9501              3656.9708
 Red. masses --      1.1600                 1.0472                 1.0977
 Frc consts  --      8.3872                 7.7884                 8.6496
 IR Inten    --     71.7969                12.0013                11.8591

 - Thermochemistry -
 -------------------
 Temperature   298.150 Kelvin.  Pressure   1.00000 Atm.
 Atom     1 has atomic number  6 and mass  12.00000

 Molecular mass:    67.04220 amu.
 Principal axes and moments of inertia in atomic units:
                           1         2         3
     Eigenvalues --   178.97272 436.45382 613.51877
           X            0.99994  -0.00990   0.00489
           Y            0.00981   0.99979   0.01772
           Z           -0.00507  -0.01767   0.99983
 This molecule is an asymmetric top.
 Rotational symmetry number  1.
 Rotational temperatures (Kelvin)      0.48395     0.19845     0.14118
 Rotational constants (GHZ):          10.08389     4.13501     2.94162
 Zero-point vibrational energy     205347.1 (Joules/Mol)
                                   49.07913 (Kcal/Mol)
 Warning -- explicit consideration of   7 degrees of freedom as
           vibrations may cause significant error
 Vibrational temperatures:    274.43   393.37   452.81   612.23   823.82
          (Kelvin)            847.94   886.20   949.17   986.52  1046.26
                             1164.18  1189.55  1430.20  1633.76  1959.32
                             2075.57  2366.03  2417.27  3209.21  4557.22
                             4706.38  5040.17  5111.90  5261.56

 Zero-point correction=                           0.078213 (Hartree/Particle)
 Thermal correction to Energy=                    0.083832
 Thermal correction to Enthalpy=                  0.084777
 Thermal correction to Gibbs Free Energy=         0.050168
 Sum of electronic and zero-point Energies=           -210.030604
 Sum of electronic and thermal Energies=              -210.024984
 Sum of electronic and thermal Enthalpies=            -210.024040
 Sum of electronic and thermal Free Energies=         -210.058648

                     E (Thermal)             CV                S
                      KCal/Mol        Cal/Mol-Kelvin    Cal/Mol-Kelvin
 Total                   52.606             20.463             72.839
 Electronic               0.000              0.000              0.000
 Translational            0.889              2.981             38.526
 Rotational               0.889              2.981             25.375
 Vibrational             50.828             14.501              8.938
 Vibration     1          0.634              1.853              2.221
 Vibration     2          0.676              1.722              1.575
 Vibration     3          0.702              1.646              1.337
 Vibration     4          0.787              1.415              0.873
 Vibration     5          0.929              1.091              0.499
 Vibration     6          0.947              1.054              0.468
 Vibration     7          0.976              0.998              0.423

 Optimization completed.
    -- Stationary point found.
 Normal termination of Gaussian 09 at Tue Aug 30 11:28:15 2022.

 -----------------------------------------------------------------
 #P Geom=AllCheck Guess=TCheck SCRF=Check CCSD(T,E4T,FrzG4)/GTBas1
 -----------------------------------------------------------------

 Structure from the checkpoint file:  "G4.Frag_707.chk"
 --------
 Frag_707
 --------
 Charge =  0 Multiplicity = 1

 SCF Done:  E(RHF) =  -208.733529665     A.U. after   14 cycles
 E2 =    -0.6633254649D+00 EUMP2 =    -0.20939685512981D+03
 CCSD(T)
 CCSD(T)= -0.20945957030D+03
 Normal termination of Gaussian 09 at Tue Aug 30 11:28:59 2022.

 ---------------------------------------------------------
 #P Geom=AllCheck Guess=TCheck SCRF=Check MP4=FrzG4/GTBas2
 ---------------------------------------------------------

 Structure from the checkpoint file:  "G4.Frag_707.chk"
 --------
 Frag_707
 --------
 Charge =  0 Multiplicity = 1

 SCF Done:  E(RHF) =  -208.743609190     A.U. after   16 cycles
 E2 =    -0.6704546618D+00 EUMP2 =    -0.20941406385171D+03
 Normal termination of Gaussian 09 at Tue Aug 30 11:29:12 2022.

 ---------------------------------------------------------
 #P Geom=AllCheck Guess=TCheck SCRF=Check MP4=FrzG4/GTBas3
 ---------------------------------------------------------

 Structure from the checkpoint file:  "G4.Frag_707.chk"
 --------
 Frag_707
 --------
 Charge =  0 Multiplicity = 1

 SCF Done:  E(RHF) =  -208.763125469     A.U. after   13 cycles
 E2 =    -0.7946748053D+00 EUMP2 =    -0.20955780027413D+03
 Normal termination of Gaussian 09 at Tue Aug 30 11:30:09 2022.

 -----------------------------------------------------------
 #P Geom=AllCheck Guess=TCheck SCRF=Check MP2=Full/GTLargeXP
 -----------------------------------------------------------

 Structure from the checkpoint file:  "G4.Frag_707.chk"
 --------
 Frag_707
 --------
 Charge =  0 Multiplicity = 1

 SCF Done:  E(RHF) =  -208.814639730     A.U. after   13 cycles
 E2 =    -0.1055497476D+01 EUMP2 =    -0.20987013720549D+03
 Normal termination of Gaussian 09 at Tue Aug 30 11:30:51 2022.
 SCF Done:  E(RHF) =  -208.831012456     A.U. after   10 cycles
 Normal termination of Gaussian 09 at Tue Aug 30 11:31:43 2022.

                         Standard orientation:
 ---------------------------------------------------------------------
 Center     Atomic      Atomic             Coordinates (Angstroms)
 Number     Number       Type             X           Y           Z
 ---------------------------------------------------------------------
      1          6           0       -2.180437   -0.011602    0.006777
      2          6           0       -0.977947   -0.060809   -0.009798
      3          6           0        0.452152   -0.068897   -0.006777
      4          6           0        1.140959   -1.222385    0.017460
      5          7           0        1.038519    1.202797   -0.091282
      6          1           0       -3.242139    0.009904    0.011856
      7          1           0        0.625618   -2.171400    0.000149
      8          1           0        2.225186   -1.231549    0.030547
      9          1           0        0.504231    1.931322    0.360121
     10          1           0        2.009111    1.224297    0.190332
 ---------------------------------------------------------------------

 SCF Done:  E(RHF) =  -208.834164939     A.U. after    8 cycles

 The electronic state is 1-A.
 Alpha  occ. eigenvalues --  -15.56955 -11.29956 -11.24265 -11.23616 -11.21904
 Alpha  occ. eigenvalues --   -1.22763  -1.05572  -0.99691  -0.84198  -0.72865
 Alpha  occ. eigenvalues --   -0.70165  -0.66200  -0.59714  -0.55679  -0.52405
 Alpha  occ. eigenvalues --   -0.41438  -0.40640  -0.31933
 Alpha virt. eigenvalues --    0.03758   0.03958   0.04764   0.05925   0.06329
 Alpha virt. eigenvalues --    0.06933   0.08104   0.09121   0.09399   0.10101
 Alpha virt. eigenvalues --    0.10340   0.11228   0.12649   0.13251   0.13854

 Mulliken charges:
               1
     1  C   -0.485936
     2  C    0.211857
     3  C    0.220871
     4  C   -0.478622
     5  N   -0.707540
     6  H    0.251538
     7  H    0.194426
     8  H    0.170496
     9  H    0.315173
    10  H    0.307736
 Sum of Mulliken charges =  -0.00000

 Dipole moment (field-independent basis, Debye):
    X=              0.2619    Y=              0.7231    Z=              1.0487  Tot=              1.3005
 Quadrupole moment (field-independent basis, Debye-Ang):
   XX=            -22.0907   YY=            -28.8096   ZZ=            -34.4229
   XY=              0.5790   XZ=              1.2339   YZ=              2.2682

 Normal termination of Gaussian 09 at Tue Aug 30 11:36:20 2022.
