 Gaussian 09, Revision E.01,
 Gaussian 09:  ES64L-G09RevE.01 30-Nov-2015

 -----
 #P G4
 -----

 --------
 Frag_667
 --------
 Symbolic Z-matrix:
 Charge =  0 Multiplicity = 1

 SCF Done:  E(RB3LYP) =  -228.626879982     A.U. after   12 cycles
 SCF Done:  E(RB3LYP) =  -228.638254529     A.U. after   12 cycles
 SCF Done:  E(RB3LYP) =  -228.640168170     A.U. after   10 cycles
 SCF Done:  E(RB3LYP) =  -228.641315999     A.U. after   11 cycles
 SCF Done:  E(RB3LYP) =  -228.641565986     A.U. after   10 cycles
 SCF Done:  E(RB3LYP) =  -228.641793137     A.U. after   11 cycles
 SCF Done:  E(RB3LYP) =  -228.641937123     A.U. after   10 cycles
 SCF Done:  E(RB3LYP) =  -228.642125170     A.U. after   11 cycles
 SCF Done:  E(RB3LYP) =  -228.642358530     A.U. after   10 cycles
 SCF Done:  E(RB3LYP) =  -228.641859299     A.U. after   13 cycles
 SCF Done:  E(RB3LYP) =  -228.642561349     A.U. after    8 cycles
 SCF Done:  E(RB3LYP) =  -228.642566531     A.U. after    9 cycles
 SCF Done:  E(RB3LYP) =  -228.642567454     A.U. after    7 cycles
 Optimization completed.
    -- Stationary point found.
 Normal termination of Gaussian 09 at Tue Aug 30 09:52:24 2022.

 ----------------------------------------------------------
 #P Geom=AllCheck Guess=TCheck SCRF=Check B3LYP/GTBas3 Freq
 ----------------------------------------------------------

 Structure from the checkpoint file:  "G4.Frag_667.chk"
 --------
 Frag_667
 --------
 Charge =  0 Multiplicity = 1

 SCF Done:  E(RB3LYP) =  -228.642567454     A.U. after    1 cycles

  Exact polarizability:  67.185  -4.047  50.588   0.327  -0.573  31.263
 Approx polarizability:  94.274 -11.394  73.608   1.293   0.039  46.242

                      1                      2                      3
                      A                      A                      A
 Frequencies --    129.3576               217.0142               280.6233
 Red. masses --      1.1185                 2.1982                 2.0534
 Frc consts  --      0.0110                 0.0610                 0.0953
 IR Inten    --      0.5431                 2.5291                 0.3960

                      4                      5                      6
                      A                      A                      A
 Frequencies --    362.2733               380.0697               460.8132
 Red. masses --      1.1388                 1.1963                 2.8275
 Frc consts  --      0.0881                 0.1018                 0.3538
 IR Inten    --     15.6517                40.4819                 0.2664

                      7                      8                      9
                      A                      A                      A
 Frequencies --    552.2421               578.5913               722.5932
 Red. masses --      3.0214                 1.9349                 1.2338
 Frc consts  --      0.5429                 0.3816                 0.3796
 IR Inten    --      6.2486                82.5777               130.8957

                     10                     11                     12
                      A                      A                      A
 Frequencies --    769.8895               812.8983               855.6704
 Red. masses --      1.6407                 1.5647                 2.2541
 Frc consts  --      0.5730                 0.6092                 0.9724
 IR Inten    --    162.6739               175.0589                16.7090

                     13                     14                     15
                      A                      A                      A
 Frequencies --   1017.6780              1053.1813              1096.0413
 Red. masses --      1.7313                 1.4089                 2.1580
 Frc consts  --      1.0564                 0.9207                 1.5274
 IR Inten    --     19.1587                 1.3585                 2.2262

                     16                     17                     18
                      A                      A                      A
 Frequencies --   1144.9132              1193.4401              1317.6910
 Red. masses --      1.3752                 1.3445                 1.9378
 Frc consts  --      1.0621                 1.1283                 1.9824
 IR Inten    --      8.2435                 2.3323                39.3539

                     19                     20                     21
                      A                      A                      A
 Frequencies --   1404.1464              1439.8633              1484.4242
 Red. masses --      1.4345                 1.7289                 1.0473
 Frc consts  --      1.6664                 2.1118                 1.3596
 IR Inten    --     21.3917                14.5787                 3.0552

                     22                     23                     24
                      A                      A                      A
 Frequencies --   1502.8940              1631.5875              1632.8411
 Red. masses --      1.0562                 1.1583                 1.1507
 Frc consts  --      1.4055                 1.8167                 1.8076
 IR Inten    --      2.1352                 4.4614                92.6515

                     25                     26                     27
                      A                      A                      A
 Frequencies --   1758.0052              2996.8368              3043.1986
 Red. masses --      5.2928                 1.0427                 1.0921
 Frc consts  --      9.6377                 5.5172                 5.9590
 IR Inten    --    146.6803                61.5511                35.7610

                     28                     29                     30
                      A                      A                      A
 Frequencies --   3070.2256              3158.7817              3513.9583
 Red. masses --      1.0989                 1.0879                 1.0502
 Frc consts  --      6.1033                 6.3958                 7.6401
 IR Inten    --     32.7602                23.0484                 2.4643

                     31                     32                     33
                      A                      A                      A
 Frequencies --   3529.0025              3625.5287              3644.2114
 Red. masses --      1.0501                 1.0925                 1.0926
 Frc consts  --      7.7054                 8.4609                 8.5490
 IR Inten    --      2.3021                 5.7373                 6.2444

 - Thermochemistry -
 -------------------
 Temperature   298.150 Kelvin.  Pressure   1.00000 Atm.
 Atom     1 has atomic number  6 and mass  12.00000

 Molecular mass:    72.06875 amu.
 Principal axes and moments of inertia in atomic units:
                           1         2         3
     Eigenvalues --   194.03628 493.52198 668.91392
           X            0.99991   0.01231  -0.00536
           Y           -0.01244   0.99962  -0.02463
           Z            0.00506   0.02469   0.99968
 This molecule is an asymmetric top.
 Rotational symmetry number  1.
 Rotational temperatures (Kelvin)      0.44638     0.17550     0.12948
 Rotational constants (GHZ):           9.30105     3.65686     2.69802
 Zero-point vibrational energy     301342.2 (Joules/Mol)
                                   72.02252 (Kcal/Mol)
 Warning -- explicit consideration of   8 degrees of freedom as
           vibrations may cause significant error
 Vibrational temperatures:    186.12   312.23   403.75   521.23   546.83
          (Kelvin)            663.01   794.55   832.46  1039.65  1107.70
                             1169.58  1231.12  1464.21  1515.29  1576.96
                             1647.27  1717.09  1895.86  2020.25  2071.64
                             2135.75  2162.33  2347.49  2349.29  2529.37
                             4311.77  4378.48  4417.36  4544.78  5055.80
                             5077.44  5216.32  5243.20

 Zero-point correction=                           0.114775 (Hartree/Particle)
 Thermal correction to Energy=                    0.121059
 Thermal correction to Enthalpy=                  0.122003
 Thermal correction to Gibbs Free Energy=         0.085839
 Sum of electronic and zero-point Energies=           -228.527792
 Sum of electronic and thermal Energies=              -228.521509
 Sum of electronic and thermal Enthalpies=            -228.520565
 Sum of electronic and thermal Free Energies=         -228.556729

                     E (Thermal)             CV                S
                      KCal/Mol        Cal/Mol-Kelvin    Cal/Mol-Kelvin
 Total                   75.965             22.734             76.114
 Electronic               0.000              0.000              0.000
 Translational            0.889              2.981             38.742
 Rotational               0.889              2.981             25.663
 Vibrational             74.188             16.772             11.709
 Vibration     1          0.612              1.924              2.956
 Vibration     2          0.646              1.815              1.984
 Vibration     3          0.680              1.709              1.530
 Vibration     4          0.736              1.550              1.112
 Vibration     5          0.750              1.513              1.039
 Vibration     6          0.819              1.337              0.764
 Vibration     7          0.908              1.135              0.540
 Vibration     8          0.935              1.078              0.488

 Optimization completed.
    -- Stationary point found.
 Normal termination of Gaussian 09 at Tue Aug 30 09:52:46 2022.

 -----------------------------------------------------------------
 #P Geom=AllCheck Guess=TCheck SCRF=Check CCSD(T,E4T,FrzG4)/GTBas1
 -----------------------------------------------------------------

 Structure from the checkpoint file:  "G4.Frag_667.chk"
 --------
 Frag_667
 --------
 Charge =  0 Multiplicity = 1

 SCF Done:  E(RHF) =  -227.130964849     A.U. after   12 cycles
 E2 =    -0.7129869357D+00 EUMP2 =    -0.22784395178500D+03
 CCSD(T)
 CCSD(T)= -0.22791472919D+03
 4SDTQ=-227.9135865\MP4SDQ=-227.8907117\CCSD=-227.8916119\CCSD(T)=-227.
 Normal termination of Gaussian 09 at Tue Aug 30 09:53:43 2022.

 ---------------------------------------------------------
 #P Geom=AllCheck Guess=TCheck SCRF=Check MP4=FrzG4/GTBas2
 ---------------------------------------------------------

 Structure from the checkpoint file:  "G4.Frag_667.chk"
 --------
 Frag_667
 --------
 Charge =  0 Multiplicity = 1

 SCF Done:  E(RHF) =  -227.139661289     A.U. after   12 cycles
 E2 =    -0.7239352269D+00 EUMP2 =    -0.22786359651542D+03
 Normal termination of Gaussian 09 at Tue Aug 30 09:54:01 2022.

 ---------------------------------------------------------
 #P Geom=AllCheck Guess=TCheck SCRF=Check MP4=FrzG4/GTBas3
 ---------------------------------------------------------

 Structure from the checkpoint file:  "G4.Frag_667.chk"
 --------
 Frag_667
 --------
 Charge =  0 Multiplicity = 1

 SCF Done:  E(RHF) =  -227.166836048     A.U. after   11 cycles
 E2 =    -0.8745794727D+00 EUMP2 =    -0.22804141552100D+03
 Normal termination of Gaussian 09 at Tue Aug 30 09:55:32 2022.

 -----------------------------------------------------------
 #P Geom=AllCheck Guess=TCheck SCRF=Check MP2=Full/GTLargeXP
 -----------------------------------------------------------

 Structure from the checkpoint file:  "G4.Frag_667.chk"
 --------
 Frag_667
 --------
 Charge =  0 Multiplicity = 1

 SCF Done:  E(RHF) =  -227.224604134     A.U. after   12 cycles
 E2 =    -0.1149248583D+01 EUMP2 =    -0.22837385271701D+03
 Normal termination of Gaussian 09 at Tue Aug 30 09:56:32 2022.
 SCF Done:  E(RHF) =  -227.242720179     A.U. after    9 cycles
 Normal termination of Gaussian 09 at Tue Aug 30 09:57:44 2022.

                         Standard orientation:
 ---------------------------------------------------------------------
 Center     Atomic      Atomic             Coordinates (Angstroms)
 Number     Number       Type             X           Y           Z
 ---------------------------------------------------------------------
      1          6           0        2.058868   -0.041008   -0.028051
      2          6           0        0.704241   -0.685826    0.043963
      3          6           0       -0.476296   -0.045057    0.013957
      4          7           0       -1.718359   -0.696297   -0.108861
      5          7           0       -0.654129    1.344124    0.091402
      6          1           0        2.018057    0.963516   -0.467243
      7          1           0        2.543840    0.058100    0.953688
      8          1           0        2.741816   -0.627215   -0.654589
      9          1           0        0.680150   -1.767984    0.135245
     10          1           0       -2.383092   -0.380006    0.589069
     11          1           0       -1.629471   -1.703048   -0.075821
     12          1           0       -1.296398    1.689435   -0.612306
     13          1           0        0.211630    1.863765    0.074956
 ---------------------------------------------------------------------

 SCF Done:  E(RHF) =  -227.246557842     A.U. after    8 cycles

 The electronic state is 1-A.
 Alpha  occ. eigenvalues --  -15.55829 -15.55625 -11.29346 -11.21462 -11.19285
 Alpha  occ. eigenvalues --   -1.25153  -1.14648  -1.02221  -0.89684  -0.76454
 Alpha  occ. eigenvalues --   -0.69614  -0.67402  -0.60437  -0.59452  -0.56224
 Alpha  occ. eigenvalues --   -0.53775  -0.51013  -0.48956  -0.42073  -0.29531
 Alpha virt. eigenvalues --    0.03958   0.04427   0.04777   0.06156   0.06564
 Alpha virt. eigenvalues --    0.07539   0.08070   0.09110   0.09929   0.10484
 Alpha virt. eigenvalues --    0.11314   0.12233   0.13342   0.13831   0.14018

 Mulliken charges:
               1
     1  C   -0.496477
     2  C   -0.280397
     3  C    0.339546
     4  N   -0.716996
     5  N   -0.734142
     6  H    0.142588
     7  H    0.170050
     8  H    0.166928
     9  H    0.157384
    10  H    0.316213
    11  H    0.307197
    12  H    0.319302
    13  H    0.308804
 Sum of Mulliken charges =  -0.00000

 Dipole moment (field-independent basis, Debye):
    X=             -0.2921    Y=              0.2066    Z=              0.0292  Tot=              0.3590
 Quadrupole moment (field-independent basis, Debye-Ang):
   XX=            -30.6197   YY=            -27.8883   ZZ=            -35.0427
   XY=              1.5408   XZ=             -1.3620   YZ=             -2.5859

 Normal termination of Gaussian 09 at Tue Aug 30 10:02:14 2022.
