 Gaussian 09, Revision E.01,
 Gaussian 09:  ES64L-G09RevE.01 30-Nov-2015

 -----
 #P G4
 -----

 --------
 Frag_901
 --------
 Symbolic Z-matrix:
 Charge =  0 Multiplicity = 1

 SCF Done:  E(RB3LYP) =  -285.212842204     A.U. after   12 cycles
 SCF Done:  E(RB3LYP) =  -285.218119943     A.U. after   10 cycles
 SCF Done:  E(RB3LYP) =  -285.218332475     A.U. after   10 cycles
 SCF Done:  E(RB3LYP) =  -285.218396809     A.U. after    9 cycles
 SCF Done:  E(RB3LYP) =  -285.218409465     A.U. after    8 cycles
 SCF Done:  E(RB3LYP) =  -285.218410891     A.U. after    7 cycles
 SCF Done:  E(RB3LYP) =  -285.218411343     A.U. after    7 cycles
 Optimization completed.
    -- Stationary point found.
 Normal termination of Gaussian 09 at Fri Aug 26 08:13:15 2022.

 ----------------------------------------------------------
 #P Geom=AllCheck Guess=TCheck SCRF=Check B3LYP/GTBas3 Freq
 ----------------------------------------------------------

 Structure from the checkpoint file:  "G4.Frag_901.chk"
 --------
 Frag_901
 --------
 Charge =  0 Multiplicity = 1

 SCF Done:  E(RB3LYP) =  -285.218411343     A.U. after    1 cycles

  Exact polarizability:  62.583   1.037  53.967   0.052  -0.059  52.845
 Approx polarizability:  80.325   1.446  77.259  -0.013   0.018  76.761

                      1                      2                      3
                      A                      A                      A
 Frequencies --    123.0654               220.6441               261.7109
 Red. masses --      2.1228                 1.2577                 2.1660
 Frc consts  --      0.0189                 0.0361                 0.0874
 IR Inten    --      0.5916                 4.7098                 3.3549

                      4                      5                      6
                      A                      A                      A
 Frequencies --    271.3438               285.2079               329.6538
 Red. masses --      1.1035                 1.1297                 1.0629
 Frc consts  --      0.0479                 0.0541                 0.0681
 IR Inten    --     16.5339                18.2201                63.5564

                      7                      8                      9
                      A                      A                      A
 Frequencies --    373.6578               401.5472               473.5330
 Red. masses --      2.1779                 2.5941                 2.4263
 Frc consts  --      0.1792                 0.2464                 0.3206
 IR Inten    --     11.9271                18.7735                16.2903

                     10                     11                     12
                      A                      A                      A
 Frequencies --    480.4664               549.3778               755.4130
 Red. masses --      2.8756                 2.5948                 3.3403
 Frc consts  --      0.3911                 0.4614                 1.1231
 IR Inten    --     18.9880                11.0026                 1.7760

                     13                     14                     15
                      A                      A                      A
 Frequencies --    788.0990               865.2504               894.8628
 Red. masses --      1.2296                 1.7238                 1.6292
 Frc consts  --      0.4499                 0.7604                 0.7687
 IR Inten    --      2.6017                 4.2615               181.9464

                     16                     17                     18
                      A                      A                      A
 Frequencies --    900.8654               961.4853              1010.0461
 Red. masses --      1.5962                 1.5203                 1.5447
 Frc consts  --      0.7633                 0.8281                 0.9285
 IR Inten    --    183.3637                20.8119                35.2842

                     19                     20                     21
                      A                      A                      A
 Frequencies --   1022.0768              1049.3835              1106.9228
 Red. masses --      1.5835                 2.2653                 1.7477
 Frc consts  --      0.9746                 1.4698                 1.2617
 IR Inten    --     24.2938                 8.8861                22.3073

                     22                     23                     24
                      A                      A                      A
 Frequencies --   1124.9616              1254.2810              1275.8887
 Red. masses --      1.4714                 1.4698                 1.7891
 Frc consts  --      1.0972                 1.3623                 1.7160
 IR Inten    --     18.7523                13.2910                36.5189

                     25                     26                     27
                      A                      A                      A
 Frequencies --   1335.4088              1360.5250              1401.7561
 Red. masses --      1.4551                 1.4603                 1.4864
 Frc consts  --      1.5288                 1.5926                 1.7208
 IR Inten    --     25.1094                10.4602                 1.2960

                     28                     29                     30
                      A                      A                      A
 Frequencies --   1411.3523              1477.4886              1499.3212
 Red. masses --      1.7127                 1.0801                 1.0408
 Frc consts  --      2.0101                 1.3892                 1.3785
 IR Inten    --     22.1810                 1.2584                 2.8773

                     31                     32                     33
                      A                      A                      A
 Frequencies --   1516.6514              1642.6004              1649.6482
 Red. masses --      1.0560                 1.1025                 1.1052
 Frc consts  --      1.4311                 1.7526                 1.7721
 IR Inten    --      6.1408                35.6082                24.4770

                     34                     35                     36
                      A                      A                      A
 Frequencies --   1652.3948              3039.4686              3040.6412
 Red. masses --      1.1056                 1.0357                 1.0599
 Frc consts  --      1.7785                 5.6372                 5.7735
 IR Inten    --     26.4664                27.4773                21.3123

                     37                     38                     39
                      A                      A                      A
 Frequencies --   3077.3047              3103.6173              3121.6172
 Red. masses --      1.1021                 1.1009                 1.1020
 Frc consts  --      6.1492                 6.2477                 6.3267
 IR Inten    --     12.8635                38.2495                25.6056

                     40                     41                     42
                      A                      A                      A
 Frequencies --   3460.0270              3466.6836              3470.2923
 Red. masses --      1.0490                 1.0487                 1.0492
 Frc consts  --      7.3989                 7.4258                 7.4445
 IR Inten    --      2.8369                 1.4993                 1.4924

                     43                     44                     45
                      A                      A                      A
 Frequencies --   3543.2228              3549.2254              3552.0497
 Red. masses --      1.0915                 1.0919                 1.0913
 Frc consts  --      8.0734                 8.1042                 8.1123
 IR Inten    --      0.8528                 0.7539                 0.5615

 - Thermochemistry -
 -------------------
 Temperature   298.150 Kelvin.  Pressure   1.00000 Atm.
 Atom     1 has atomic number  6 and mass  12.00000

 Molecular mass:    89.09530 amu.
 Principal axes and moments of inertia in atomic units:
                           1         2         3
     Eigenvalues --   384.76755 688.67636 694.02768
           X            0.99988   0.01552  -0.00085
           Y           -0.01554   0.99909  -0.03982
           Z            0.00023   0.03983   0.99921
 This molecule is an asymmetric top.
 Rotational symmetry number  1.
 Rotational temperatures (Kelvin)      0.22511     0.12577     0.12480
 Rotational constants (GHZ):           4.69047     2.62059     2.60039
 Zero-point vibrational energy     407633.7 (Joules/Mol)
                                   97.42680 (Kcal/Mol)
 Warning -- explicit consideration of  11 degrees of freedom as
           vibrations may cause significant error
 Vibrational temperatures:    177.06   317.46   376.54   390.40   410.35
          (Kelvin)            474.30   537.61   577.74   681.31   691.28
                              790.43  1086.87  1133.90  1244.90  1287.51
                             1296.14  1383.36  1453.23  1470.54  1509.83
                             1592.61  1618.57  1804.63  1835.72  1921.35
                             1957.49  2016.81  2030.62  2125.77  2157.19
                             2182.12  2363.33  2373.47  2377.42  4373.11
                             4374.80  4427.55  4465.41  4491.31  4978.20
                             4987.78  4992.97  5097.90  5106.54  5110.60

 Zero-point correction=                           0.155259 (Hartree/Particle)
 Thermal correction to Energy=                    0.162996
 Thermal correction to Enthalpy=                  0.163940
 Thermal correction to Gibbs Free Energy=         0.124657
 Sum of electronic and zero-point Energies=           -285.063152
 Sum of electronic and thermal Energies=              -285.055415
 Sum of electronic and thermal Enthalpies=            -285.054471
 Sum of electronic and thermal Free Energies=         -285.093754

                     E (Thermal)             CV                S
                      KCal/Mol        Cal/Mol-Kelvin    Cal/Mol-Kelvin
 Total                  102.282             29.329             82.678
 Electronic               0.000              0.000              0.000
 Translational            0.889              2.981             39.374
 Rotational               0.889              2.981             26.711
 Vibrational            100.504             23.368             16.593
 Vibration     1          0.610              1.930              3.052
 Vibration     2          0.647              1.810              1.954
 Vibration     3          0.669              1.743              1.650
 Vibration     4          0.675              1.726              1.588
 Vibration     5          0.683              1.701              1.502
 Vibration     6          0.712              1.616              1.262
 Vibration     7          0.745              1.526              1.065
 Vibration     8          0.767              1.467              0.957
 Vibration     9          0.830              1.309              0.728
 Vibration    10          0.837              1.293              0.709
 Vibration    11          0.905              1.141              0.545

 Normal termination of Gaussian 09 at Fri Aug 26 08:13:57 2022.

 -----------------------------------------------------------------
 #P Geom=AllCheck Guess=TCheck SCRF=Check CCSD(T,E4T,FrzG4)/GTBas1
 -----------------------------------------------------------------

 Structure from the checkpoint file:  "G4.Frag_901.chk"
 --------
 Frag_901
 --------
 Charge =  0 Multiplicity = 1

 SCF Done:  E(RHF) =  -283.338492566     A.U. after   11 cycles
 E2 =    -0.8917303687D+00 EUMP2 =    -0.28423022293468D+03
 CCSD(T)
 CCSD(T)= -0.28431777235D+03
 4794\CCSD=-284.2917629\CCSD(T)=-284.3177724\RMSD=8.059e-09\PG=C01 [X(C
 Normal termination of Gaussian 09 at Fri Aug 26 08:16:27 2022.

 ---------------------------------------------------------
 #P Geom=AllCheck Guess=TCheck SCRF=Check MP4=FrzG4/GTBas2
 ---------------------------------------------------------

 Structure from the checkpoint file:  "G4.Frag_901.chk"
 --------
 Frag_901
 --------
 Charge =  0 Multiplicity = 1

 SCF Done:  E(RHF) =  -283.349480795     A.U. after   11 cycles
 E2 =    -0.9070834015D+00 EUMP2 =    -0.28425656419671D+03
 Normal termination of Gaussian 09 at Fri Aug 26 08:17:22 2022.

 ---------------------------------------------------------
 #P Geom=AllCheck Guess=TCheck SCRF=Check MP4=FrzG4/GTBas3
 ---------------------------------------------------------

 Structure from the checkpoint file:  "G4.Frag_901.chk"
 --------
 Frag_901
 --------
 Charge =  0 Multiplicity = 1

 SCF Done:  E(RHF) =  -283.383794823     A.U. after   10 cycles
 E2 =    -0.1102304256D+01 EUMP2 =    -0.28448609907902D+03
 Normal termination of Gaussian 09 at Fri Aug 26 08:22:24 2022.

 -----------------------------------------------------------
 #P Geom=AllCheck Guess=TCheck SCRF=Check MP2=Full/GTLargeXP
 -----------------------------------------------------------

 Structure from the checkpoint file:  "G4.Frag_901.chk"
 --------
 Frag_901
 --------
 Charge =  0 Multiplicity = 1

 SCF Done:  E(RHF) =  -283.455869568     A.U. after   11 cycles
 E2 =    -0.1438552627D+01 EUMP2 =    -0.28489442219474D+03
 Normal termination of Gaussian 09 at Fri Aug 26 08:24:51 2022.
 SCF Done:  E(RHF) =  -283.477821861     A.U. after    8 cycles
 Normal termination of Gaussian 09 at Fri Aug 26 08:27:22 2022.

                         Standard orientation:
 ---------------------------------------------------------------------
 Center     Atomic      Atomic             Coordinates (Angstroms)
 Number     Number       Type             X           Y           Z
 ---------------------------------------------------------------------
      1          6           0        2.148172   -0.042302   -0.002615
      2          6           0        0.882826    0.816388   -0.019928
      3          6           0       -0.437179    0.018699   -0.001067
      4          7           0       -1.533860    0.985685   -0.125484
      5          7           0       -0.531628   -0.700846    1.274713
      6          7           0       -0.450374   -0.922227   -1.127129
      7          1           0        2.132896   -0.736418    0.842132
      8          1           0        2.249186   -0.622098   -0.925780
      9          1           0        3.039921    0.585839    0.084994
     10          1           0        0.874259    1.452344   -0.911959
     11          1           0        0.868084    1.487741    0.845672
     12          1           0       -1.511769    1.395592   -1.056846
     13          1           0       -2.423985    0.497412   -0.049392
     14          1           0       -0.666749   -0.028301    2.026311
     15          1           0       -1.357199   -1.295315    1.267514
     16          1           0       -1.367754   -1.358193   -1.187672
     17          1           0        0.211233   -1.673599   -0.948016
 ---------------------------------------------------------------------

 SCF Done:  E(RHF) =  -283.482729039     A.U. after    7 cycles

 The electronic state is 1-A.
 Alpha  occ. eigenvalues --  -15.54075 -15.54065 -15.54007 -11.31390 -11.21268
 Alpha  occ. eigenvalues --  -11.20405  -1.26018  -1.12634  -1.12610  -1.02157
 Alpha  occ. eigenvalues --   -0.87697  -0.76742  -0.67586  -0.67155  -0.65999
 Alpha  occ. eigenvalues --   -0.61320  -0.60333  -0.56446  -0.55556  -0.49364
 Alpha  occ. eigenvalues --   -0.47925  -0.47483  -0.41725  -0.41529  -0.40224
 Alpha virt. eigenvalues --    0.03444   0.04265   0.04778   0.05378   0.06415
 Alpha virt. eigenvalues --    0.07203   0.07457   0.08314   0.08612   0.10476
 Alpha virt. eigenvalues --    0.11295   0.11424   0.12381   0.12991   0.13201

 Mulliken charges:
               1
     1  C   -0.573510
     2  C   -0.232160
     3  C    0.435056
     4  N   -0.730032
     5  N   -0.731607
     6  N   -0.731430
     7  H    0.192504
     8  H    0.167334
     9  H    0.166857
    10  H    0.144575
    11  H    0.164941
    12  H    0.301979
    13  H    0.271321
    14  H    0.304590
    15  H    0.271950
    16  H    0.271100
    17  H    0.306532
 Sum of Mulliken charges =  -0.00000

 Dipole moment (field-independent basis, Debye):
    X=             -1.4837    Y=             -0.8481    Z=              0.0415  Tot=              1.7095
 Quadrupole moment (field-independent basis, Debye-Ang):
   XX=            -35.4174   YY=            -39.6647   ZZ=            -41.2438
   XY=              3.6195   XZ=              0.0907   YZ=             -0.1471

 Normal termination of Gaussian 09 at Fri Aug 26 08:35:32 2022.
