 Gaussian 09, Revision E.01,
 Gaussian 09:  ES64L-G09RevE.01 30-Nov-2015

 -----
 #P G4
 -----

 ---------
 Frag_1031
 ---------
 Symbolic Z-matrix:
 Charge =  0 Multiplicity = 1

 SCF Done:  E(RB3LYP) =  -359.208206372     A.U. after   14 cycles
 SCF Done:  E(RB3LYP) =  -359.230484247     A.U. after   13 cycles
 SCF Done:  E(RB3LYP) =  -359.234266689     A.U. after   12 cycles
 SCF Done:  E(RB3LYP) =  -359.235319130     A.U. after   12 cycles
 SCF Done:  E(RB3LYP) =  -359.236067218     A.U. after   12 cycles
 SCF Done:  E(RB3LYP) =  -359.236365561     A.U. after   11 cycles
 SCF Done:  E(RB3LYP) =  -359.236468652     A.U. after   11 cycles
 SCF Done:  E(RB3LYP) =  -359.236517531     A.U. after   11 cycles
 SCF Done:  E(RB3LYP) =  -359.236554915     A.U. after    9 cycles
 SCF Done:  E(RB3LYP) =  -359.236573030     A.U. after   10 cycles
 SCF Done:  E(RB3LYP) =  -359.236576835     A.U. after    9 cycles
 SCF Done:  E(RB3LYP) =  -359.236577338     A.U. after    8 cycles
 SCF Done:  E(RB3LYP) =  -359.236577335     A.U. after    7 cycles
 Optimization completed.
    -- Stationary point found.
 Normal termination of Gaussian 09 at Fri Aug 26 12:43:08 2022.

 ----------------------------------------------------------
 #P Geom=AllCheck Guess=TCheck SCRF=Check B3LYP/GTBas3 Freq
 ----------------------------------------------------------

 Structure from the checkpoint file:  "G4.Frag_1031.chk"
 ---------
 Frag_1031
 ---------
 Charge =  0 Multiplicity = 1

 SCF Done:  E(RB3LYP) =  -359.236577335     A.U. after    1 cycles

  Exact polarizability:  64.281   4.997  59.773   1.213  -0.589  48.654
 Approx polarizability:  88.149   8.848  94.686   2.396   0.143  68.268

                      1                      2                      3
                      A                      A                      A
 Frequencies --     81.7692               107.4497               236.5027
 Red. masses --      5.3294                 1.0722                 1.4841
 Frc consts  --      0.0210                 0.0073                 0.0489
 IR Inten    --      2.0266                49.8319                 1.1065

                      4                      5                      6
                      A                      A                      A
 Frequencies --    246.3135               312.5681               339.0319
 Red. masses --      1.6433                 3.1296                 1.3638
 Frc consts  --      0.0587                 0.1801                 0.0924
 IR Inten    --      0.2874                 5.5087                22.8912

                      7                      8                      9
                      A                      A                      A
 Frequencies --    381.1678               395.0229               443.9997
 Red. masses --      2.8298                 2.3337                 2.6431
 Frc consts  --      0.2422                 0.2146                 0.3070
 IR Inten    --      1.1357                 3.7804                 2.6353

                     10                     11                     12
                      A                      A                      A
 Frequencies --    542.8875               564.5574               718.2086
 Red. masses --      4.2067                 2.8398                 3.8330
 Frc consts  --      0.7305                 0.5333                 1.1649
 IR Inten    --      8.9870                28.8767                 7.2013

                     13                     14                     15
                      A                      A                      A
 Frequencies --    726.7742               739.2752               764.7973
 Red. masses --      3.4896                 1.3247                 1.1421
 Frc consts  --      1.0860                 0.4266                 0.3936
 IR Inten    --     13.1300               198.2718                91.5110

                     16                     17                     18
                      A                      A                      A
 Frequencies --    847.5160               909.3531               931.2338
 Red. masses --      1.9365                 1.4895                 1.5627
 Frc consts  --      0.8195                 0.7257                 0.7984
 IR Inten    --     80.9969                32.7236                39.6176

                     19                     20                     21
                      A                      A                      A
 Frequencies --    973.1203              1025.4977              1104.9551
 Red. masses --      1.6051                 1.4162                 2.6600
 Frc consts  --      0.8956                 0.8775                 1.9135
 IR Inten    --      1.7673                 9.7372                33.8135

                     22                     23                     24
                      A                      A                      A
 Frequencies --   1135.0276              1173.4902              1258.1762
 Red. masses --      1.5829                 2.4716                 1.5883
 Frc consts  --      1.2015                 2.0053                 1.4814
 IR Inten    --     13.5222                65.1749                27.8943

                     25                     26                     27
                      A                      A                      A
 Frequencies --   1288.1488              1371.9051              1396.9905
 Red. masses --      1.8604                 1.6459                 1.2661
 Frc consts  --      1.8188                 1.8252                 1.4559
 IR Inten    --     77.4312                60.0734                16.8588

                     28                     29                     30
                      A                      A                      A
 Frequencies --   1428.1928              1482.5645              1494.7527
 Red. masses --      2.0635                 1.0547                 1.0958
 Frc consts  --      2.4799                 1.3658                 1.4425
 IR Inten    --    231.0896                 0.9091                12.2712

                     31                     32                     33
                      A                      A                      A
 Frequencies --   1621.1074              1649.1452              1781.2703
 Red. masses --      1.1117                 1.1014                 6.6126
 Frc consts  --      1.7214                 1.7649                12.3618
 IR Inten    --     48.4800                21.9973               173.0776

                     34                     35                     36
                      A                      A                      A
 Frequencies --   3038.1472              3110.2136              3151.9939
 Red. masses --      1.0389                 1.0984                 1.1011
 Frc consts  --      5.6500                 6.2600                 6.4453
 IR Inten    --     18.9442                21.6164                 9.1837

                     37                     38                     39
                      A                      A                      A
 Frequencies --   3470.7756              3489.1071              3519.7177
 Red. masses --      1.0737                 1.0489                 1.0472
 Frc consts  --      7.6204                 7.5234                 7.6438
 IR Inten    --      1.6416                 3.2313                 3.7807

                     40                     41                     42
                      A                      A                      A
 Frequencies --   3547.3410              3577.4357              3621.3175
 Red. masses --      1.0641                 1.0935                 1.0961
 Frc consts  --      7.8891                 8.2452                 8.4689
 IR Inten    --    198.2034                 2.0989                10.1129

 - Thermochemistry -
 -------------------
 Temperature   298.150 Kelvin.  Pressure   1.00000 Atm.
 Atom     1 has atomic number  6 and mass  12.00000

 Molecular mass:   103.07456 amu.
 Principal axes and moments of inertia in atomic units:
                           1         2         3
     Eigenvalues --   534.85189 731.98731 893.20877
           X            0.99919   0.03939  -0.00812
           Y           -0.03965   0.99862  -0.03433
           Z            0.00676   0.03463   0.99938
 This molecule is an asymmetric top.
 Rotational symmetry number  1.
 Warning -- assumption of classical behavior for rotation
           may cause significant error
 Rotational temperatures (Kelvin)      0.16194     0.11833     0.09697
 Rotational constants (GHZ):           3.37428     2.46554     2.02051
 Zero-point vibrational energy     358872.6 (Joules/Mol)
                                   85.77262 (Kcal/Mol)
 Warning -- explicit consideration of  11 degrees of freedom as
           vibrations may cause significant error
 Vibrational temperatures:    117.65   154.60   340.27   354.39   449.72
          (Kelvin)            487.79   548.41   568.35   638.82   781.09
                              812.27  1033.34  1045.66  1063.65  1100.37
                             1219.39  1308.35  1339.84  1400.10  1475.46
                             1589.78  1633.05  1688.39  1810.23  1853.36
                             1973.86  2009.96  2054.85  2133.08  2150.61
                             2332.41  2372.75  2562.85  4371.21  4474.90
                             4535.01  4993.67  5020.04  5064.08  5103.83
                             5147.13  5210.26

 Zero-point correction=                           0.136687 (Hartree/Particle)
 Thermal correction to Energy=                    0.144837
 Thermal correction to Enthalpy=                  0.145781
 Thermal correction to Gibbs Free Energy=         0.104742
 Sum of electronic and zero-point Energies=           -359.099890
 Sum of electronic and thermal Energies=              -359.091740
 Sum of electronic and thermal Enthalpies=            -359.090796
 Sum of electronic and thermal Free Energies=         -359.131835

                     E (Thermal)             CV                S
                      KCal/Mol        Cal/Mol-Kelvin    Cal/Mol-Kelvin
 Total                   90.887             30.285             86.374
 Electronic               0.000              0.000              0.000
 Translational            0.889              2.981             39.808
 Rotational               0.889              2.981             27.350
 Vibrational             89.109             24.323             19.216
 Vibration     1          0.600              1.962              3.848
 Vibration     2          0.606              1.943              3.314
 Vibration     3          0.655              1.785              1.829
 Vibration     4          0.661              1.769              1.757
 Vibration     5          0.701              1.650              1.349
 Vibration     6          0.719              1.598              1.217
 Vibration     7          0.751              1.510              1.035
 Vibration     8          0.762              1.481              0.981
 Vibration     9          0.804              1.374              0.814
 Vibration    10          0.898              1.155              0.559
 Vibration    11          0.920              1.108              0.515

 Normal termination of Gaussian 09 at Fri Aug 26 12:43:56 2022.

 -----------------------------------------------------------------
 #P Geom=AllCheck Guess=TCheck SCRF=Check CCSD(T,E4T,FrzG4)/GTBas1
 -----------------------------------------------------------------

 Structure from the checkpoint file:  "G4.Frag_1031.chk"
 ---------
 Frag_1031
 ---------
 Charge =  0 Multiplicity = 1

 SCF Done:  E(RHF) =  -357.029860146     A.U. after   13 cycles
 E2 =    -0.1061906041D+01 EUMP2 =    -0.35809176618656D+03
 CCSD(T)
 CCSD(T)= -0.35817707516D+03
 SDTQ=-358.1781785\MP4SDQ=-358.1431117\CCSD=-358.1431176\CCSD(T)=-358.1
 Normal termination of Gaussian 09 at Fri Aug 26 12:48:05 2022.

 ---------------------------------------------------------
 #P Geom=AllCheck Guess=TCheck SCRF=Check MP4=FrzG4/GTBas2
 ---------------------------------------------------------

 Structure from the checkpoint file:  "G4.Frag_1031.chk"
 ---------
 Frag_1031
 ---------
 Charge =  0 Multiplicity = 1

 SCF Done:  E(RHF) =  -357.042722073     A.U. after   13 cycles
 E2 =    -0.1080421162D+01 EUMP2 =    -0.35812314323416D+03
 Normal termination of Gaussian 09 at Fri Aug 26 12:49:24 2022.

 ---------------------------------------------------------
 #P Geom=AllCheck Guess=TCheck SCRF=Check MP4=FrzG4/GTBas3
 ---------------------------------------------------------

 Structure from the checkpoint file:  "G4.Frag_1031.chk"
 ---------
 Frag_1031
 ---------
 Charge =  0 Multiplicity = 1

 SCF Done:  E(RHF) =  -357.082514345     A.U. after   11 cycles
 E2 =    -0.1297780017D+01 EUMP2 =    -0.35838029436160D+03
 Normal termination of Gaussian 09 at Fri Aug 26 12:59:26 2022.

 -----------------------------------------------------------
 #P Geom=AllCheck Guess=TCheck SCRF=Check MP2=Full/GTLargeXP
 -----------------------------------------------------------

 Structure from the checkpoint file:  "G4.Frag_1031.chk"
 ---------
 Frag_1031
 ---------
 Charge =  0 Multiplicity = 1

 SCF Done:  E(RHF) =  -357.176794321     A.U. after   12 cycles
 E2 =    -0.1693540864D+01 EUMP2 =    -0.35887033518460D+03
 Normal termination of Gaussian 09 at Fri Aug 26 13:03:13 2022.
 SCF Done:  E(RHF) =  -357.204553706     A.U. after    9 cycles
 Normal termination of Gaussian 09 at Fri Aug 26 13:06:44 2022.

                         Standard orientation:
 ---------------------------------------------------------------------
 Center     Atomic      Atomic             Coordinates (Angstroms)
 Number     Number       Type             X           Y           Z
 ---------------------------------------------------------------------
      1          6           0       -1.100052   -0.303649    1.376234
      2          6           0       -0.569921    0.082253   -0.019020
      3          7           0       -0.946547   -1.015147   -0.945874
      4          7           0       -1.041524    1.413652   -0.360213
      5          6           0        0.968357    0.076897    0.014861
      6          7           0        1.638803    1.147976    0.087431
      7          8           0        1.499077   -1.163611   -0.020658
      8          1           0       -0.770662    0.440059    2.102476
      9          1           0       -0.750855   -1.293367    1.682636
     10          1           0       -2.195904   -0.303748    1.364220
     11          1           0       -0.851632   -0.705467   -1.909425
     12          1           0       -1.915058   -1.283367   -0.803885
     13          1           0       -1.916606    1.378301   -0.867814
     14          1           0       -0.342882    1.921396   -0.890097
     15          1           0        2.638371    0.938123    0.103475
     16          1           0        0.767179   -1.741423   -0.318180
 ---------------------------------------------------------------------

 SCF Done:  E(RHF) =  -357.210534138     A.U. after    8 cycles

 The electronic state is 1-A.
 Alpha  occ. eigenvalues --  -20.58610 -15.57202 -15.54246 -15.52994 -11.33472
 Alpha  occ. eigenvalues --  -11.31618 -11.22656  -1.42064  -1.24844  -1.18795
 Alpha  occ. eigenvalues --   -1.13928  -0.99879  -0.88031  -0.77671  -0.73236
 Alpha  occ. eigenvalues --   -0.69132  -0.67959  -0.64835  -0.62808  -0.60794
 Alpha  occ. eigenvalues --   -0.55843  -0.54526  -0.53074  -0.50667  -0.46863
 Alpha  occ. eigenvalues --   -0.44230  -0.40402  -0.39027
 Alpha virt. eigenvalues --    0.02921   0.04165   0.04615   0.05235   0.06610
 Alpha virt. eigenvalues --    0.07057   0.07139   0.07513   0.08341   0.09806
 Alpha virt. eigenvalues --    0.11369   0.11961   0.12595   0.12845   0.14105

 Mulliken charges:
               1
     1  C   -0.550804
     2  C    0.470106
     3  N   -0.795279
     4  N   -0.773897
     5  C    0.421366
     6  N   -0.710217
     7  O   -0.583068
     8  H    0.197392
     9  H    0.179539
    10  H    0.161724
    11  H    0.310363
    12  H    0.316413
    13  H    0.294202
    14  H    0.336306
    15  H    0.299931
    16  H    0.425923
 Sum of Mulliken charges =  -0.00000

 Dipole moment (field-independent basis, Debye):
    X=             -2.8275    Y=             -1.8649    Z=             -1.8360  Tot=              3.8528
 Quadrupole moment (field-independent basis, Debye-Ang):
   XX=            -40.5487   YY=            -48.6608   ZZ=            -40.4194
   XY=              1.7072   XZ=              2.1517   YZ=             -2.1306

 Normal termination of Gaussian 09 at Fri Aug 26 13:18:26 2022.
