 Gaussian 09, Revision E.01,
 Gaussian 09:  ES64L-G09RevE.01 30-Nov-2015

 -----
 #P G4
 -----

 --------
 Frag_773
 --------
 Symbolic Z-matrix:
 Charge =  0 Multiplicity = 1

 SCF Done:  E(RB3LYP) =  -155.980182067     A.U. after   13 cycles
 SCF Done:  E(RB3LYP) =  -155.980774380     A.U. after   11 cycles
 SCF Done:  E(RB3LYP) =  -155.978808904     A.U. after   13 cycles
 SCF Done:  E(RB3LYP) =  -155.981418470     A.U. after   10 cycles
 SCF Done:  E(RB3LYP) =  -155.981465977     A.U. after   10 cycles
 SCF Done:  E(RB3LYP) =  -155.981671263     A.U. after   10 cycles
 SCF Done:  E(RB3LYP) =  -155.981608583     A.U. after    9 cycles
 SCF Done:  E(RB3LYP) =  -155.981681438     A.U. after    9 cycles
 SCF Done:  E(RB3LYP) =  -155.981683431     A.U. after    7 cycles
 Optimization completed.
    -- Stationary point found.
 Normal termination of Gaussian 09 at Fri Aug 26 06:12:29 2022.

 ----------------------------------------------------------
 #P Geom=AllCheck Guess=TCheck SCRF=Check B3LYP/GTBas3 Freq
 ----------------------------------------------------------

 Structure from the checkpoint file:  "G4.Frag_773.chk"
 --------
 Frag_773
 --------
 Charge =  0 Multiplicity = 1

 SCF Done:  E(RB3LYP) =  -155.981683431     A.U. after    1 cycles

  Exact polarizability:  56.837  -6.090  33.632   0.003  -0.001  29.802
 Approx polarizability:  83.770 -14.932  48.115   0.011  -0.005  42.426

                      1                      2                      3
                      A                      A                      A
 Frequencies --    199.9184               220.9803               359.7290
 Red. masses --      3.1419                 1.1792                 2.5421
 Frc consts  --      0.0740                 0.0339                 0.1938
 IR Inten    --      0.6458                 0.2482                 2.9082

                      4                      5                      6
                      A                      A                      A
 Frequencies --    518.7792               615.3228               632.6674
 Red. masses --      4.2653                 1.1979                 1.2120
 Frc consts  --      0.6763                 0.2672                 0.2858
 IR Inten    --      3.2786                46.0362                44.0002

                      7                      8                      9
                      A                      A                      A
 Frequencies --    785.0400               848.6419              1023.0326
 Red. masses --      1.1690                 2.7133                 2.7908
 Frc consts  --      0.4245                 1.1513                 1.7209
 IR Inten    --      0.7936                 0.0033                 0.1105

                     10                     11                     12
                      A                      A                      A
 Frequencies --   1087.6146              1106.3470              1283.9228
 Red. masses --      1.7077                 1.4795                 1.1479
 Frc consts  --      1.1902                 1.0670                 1.1149
 IR Inten    --      2.5943                 0.6126                 0.0151

                     13                     14                     15
                      A                      A                      A
 Frequencies --   1345.4576              1406.8517              1474.9897
 Red. masses --      1.4527                 1.2108                 1.0732
 Frc consts  --      1.5494                 1.4119                 1.3756
 IR Inten    --     11.9902                 0.5931                 2.2795

                     16                     17                     18
                      A                      A                      A
 Frequencies --   1494.2853              1505.3976              2238.5766
 Red. masses --      1.0400                 1.0559                 5.9294
 Frc consts  --      1.3682                 1.4099                17.5069
 IR Inten    --      4.4170                 2.1653                 2.4548

                     19                     20                     21
                      A                      A                      A
 Frequencies --   3023.2152              3045.6564              3051.1272
 Red. masses --      1.0588                 1.0342                 1.1012
 Frc consts  --      5.7016                 5.6520                 6.0402
 IR Inten    --     19.4817                25.7030                 8.9468

                     22                     23                     24
                      A                      A                      A
 Frequencies --   3119.5687              3125.4704              3507.9272
 Red. masses --      1.1022                 1.1030                 1.1621
 Frc consts  --      6.3197                 6.3484                 8.4251
 IR Inten    --     27.3116                24.5303                60.5987

 - Thermochemistry -
 -------------------
 Temperature   298.150 Kelvin.  Pressure   1.00000 Atm.
 Atom     1 has atomic number  6 and mass  12.00000

 Molecular mass:    54.04695 amu.
 Principal axes and moments of inertia in atomic units:
                           1         2         3
     Eigenvalues --    65.87685 398.37158 441.94431
           X            1.00000  -0.00178  -0.00000
           Y            0.00178   1.00000   0.00002
           Z            0.00000  -0.00002   1.00000
 This molecule is an asymmetric top.
 Rotational symmetry number  1.
 Rotational temperatures (Kelvin)      1.31478     0.21742     0.19598
 Rotational constants (GHZ):          27.39568     4.53030     4.08364
 Zero-point vibrational energy     221431.9 (Joules/Mol)
                                   52.92349 (Kcal/Mol)
 Warning -- explicit consideration of   5 degrees of freedom as
           vibrations may cause significant error
 Vibrational temperatures:    287.64   317.94   517.57   746.41   885.31
          (Kelvin)            910.27  1129.50  1221.00  1471.91  1564.83
                             1591.78  1847.28  1935.81  2024.14  2122.18
                             2149.94  2165.93  3220.81  4349.73  4382.01
                             4389.89  4488.36  4496.85  5047.12

 Zero-point correction=                           0.084339 (Hartree/Particle)
 Thermal correction to Energy=                    0.089393
 Thermal correction to Enthalpy=                  0.090337
 Thermal correction to Gibbs Free Energy=         0.057458
 Sum of electronic and zero-point Energies=           -155.897344
 Sum of electronic and thermal Energies=              -155.892290
 Sum of electronic and thermal Enthalpies=            -155.891346
 Sum of electronic and thermal Free Energies=         -155.924225

                     E (Thermal)             CV                S
                      KCal/Mol        Cal/Mol-Kelvin    Cal/Mol-Kelvin
 Total                   56.095             17.129             69.200
 Electronic               0.000              0.000              0.000
 Translational            0.889              2.981             37.884
 Rotational               0.889              2.981             23.965
 Vibrational             54.318             11.167              7.351
 Vibration     1          0.638              1.840              2.134
 Vibration     2          0.648              1.809              1.951
 Vibration     3          0.734              1.555              1.123
 Vibration     4          0.874              1.208              0.613
 Vibration     5          0.975              0.999              0.424

 Optimization completed.
    -- Stationary point found.
 Normal termination of Gaussian 09 at Fri Aug 26 06:12:43 2022.

 -----------------------------------------------------------------
 #P Geom=AllCheck Guess=TCheck SCRF=Check CCSD(T,E4T,FrzG4)/GTBas1
 -----------------------------------------------------------------

 Structure from the checkpoint file:  "G4.Frag_773.chk"
 --------
 Frag_773
 --------
 Charge =  0 Multiplicity = 1

 SCF Done:  E(RHF) =  -154.898064575     A.U. after   12 cycles
 E2 =    -0.5086336798D+00 EUMP2 =    -0.15540669825504D+03
 CCSD(T)
 CCSD(T)= -0.15546470925D+03
 Normal termination of Gaussian 09 at Fri Aug 26 06:13:03 2022.

 ---------------------------------------------------------
 #P Geom=AllCheck Guess=TCheck SCRF=Check MP4=FrzG4/GTBas2
 ---------------------------------------------------------

 Structure from the checkpoint file:  "G4.Frag_773.chk"
 --------
 Frag_773
 --------
 Charge =  0 Multiplicity = 1

 SCF Done:  E(RHF) =  -154.903621632     A.U. after   11 cycles
 E2 =    -0.5119278540D+00 EUMP2 =    -0.15541554948627D+03
 Normal termination of Gaussian 09 at Fri Aug 26 06:13:10 2022.

 ---------------------------------------------------------
 #P Geom=AllCheck Guess=TCheck SCRF=Check MP4=FrzG4/GTBas3
 ---------------------------------------------------------

 Structure from the checkpoint file:  "G4.Frag_773.chk"
 --------
 Frag_773
 --------
 Charge =  0 Multiplicity = 1

 SCF Done:  E(RHF) =  -154.918534176     A.U. after   11 cycles
 E2 =    -0.6210195961D+00 EUMP2 =    -0.15553955377198D+03
 Normal termination of Gaussian 09 at Fri Aug 26 06:13:38 2022.

 -----------------------------------------------------------
 #P Geom=AllCheck Guess=TCheck SCRF=Check MP2=Full/GTLargeXP
 -----------------------------------------------------------

 Structure from the checkpoint file:  "G4.Frag_773.chk"
 --------
 Frag_773
 --------
 Charge =  0 Multiplicity = 1

 SCF Done:  E(RHF) =  -154.953093419     A.U. after   11 cycles
 E2 =    -0.8259387053D+00 EUMP2 =    -0.15577903212422D+03
 Normal termination of Gaussian 09 at Fri Aug 26 06:13:58 2022.
 SCF Done:  E(RHF) =  -154.965526357     A.U. after    9 cycles
 Normal termination of Gaussian 09 at Fri Aug 26 06:14:26 2022.

                         Standard orientation:
 ---------------------------------------------------------------------
 Center     Atomic      Atomic             Coordinates (Angstroms)
 Number     Number       Type             X           Y           Z
 ---------------------------------------------------------------------
      1          6           0        1.955974   -0.265075    0.000131
      2          6           0        0.831932    0.161033   -0.000176
      3          6           0       -0.542484    0.649109    0.000032
      4          6           0       -1.582977   -0.485658    0.000003
      5          1           0        2.952858   -0.630019   -0.000180
      6          1           0       -0.698345    1.291427   -0.875924
      7          1           0       -0.698155    1.291213    0.876189
      8          1           0       -2.596058   -0.072913    0.000355
      9          1           0       -1.467264   -1.118310    0.884033
     10          1           0       -1.467709   -1.117854   -0.884411
 ---------------------------------------------------------------------

 SCF Done:  E(RHF) =  -154.967925843     A.U. after    7 cycles

 The electronic state is 1-A.
 Alpha  occ. eigenvalues --  -11.25315 -11.23042 -11.22605 -11.21651  -1.07894
 Alpha  occ. eigenvalues --   -0.99303  -0.87487  -0.71666  -0.64192  -0.62636
 Alpha  occ. eigenvalues --   -0.55103  -0.52455  -0.51418  -0.38354  -0.38298
 Alpha virt. eigenvalues --    0.04076   0.04415   0.04440   0.05663   0.06796
 Alpha virt. eigenvalues --    0.07261   0.07767   0.08342   0.09060   0.09952
 Alpha virt. eigenvalues --    0.10517   0.11404   0.13811   0.14700   0.15134

 Mulliken charges:
               1
     1  C   -0.465790
     2  C    0.105844
     3  C   -0.271836
     4  C   -0.499288
     5  H    0.238490
     6  H    0.189562
     7  H    0.189582
     8  H    0.166223
     9  H    0.173616
    10  H    0.173596
 Sum of Mulliken charges =  -0.00000

 Dipole moment (field-independent basis, Debye):
    X=             -0.8007    Y=              0.1747    Z=             -0.0002  Tot=              0.8196
 Quadrupole moment (field-independent basis, Debye-Ang):
   XX=            -22.2072   YY=            -25.9178   ZZ=            -26.4926
   XY=             -2.1303   XZ=             -0.0007   YZ=              0.0001

 Normal termination of Gaussian 09 at Fri Aug 26 06:17:07 2022.
