 Gaussian 09, Revision E.01,
 Gaussian 09:  ES64L-G09RevE.01 30-Nov-2015

 -----
 #P G4
 -----

 --------
 Frag_825
 --------
 Symbolic Z-matrix:
 Charge =  0 Multiplicity = 1

 SCF Done:  E(RB3LYP) =  -300.393220317     A.U. after   14 cycles
 SCF Done:  E(RB3LYP) =  -300.425323257     A.U. after   12 cycles
 SCF Done:  E(RB3LYP) =  -300.433740641     A.U. after   12 cycles
 SCF Done:  E(RB3LYP) =  -300.440620743     A.U. after   12 cycles
 SCF Done:  E(RB3LYP) =  -300.443420043     A.U. after   12 cycles
 SCF Done:  E(RB3LYP) =  -300.449107902     A.U. after   12 cycles
 SCF Done:  E(RB3LYP) =  -300.453061804     A.U. after   13 cycles
 SCF Done:  E(RB3LYP) =  -300.454590244     A.U. after   14 cycles
 SCF Done:  E(RB3LYP) =  -300.454637473     A.U. after   11 cycles
 SCF Done:  E(RB3LYP) =  -300.455280794     A.U. after   11 cycles
 SCF Done:  E(RB3LYP) =  -300.455399807     A.U. after    9 cycles
 SCF Done:  E(RB3LYP) =  -300.455411208     A.U. after    8 cycles
 SCF Done:  E(RB3LYP) =  -300.455412180     A.U. after    7 cycles
 Optimization completed.
    -- Stationary point found.
 Normal termination of Gaussian 09 at Fri Aug 26 11:07:13 2022.

 ----------------------------------------------------------
 #P Geom=AllCheck Guess=TCheck SCRF=Check B3LYP/GTBas3 Freq
 ----------------------------------------------------------

 Structure from the checkpoint file:  "G4.Frag_825.chk"
 --------
 Frag_825
 --------
 Charge =  0 Multiplicity = 1

 SCF Done:  E(RB3LYP) =  -300.455412180     A.U. after    1 cycles

  Exact polarizability:  45.114   0.360  32.861   0.002  -0.000  22.008
 Approx polarizability:  64.929   4.693  51.603   0.003  -0.001  32.364

                      1                      2                      3
                      A                      A                      A
 Frequencies --    230.7917               295.9053               331.1848
 Red. masses --      1.3111                 2.7416                 3.6334
 Frc consts  --      0.0411                 0.1414                 0.2348
 IR Inten    --     26.1918                 0.1111                 1.7563

                      4                      5                      6
                      A                      A                      A
 Frequencies --    498.5967               544.9346               668.2902
 Red. masses --      4.4527                 1.1401                 6.6971
 Frc consts  --      0.6522                 0.1995                 1.7623
 IR Inten    --     15.6606                81.6188                19.7161

                      7                      8                      9
                      A                      A                      A
 Frequencies --    737.5747               861.5300               950.7956
 Red. masses --      5.1694                 1.1995                 9.4713
 Frc consts  --      1.6569                 0.5246                 5.0447
 IR Inten    --      1.8346               124.0008                 3.4912

                     10                     11                     12
                      A                      A                      A
 Frequencies --   1020.9189              1097.3156              1237.4853
 Red. masses --      2.7806                 1.6444                 1.5639
 Frc consts  --      1.7075                 1.1666                 1.4111
 IR Inten    --     14.9308                72.7867               291.7108

                     13                     14                     15
                      A                      A                      A
 Frequencies --   1272.0771              1346.4626              1537.4034
 Red. masses --      1.1431                 1.5091                 3.9160
 Frc consts  --      1.0899                 1.6119                 5.4534
 IR Inten    --      1.4836               121.9143                88.9209

                     16                     17                     18
                      A                      A                      A
 Frequencies --   1640.8985              1746.2203              3427.9601
 Red. masses --      1.1691                 3.7570                 1.0615
 Frc consts  --      1.8546                 6.7498                 7.3495
 IR Inten    --     19.5047               463.6971               173.8437

                     19                     20                     21
                      A                      A                      A
 Frequencies --   3461.3928              3526.2325              3775.7431
 Red. masses --      1.0496                 1.0935                 1.0639
 Frc consts  --      7.4090                 8.0107                 8.9367
 IR Inten    --      3.5769                 3.5074                66.6247

 - Thermochemistry -
 -------------------
 Temperature   298.150 Kelvin.  Pressure   1.00000 Atm.
 Atom     1 has atomic number  7 and mass  14.00307

 Molecular mass:    76.02728 amu.
 Principal axes and moments of inertia in atomic units:
                           1         2         3
     Eigenvalues --   164.66036 409.00028 564.25973
           X            0.99976  -0.02186   0.00001
           Y            0.02186   0.99976   0.00001
           Z           -0.00001  -0.00001   1.00000
 This molecule is an asymmetric top.
 Rotational symmetry number  1.
 Rotational temperatures (Kelvin)      0.52601     0.21177     0.15350
 Rotational constants (GHZ):          10.96039     4.41257     3.19842
 Zero-point vibrational energy     180694.2 (Joules/Mol)
                                   43.18695 (Kcal/Mol)
 Warning -- explicit consideration of   5 degrees of freedom as
           vibrations may cause significant error
 Vibrational temperatures:    332.06   425.74   476.50   717.37   784.04
          (Kelvin)            961.52  1061.20  1239.55  1367.98  1468.87
                             1578.79  1780.46  1830.23  1937.26  2211.98
                             2360.88  2512.42  4932.06  4980.17  5073.46
                             5432.45

 Zero-point correction=                           0.068823 (Hartree/Particle)
 Thermal correction to Energy=                    0.073831
 Thermal correction to Enthalpy=                  0.074775
 Thermal correction to Gibbs Free Energy=         0.041053
 Sum of electronic and zero-point Energies=           -300.386589
 Sum of electronic and thermal Energies=              -300.381581
 Sum of electronic and thermal Enthalpies=            -300.380637
 Sum of electronic and thermal Free Energies=         -300.414359

                     E (Thermal)             CV                S
                      KCal/Mol        Cal/Mol-Kelvin    Cal/Mol-Kelvin
 Total                   46.330             17.343             70.974
 Electronic               0.000              0.000              0.000
 Translational            0.889              2.981             38.901
 Rotational               0.889              2.981             25.144
 Vibrational             44.552             11.382              6.929
 Vibration     1          0.652              1.794              1.873
 Vibration     2          0.690              1.681              1.440
 Vibration     3          0.714              1.613              1.254
 Vibration     4          0.854              1.253              0.662
 Vibration     5          0.900              1.151              0.555

 Optimization completed.
    -- Stationary point found.
 Normal termination of Gaussian 09 at Fri Aug 26 11:07:29 2022.

 -----------------------------------------------------------------
 #P Geom=AllCheck Guess=TCheck SCRF=Check CCSD(T,E4T,FrzG4)/GTBas1
 -----------------------------------------------------------------

 Structure from the checkpoint file:  "G4.Frag_825.chk"
 --------
 Frag_825
 --------
 Charge =  0 Multiplicity = 1

 SCF Done:  E(RHF) =  -298.774770498     A.U. after   12 cycles
 E2 =    -0.8074541517D+00 EUMP2 =    -0.29958222464934D+03
 CCSD(T)
 CCSD(T)= -0.29963049897D+03
 491\CCSD=-299.6061646\CCSD(T)=-299.630499\RMSD=5.617e-09\PG=C01 [X(C1H
 Normal termination of Gaussian 09 at Fri Aug 26 11:08:14 2022.

 ---------------------------------------------------------
 #P Geom=AllCheck Guess=TCheck SCRF=Check MP4=FrzG4/GTBas2
 ---------------------------------------------------------

 Structure from the checkpoint file:  "G4.Frag_825.chk"
 --------
 Frag_825
 --------
 Charge =  0 Multiplicity = 1

 SCF Done:  E(RHF) =  -298.785393219     A.U. after   12 cycles
 E2 =    -0.8216763359D+00 EUMP2 =    -0.29960706955527D+03
 Normal termination of Gaussian 09 at Fri Aug 26 11:08:27 2022.

 ---------------------------------------------------------
 #P Geom=AllCheck Guess=TCheck SCRF=Check MP4=FrzG4/GTBas3
 ---------------------------------------------------------

 Structure from the checkpoint file:  "G4.Frag_825.chk"
 --------
 Frag_825
 --------
 Charge =  0 Multiplicity = 1

 SCF Done:  E(RHF) =  -298.817511355     A.U. after   12 cycles
 E2 =    -0.9846799070D+00 EUMP2 =    -0.29980219126231D+03
 Normal termination of Gaussian 09 at Fri Aug 26 11:09:28 2022.

 -----------------------------------------------------------
 #P Geom=AllCheck Guess=TCheck SCRF=Check MP2=Full/GTLargeXP
 -----------------------------------------------------------

 Structure from the checkpoint file:  "G4.Frag_825.chk"
 --------
 Frag_825
 --------
 Charge =  0 Multiplicity = 1

 SCF Done:  E(RHF) =  -298.903165240     A.U. after   12 cycles
 E2 =    -0.1280042645D+01 EUMP2 =    -0.30018320788542D+03
 Normal termination of Gaussian 09 at Fri Aug 26 11:10:06 2022.
 SCF Done:  E(RHF) =  -298.927745676     A.U. after    8 cycles
 Normal termination of Gaussian 09 at Fri Aug 26 11:10:43 2022.

                         Standard orientation:
 ---------------------------------------------------------------------
 Center     Atomic      Atomic             Coordinates (Angstroms)
 Number     Number       Type             X           Y           Z
 ---------------------------------------------------------------------
      1          7           0       -1.763339   -0.049427    0.000035
      2          7           0       -0.531856   -0.828075    0.000053
      3          6           0        0.459920   -0.008735    0.000257
      4          8           0        0.387089    1.311699   -0.000048
      5          8           0        1.716985   -0.451048   -0.000070
      6          1           0       -2.296279   -0.362693   -0.808765
      7          1           0       -2.297150   -0.364784    0.807428
      8          1           0       -0.589836    1.454054    0.000682
      9          1           0        1.657520   -1.416864   -0.000561
 ---------------------------------------------------------------------

 SCF Done:  E(RHF) =  -298.932948909     A.U. after    8 cycles

 The electronic state is 1-A.
 Alpha  occ. eigenvalues --  -20.61440 -20.60642 -15.59459 -15.56542 -11.40214
 Alpha  occ. eigenvalues --   -1.49042  -1.40242  -1.27367  -1.07316  -0.87235
 Alpha  occ. eigenvalues --   -0.72199  -0.70288  -0.69389  -0.67285  -0.64353
 Alpha  occ. eigenvalues --   -0.58490  -0.54160  -0.53770  -0.40572  -0.39721
 Alpha virt. eigenvalues --    0.04220   0.04854   0.05630   0.05904   0.08414
 Alpha virt. eigenvalues --    0.09337   0.09377   0.11897   0.12374   0.13316
 Alpha virt. eigenvalues --    0.14931   0.15254   0.16205   0.17646   0.17798

 Mulliken charges:
               1
     1  N   -0.652634
     2  N   -0.511591
     3  C    0.735834
     4  O   -0.535374
     5  O   -0.518881
     6  H    0.320777
     7  H    0.320833
     8  H    0.428504
     9  H    0.412531
 Sum of Mulliken charges =  -0.00000

 Dipole moment (field-independent basis, Debye):
    X=             -1.9486    Y=             -0.8797    Z=             -0.0013  Tot=              2.1380
 Quadrupole moment (field-independent basis, Debye-Ang):
   XX=            -25.4699   YY=            -29.8582   ZZ=            -28.2881
   XY=             -3.6790   XZ=              0.0020   YZ=              0.0011

 Normal termination of Gaussian 09 at Fri Aug 26 11:14:32 2022.
