 Gaussian 09, Revision E.01,
 Gaussian 09:  ES64L-G09RevE.01 30-Nov-2015

 -----
 #P G4
 -----

 --------
 Frag_607
 --------
 Symbolic Z-matrix:
 Charge =  0 Multiplicity = 1

 SCF Done:  E(RB3LYP) =  -247.283508937     A.U. after   14 cycles
 SCF Done:  E(RB3LYP) =  -247.293274647     A.U. after   13 cycles
 SCF Done:  E(RB3LYP) =  -247.294614337     A.U. after   13 cycles
 SCF Done:  E(RB3LYP) =  -247.294464307     A.U. after   13 cycles
 SCF Done:  E(RB3LYP) =  -247.294941452     A.U. after   10 cycles
 SCF Done:  E(RB3LYP) =  -247.295812370     A.U. after   14 cycles
 SCF Done:  E(RB3LYP) =  -247.296453201     A.U. after   14 cycles
 SCF Done:  E(RB3LYP) =  -247.297123429     A.U. after   13 cycles
 SCF Done:  E(RB3LYP) =  -247.297897166     A.U. after   13 cycles
 SCF Done:  E(RB3LYP) =  -247.297992876     A.U. after   12 cycles
 SCF Done:  E(RB3LYP) =  -247.298030889     A.U. after    8 cycles
 SCF Done:  E(RB3LYP) =  -247.298031111     A.U. after    8 cycles
 SCF Done:  E(RB3LYP) =  -247.298031313     A.U. after    7 cycles
 Optimization completed.
    -- Stationary point found.
 Normal termination of Gaussian 09 at Fri Aug 26 13:00:31 2022.

 ----------------------------------------------------------
 #P Geom=AllCheck Guess=TCheck SCRF=Check B3LYP/GTBas3 Freq
 ----------------------------------------------------------

 Structure from the checkpoint file:  "G4.Frag_607.chk"
 --------
 Frag_607
 --------
 Charge =  0 Multiplicity = 1

 SCF Done:  E(RB3LYP) =  -247.298031313     A.U. after    1 cycles

  Exact polarizability:  54.706  -1.138  38.390  -2.685  -2.644  31.078
 Approx polarizability:  71.561  -3.728  63.146  -6.355  -5.473  48.113

                      1                      2                      3
                      A                      A                      A
 Frequencies --     69.5812               106.6827               266.6359
 Red. masses --      2.5246                 1.1575                 3.0335
 Frc consts  --      0.0072                 0.0078                 0.1271
 IR Inten    --     12.0205                 0.7965                10.9521

                      4                      5                      6
                      A                      A                      A
 Frequencies --    373.0121               500.6131               634.7809
 Red. masses --      2.1775                 2.6313                 2.3890
 Frc consts  --      0.1785                 0.3885                 0.5672
 IR Inten    --      1.7815                11.7856                 3.2283

                      7                      8                      9
                      A                      A                      A
 Frequencies --    738.2945               818.6687               995.7611
 Red. masses --      2.1134                 2.6126                 1.8642
 Frc consts  --      0.6787                 1.0316                 1.0891
 IR Inten    --     12.1670                13.9144                30.9769

                     10                     11                     12
                      A                      A                      A
 Frequencies --   1061.3586              1089.6851              1214.2094
 Red. masses --      1.9029                 1.3642                 2.0215
 Frc consts  --      1.2629                 0.9544                 1.7560
 IR Inten    --      3.6137                14.8847                66.1556

                     13                     14                     15
                      A                      A                      A
 Frequencies --   1222.9424              1384.7060              1464.3462
 Red. masses --      2.0679                 1.3014                 1.0496
 Frc consts  --      1.8222                 1.4702                 1.3261
 IR Inten    --    114.4399                26.5139                12.7683

                     16                     17                     18
                      A                      A                      A
 Frequencies --   1471.6290              1507.4677              1740.0924
 Red. masses --      1.0506                 1.1482                 7.3677
 Frc consts  --      1.3406                 1.5373                13.1439
 IR Inten    --      6.9400                26.2413               105.5052

                     19                     20                     21
                      A                      A                      A
 Frequencies --   1803.4785              3039.5738              3048.2603
 Red. masses --     10.2964                 1.0593                 1.0361
 Frc consts  --     19.7313                 5.7665                 5.6721
 IR Inten    --    181.8382                31.3856                 2.0107

                     22                     23                     24
                      A                      A                      A
 Frequencies --   3111.8017              3145.9566              3161.6643
 Red. masses --      1.0986                 1.1125                 1.1029
 Frc consts  --      6.2676                 6.4873                 6.4956
 IR Inten    --      5.2541                23.2804                 6.8909

 - Thermochemistry -
 -------------------
 Temperature   298.150 Kelvin.  Pressure   1.00000 Atm.
 Atom     1 has atomic number  6 and mass  12.00000

 Molecular mass:    71.03711 amu.
 Principal axes and moments of inertia in atomic units:
                           1         2         3
     Eigenvalues --   189.96335 407.27203 550.08571
           X            0.99794   0.06338  -0.00947
           Y           -0.06339   0.99799  -0.00133
           Z            0.00936   0.00193   0.99995
 This molecule is an asymmetric top.
 Rotational symmetry number  1.
 Rotational temperatures (Kelvin)      0.45595     0.21267     0.15746
 Rotational constants (GHZ):           9.50047     4.43129     3.28084
 Zero-point vibrational energy     203192.9 (Joules/Mol)
                                   48.56427 (Kcal/Mol)
 Warning -- explicit consideration of   5 degrees of freedom as
           vibrations may cause significant error
 Vibrational temperatures:    100.11   153.49   383.63   536.68   720.27
          (Kelvin)            913.31  1062.24  1177.88  1432.68  1527.06
                             1567.81  1746.97  1759.54  1992.28  2106.86
                             2117.34  2168.91  2503.60  2594.80  4373.26
                             4385.76  4477.18  4526.32  4548.92

 Zero-point correction=                           0.077392 (Hartree/Particle)
 Thermal correction to Energy=                    0.083229
 Thermal correction to Enthalpy=                  0.084173
 Thermal correction to Gibbs Free Energy=         0.048055
 Sum of electronic and zero-point Energies=           -247.220639
 Sum of electronic and thermal Energies=              -247.214803
 Sum of electronic and thermal Enthalpies=            -247.213858
 Sum of electronic and thermal Free Energies=         -247.249976

                     E (Thermal)             CV                S
                      KCal/Mol        Cal/Mol-Kelvin    Cal/Mol-Kelvin
 Total                   52.227             18.503             76.016
 Electronic               0.000              0.000              0.000
 Translational            0.889              2.981             38.699
 Rotational               0.889              2.981             25.257
 Vibrational             50.449             12.541             12.060
 Vibration     1          0.598              1.969              4.165
 Vibration     2          0.606              1.944              3.328
 Vibration     3          0.672              1.734              1.618
 Vibration     4          0.744              1.528              1.067
 Vibration     5          0.856              1.249              0.657

 Optimization completed.
    -- Stationary point found.
 Normal termination of Gaussian 09 at Fri Aug 26 13:00:50 2022.

 -----------------------------------------------------------------
 #P Geom=AllCheck Guess=TCheck SCRF=Check CCSD(T,E4T,FrzG4)/GTBas1
 -----------------------------------------------------------------

 Structure from the checkpoint file:  "G4.Frag_607.chk"
 --------
 Frag_607
 --------
 Charge =  0 Multiplicity = 1

 SCF Done:  E(RHF) =  -245.806423471     A.U. after   14 cycles
 E2 =    -0.7140561073D+00 EUMP2 =    -0.24652047957812D+03
 CCSD(T)
 CCSD(T)= -0.24658071518D+03
 Normal termination of Gaussian 09 at Fri Aug 26 13:01:44 2022.

 ---------------------------------------------------------
 #P Geom=AllCheck Guess=TCheck SCRF=Check MP4=FrzG4/GTBas2
 ---------------------------------------------------------

 Structure from the checkpoint file:  "G4.Frag_607.chk"
 --------
 Frag_607
 --------
 Charge =  0 Multiplicity = 1

 SCF Done:  E(RHF) =  -245.813907428     A.U. after   13 cycles
 E2 =    -0.7237215186D+00 EUMP2 =    -0.24653762894620D+03
 Normal termination of Gaussian 09 at Fri Aug 26 13:01:58 2022.

 ---------------------------------------------------------
 #P Geom=AllCheck Guess=TCheck SCRF=Check MP4=FrzG4/GTBas3
 ---------------------------------------------------------

 Structure from the checkpoint file:  "G4.Frag_607.chk"
 --------
 Frag_607
 --------
 Charge =  0 Multiplicity = 1

 SCF Done:  E(RHF) =  -245.832701174     A.U. after   13 cycles
 E2 =    -0.8645298465D+00 EUMP2 =    -0.24669723102005D+03
 Normal termination of Gaussian 09 at Fri Aug 26 13:02:59 2022.

 -----------------------------------------------------------
 #P Geom=AllCheck Guess=TCheck SCRF=Check MP2=Full/GTLargeXP
 -----------------------------------------------------------

 Structure from the checkpoint file:  "G4.Frag_607.chk"
 --------
 Frag_607
 --------
 Charge =  0 Multiplicity = 1

 SCF Done:  E(RHF) =  -245.895733421     A.U. after   13 cycles
 E2 =    -0.1138575995D+01 EUMP2 =    -0.24703430941581D+03
 Normal termination of Gaussian 09 at Fri Aug 26 13:03:42 2022.
 SCF Done:  E(RHF) =  -245.914797039     A.U. after   10 cycles
 Normal termination of Gaussian 09 at Fri Aug 26 13:04:34 2022.

                         Standard orientation:
 ---------------------------------------------------------------------
 Center     Atomic      Atomic             Coordinates (Angstroms)
 Number     Number       Type             X           Y           Z
 ---------------------------------------------------------------------
      1          6           0        1.850908   -0.204315   -0.227992
      2          7           0        0.804378   -0.434209    0.443968
      3          6           0       -0.411980    0.194088    0.077238
      4          6           0       -1.540042   -0.787619   -0.145179
      5          8           0       -0.531478    1.395033    0.034664
      6          1           0        2.797298   -0.648041    0.084120
      7          1           0        1.864712    0.429733   -1.122027
      8          1           0       -2.427648   -0.255120   -0.486698
      9          1           0       -1.249394   -1.549015   -0.876045
     10          1           0       -1.757105   -1.311276    0.791168
 ---------------------------------------------------------------------

 SCF Done:  E(RHF) =  -245.918669008     A.U. after    7 cycles

 The electronic state is 1-A.
 Alpha  occ. eigenvalues --  -20.54689 -15.58513 -11.35993 -11.31030 -11.23964
 Alpha  occ. eigenvalues --   -1.40421  -1.24699  -1.02195  -0.90018  -0.75577
 Alpha  occ. eigenvalues --   -0.68886  -0.66655  -0.63538  -0.59855  -0.56767
 Alpha  occ. eigenvalues --   -0.51553  -0.47805  -0.45652  -0.41599
 Alpha virt. eigenvalues --    0.03515   0.03799   0.04930   0.05370   0.06610
 Alpha virt. eigenvalues --    0.06842   0.07154   0.08459   0.09092   0.09859
 Alpha virt. eigenvalues --    0.11218   0.13030   0.14062   0.14846   0.16180

 Mulliken charges:
               1
     1  C   -0.163377
     2  N   -0.339242
     3  C    0.509952
     4  C   -0.510773
     5  O   -0.532593
     6  H    0.224539
     7  H    0.200468
     8  H    0.210258
     9  H    0.193469
    10  H    0.207298
 Sum of Mulliken charges =  -0.00000

 Dipole moment (field-independent basis, Debye):
    X=              1.1476    Y=             -2.4225    Z=             -1.4949  Tot=              3.0692
 Quadrupole moment (field-independent basis, Debye-Ang):
   XX=            -23.1735   YY=            -35.1112   ZZ=            -29.8433
   XY=              2.5501   XZ=             -2.0125   YZ=              0.4604

 Normal termination of Gaussian 09 at Fri Aug 26 13:08:46 2022.
