 Gaussian 09, Revision E.01,
 Gaussian 09:  ES64L-G09RevE.01 30-Nov-2015

 -----
 #P G4
 -----

 ---------
 Frag_1151
 ---------
 Symbolic Z-matrix:
 Charge =  0 Multiplicity = 1

 SCF Done:  E(RB3LYP) =  -284.314598036     A.U. after   14 cycles
 SCF Done:  E(RB3LYP) =  -284.335786484     A.U. after   13 cycles
 SCF Done:  E(RB3LYP) =  -284.340625575     A.U. after   13 cycles
 SCF Done:  E(RB3LYP) =  -284.343693694     A.U. after   13 cycles
 SCF Done:  E(RB3LYP) =  -284.345831734     A.U. after   14 cycles
 SCF Done:  E(RB3LYP) =  -284.346259270     A.U. after   13 cycles
 SCF Done:  E(RB3LYP) =  -284.346858722     A.U. after   12 cycles
 SCF Done:  E(RB3LYP) =  -284.346935239     A.U. after   11 cycles
 SCF Done:  E(RB3LYP) =  -284.346956652     A.U. after   10 cycles
 SCF Done:  E(RB3LYP) =  -284.346959304     A.U. after    8 cycles
 SCF Done:  E(RB3LYP) =  -284.347132166     A.U. after    7 cycles
 SCF Done:  E(RB3LYP) =  -284.347132163     A.U. after    6 cycles
 SCF Done:  E(RB3LYP) =  -284.347132159     A.U. after    6 cycles
 Optimization completed on the basis of negligible forces.
    -- Stationary point found.
 Normal termination of Gaussian 09 at Fri Aug 26 08:31:31 2022.

 ----------------------------------------------------------
 #P Geom=AllCheck Guess=TCheck SCRF=Check B3LYP/GTBas3 Freq
 ----------------------------------------------------------

 Structure from the checkpoint file:  "G4.Frag_1151.chk"
 ---------
 Frag_1151
 ---------
 Charge =  0 Multiplicity = 1

 SCF Done:  E(RB3LYP) =  -284.347132159     A.U. after    1 cycles

  Exact polarizability:  47.176  -0.657  41.898  -0.003   0.043  24.288
 Approx polarizability:  64.925  -0.746  70.389   0.053   0.032  35.192

                      1                      2                      3
                      A                      A                      A
 Frequencies --     12.6288               202.3774               327.5150
 Red. masses --      1.0843                 5.5112                 3.6929
 Frc consts  --      0.0001                 0.1330                 0.2334
 IR Inten    --      0.6867                 2.3487                13.3686

                      4                      5                      6
                      A                      A                      A
 Frequencies --    436.8017               482.5450               596.4003
 Red. masses --      3.3449                 1.2639                 2.1871
 Frc consts  --      0.3760                 0.1734                 0.4584
 IR Inten    --     10.0693                54.7126                51.1950

                      7                      8                      9
                      A                      A                      A
 Frequencies --    636.9420               801.2854               911.0350
 Red. masses --      3.8561                 1.1339                 4.1889
 Frc consts  --      0.9217                 0.4289                 2.0484
 IR Inten    --      9.3418                27.5645                25.3895

                     10                     11                     12
                      A                      A                      A
 Frequencies --    975.4266              1031.2661              1064.4207
 Red. masses --      5.4086                 2.2150                 1.6170
 Frc consts  --      3.0319                 1.3879                 1.0794
 IR Inten    --      6.2192                 3.5858                 9.6628

                     13                     14                     15
                      A                      A                      A
 Frequencies --   1076.6386              1363.4526              1406.4482
 Red. masses --      1.4694                 2.3988                 1.3935
 Frc consts  --      1.0035                 2.6274                 1.6240
 IR Inten    --    126.4376                55.1364                21.5294

                     16                     17                     18
                      A                      A                      A
 Frequencies --   1469.7787              1481.6564              1561.7888
 Red. masses --      1.0502                 1.0754                 1.1605
 Frc consts  --      1.3367                 1.3910                 1.6678
 IR Inten    --      7.0511                19.1388               168.7083

                     19                     20                     21
                      A                      A                      A
 Frequencies --   1734.4707              3055.3598              3123.5231
 Red. masses --      7.3863                 1.0356                 1.0998
 Frc consts  --     13.0922                 5.6960                 6.3219
 IR Inten    --    153.0680                 3.2635                 3.5742

                     22                     23                     24
                      A                      A                      A
 Frequencies --   3149.2983              3363.9044              3571.1429
 Red. masses --      1.1031                 1.0661                 1.0770
 Frc consts  --      6.4459                 7.1080                 8.0921
 IR Inten    --      6.5975               110.1791                12.5666

 - Thermochemistry -
 -------------------
 Temperature   298.150 Kelvin.  Pressure   1.00000 Atm.
 Atom     1 has atomic number  6 and mass  12.00000

 Molecular mass:    75.03203 amu.
 Principal axes and moments of inertia in atomic units:
                           1         2         3
     Eigenvalues --   175.83409 422.41145 587.00648
           X            0.99915  -0.04131  -0.00036
           Y            0.04131   0.99915   0.00027
           Z            0.00035  -0.00028   1.00000
 This molecule is an asymmetric top.
 Rotational symmetry number  1.
 Rotational temperatures (Kelvin)      0.49259     0.20505     0.14755
 Rotational constants (GHZ):          10.26389     4.27247     3.07448
 Zero-point vibrational energy     202384.9 (Joules/Mol)
                                   48.37114 (Kcal/Mol)
 Warning -- explicit consideration of   6 degrees of freedom as
           vibrations may cause significant error
 Vibrational temperatures:     18.17   291.18   471.22   628.46   694.27
          (Kelvin)            858.09   916.42  1152.87  1310.77  1403.42
                             1483.76  1531.46  1549.04  1961.70  2023.56
                             2114.68  2131.77  2247.06  2495.51  4395.98
                             4494.05  4531.13  4839.90  5138.07

 Zero-point correction=                           0.077084 (Hartree/Particle)
 Thermal correction to Energy=                    0.082883
 Thermal correction to Enthalpy=                  0.083827
 Thermal correction to Gibbs Free Energy=         0.046670
 Sum of electronic and zero-point Energies=           -284.270048
 Sum of electronic and thermal Energies=              -284.264249
 Sum of electronic and thermal Enthalpies=            -284.263305
 Sum of electronic and thermal Free Energies=         -284.300462

                     E (Thermal)             CV                S
                      KCal/Mol        Cal/Mol-Kelvin    Cal/Mol-Kelvin
 Total                   52.010             19.053             78.204
 Electronic               0.000              0.000              0.000
 Translational            0.889              2.981             38.862
 Rotational               0.889              2.981             25.281
 Vibrational             50.232             13.091             14.061
 Vibration     1          0.593              1.987              7.547
 Vibration     2          0.639              1.837              2.111
 Vibration     3          0.711              1.621              1.272
 Vibration     4          0.797              1.390              0.837
 Vibration     5          0.839              1.289              0.703
 Vibration     6          0.954              1.039              0.456

 Optimization completed on the basis of negligible forces.
    -- Stationary point found.
 Normal termination of Gaussian 09 at Fri Aug 26 08:31:49 2022.

 -----------------------------------------------------------------
 #P Geom=AllCheck Guess=TCheck SCRF=Check CCSD(T,E4T,FrzG4)/GTBas1
 -----------------------------------------------------------------

 Structure from the checkpoint file:  "G4.Frag_1151.chk"
 ---------
 Frag_1151
 ---------
 Charge =  0 Multiplicity = 1

 SCF Done:  E(RHF) =  -282.701097694     A.U. after   13 cycles
 E2 =    -0.7837509459D+00 EUMP2 =    -0.28348484864012D+03
 CCSD(T)
 CCSD(T)= -0.28354242839D+03
 Normal termination of Gaussian 09 at Fri Aug 26 08:32:45 2022.

 ---------------------------------------------------------
 #P Geom=AllCheck Guess=TCheck SCRF=Check MP4=FrzG4/GTBas2
 ---------------------------------------------------------

 Structure from the checkpoint file:  "G4.Frag_1151.chk"
 ---------
 Frag_1151
 ---------
 Charge =  0 Multiplicity = 1

 SCF Done:  E(RHF) =  -282.709310272     A.U. after   12 cycles
 E2 =    -0.7955623366D+00 EUMP2 =    -0.28350487260884D+03
 Normal termination of Gaussian 09 at Fri Aug 26 08:32:59 2022.

 ---------------------------------------------------------
 #P Geom=AllCheck Guess=TCheck SCRF=Check MP4=FrzG4/GTBas3
 ---------------------------------------------------------

 Structure from the checkpoint file:  "G4.Frag_1151.chk"
 ---------
 Frag_1151
 ---------
 Charge =  0 Multiplicity = 1

 SCF Done:  E(RHF) =  -282.737570800     A.U. after   12 cycles
 E2 =    -0.9576493668D+00 EUMP2 =    -0.28369522016706D+03
 Normal termination of Gaussian 09 at Fri Aug 26 08:34:06 2022.

 -----------------------------------------------------------
 #P Geom=AllCheck Guess=TCheck SCRF=Check MP2=Full/GTLargeXP
 -----------------------------------------------------------

 Structure from the checkpoint file:  "G4.Frag_1151.chk"
 ---------
 Frag_1151
 ---------
 Charge =  0 Multiplicity = 1

 SCF Done:  E(RHF) =  -282.815060657     A.U. after   13 cycles
 E2 =    -0.1246988597D+01 EUMP2 =    -0.28406204925463D+03
 Normal termination of Gaussian 09 at Fri Aug 26 08:34:51 2022.
 SCF Done:  E(RHF) =  -282.839788167     A.U. after   10 cycles
 Normal termination of Gaussian 09 at Fri Aug 26 08:35:43 2022.

                         Standard orientation:
 ---------------------------------------------------------------------
 Center     Atomic      Atomic             Coordinates (Angstroms)
 Number     Number       Type             X           Y           Z
 ---------------------------------------------------------------------
      1          6           0        1.779053   -0.475626   -0.003929
      2          6           0        0.411847    0.147797    0.006118
      3          7           0        0.059371    1.368068    0.001462
      4          8           0       -0.536999   -0.810476    0.008610
      5          8           0       -1.855913   -0.242277   -0.006833
      6          1           0        2.544128    0.285748    0.154361
      7          1           0        1.959568   -0.968712   -0.963744
      8          1           0        1.856640   -1.234817    0.778580
      9          1           0        0.843074    2.010501    0.000412
     10          1           0       -1.621114    0.719801   -0.007192
 ---------------------------------------------------------------------

 SCF Done:  E(RHF) =  -282.844703354     A.U. after    8 cycles

 The electronic state is 1-A.
 Alpha  occ. eigenvalues --  -20.64921 -20.62302 -15.55775 -11.36593 -11.26013
 Alpha  occ. eigenvalues --   -1.51263  -1.26974  -1.20038  -1.01498  -0.83108
 Alpha  occ. eigenvalues --   -0.71318  -0.70097  -0.67909  -0.60723  -0.59698
 Alpha  occ. eigenvalues --   -0.58002  -0.56219  -0.49151  -0.46439  -0.42341
 Alpha virt. eigenvalues --    0.03058   0.04721   0.05353   0.05845   0.07568
 Alpha virt. eigenvalues --    0.07936   0.07993   0.10335   0.11971   0.12797
 Alpha virt. eigenvalues --    0.13381   0.14739   0.14984   0.15726   0.16622

 Mulliken charges:
               1
     1  C   -0.514154
     2  C    0.486135
     3  N   -0.751898
     4  O   -0.178090
     5  O   -0.386731
     6  H    0.181284
     7  H    0.211515
     8  H    0.221369
     9  H    0.304196
    10  H    0.426373
 Sum of Mulliken charges =  -0.00000

 Dipole moment (field-independent basis, Debye):
    X=              3.7453    Y=              0.8170    Z=             -0.0172  Tot=              3.8334
 Quadrupole moment (field-independent basis, Debye-Ang):
   XX=            -28.2363   YY=            -29.9581   ZZ=            -30.4693
   XY=             -1.3239   XZ=             -0.0168   YZ=             -0.0058

 Normal termination of Gaussian 09 at Fri Aug 26 08:40:20 2022.
