 Gaussian 09, Revision E.01,
 Gaussian 09:  ES64L-G09RevE.01 30-Nov-2015

 -----
 #P G4
 -----

 --------
 Frag_959
 --------
 Symbolic Z-matrix:
 Charge =  0 Multiplicity = 1

 SCF Done:  E(RB3LYP) =  -319.785758722     A.U. after   14 cycles
 SCF Done:  E(RB3LYP) =  -319.851032193     A.U. after   12 cycles
 SCF Done:  E(RB3LYP) =  -319.878064808     A.U. after   13 cycles
 SCF Done:  E(RB3LYP) =  -319.882874026     A.U. after   11 cycles
 SCF Done:  E(RB3LYP) =  -319.883586595     A.U. after   10 cycles
 SCF Done:  E(RB3LYP) =  -319.883705208     A.U. after   10 cycles
 SCF Done:  E(RB3LYP) =  -319.883829495     A.U. after   10 cycles
 SCF Done:  E(RB3LYP) =  -319.883952964     A.U. after   11 cycles
 SCF Done:  E(RB3LYP) =  -319.884053310     A.U. after   10 cycles
 SCF Done:  E(RB3LYP) =  -319.884268690     A.U. after   11 cycles
 SCF Done:  E(RB3LYP) =  -319.884339111     A.U. after    7 cycles
 SCF Done:  E(RB3LYP) =  -319.884339641     A.U. after    7 cycles
 SCF Done:  E(RB3LYP) =  -319.884339852     A.U. after    7 cycles
 Optimization completed.
    -- Stationary point found.
 Normal termination of Gaussian 09 at Tue Aug 30 12:01:47 2022.

 ----------------------------------------------------------
 #P Geom=AllCheck Guess=TCheck SCRF=Check B3LYP/GTBas3 Freq
 ----------------------------------------------------------

 Structure from the checkpoint file:  "G4.Frag_959.chk"
 --------
 Frag_959
 --------
 Charge =  0 Multiplicity = 1

 SCF Done:  E(RB3LYP) =  -319.884339852     A.U. after    1 cycles

  Exact polarizability:  56.876   3.491  53.896   0.064   0.896  33.702
 Approx polarizability:  76.535   8.797  81.343   1.166   2.654  50.341

                      1                      2                      3
                      A                      A                      A
 Frequencies --     88.9272               157.3830               192.6262
 Red. masses --      4.1105                 1.8394                 1.5735
 Frc consts  --      0.0192                 0.0268                 0.0344
 IR Inten    --      0.3808                 5.3598                 8.9305

                      4                      5                      6
                      A                      A                      A
 Frequencies --    323.9670               329.7120               424.3585
 Red. masses --      2.0566                 1.3906                 2.5860
 Frc consts  --      0.1272                 0.0891                 0.2744
 IR Inten    --      4.0234                18.0488                 9.5822

                      7                      8                      9
                      A                      A                      A
 Frequencies --    543.3893               552.6903               562.0124
 Red. masses --      1.2742                 2.5103                 3.9270
 Frc consts  --      0.2217                 0.4518                 0.7308
 IR Inten    --     97.5731                40.5676                 6.8817

                     10                     11                     12
                      A                      A                      A
 Frequencies --    737.9557               755.6379               780.9059
 Red. masses --      3.0946                 1.5344                 4.3293
 Frc consts  --      0.9929                 0.5162                 1.5555
 IR Inten    --     62.8592                 1.6522                 3.0087

                     13                     14                     15
                      A                      A                      A
 Frequencies --    893.3729              1047.5480              1102.9835
 Red. masses --      1.6416                 1.8152                 1.4415
 Frc consts  --      0.7719                 1.1736                 1.0332
 IR Inten    --    137.9921                94.4832                70.5719

                     16                     17                     18
                      A                      A                      A
 Frequencies --   1142.0621              1208.3380              1274.0953
 Red. masses --      1.3413                 2.7968                 1.9374
 Frc consts  --      1.0307                 2.4060                 1.8529
 IR Inten    --     11.0520                48.1336               168.8762

                     19                     20                     21
                      A                      A                      A
 Frequencies --   1308.8746              1333.2175              1444.1422
 Red. masses --      2.2279                 1.2293                 1.2213
 Frc consts  --      2.2488                 1.2874                 1.5007
 IR Inten    --      6.9885                 6.0697                20.9345

                     22                     23                     24
                      A                      A                      A
 Frequencies --   1481.1943              1498.7949              1511.3901
 Red. masses --      1.5278                 1.1756                 1.3555
 Frc consts  --      1.9749                 1.5559                 1.8243
 IR Inten    --     76.1935                11.7936                59.1925

                     25                     26                     27
                      A                      A                      A
 Frequencies --   1691.2343              1724.2511              2978.8266
 Red. masses --      1.3082                 3.5984                 1.0535
 Frc consts  --      2.2046                 6.3032                 5.5080
 IR Inten    --     71.4311               283.5900                54.2274

                     28                     29                     30
                      A                      A                      A
 Frequencies --   3080.8682              3120.7068              3430.4564
 Red. masses --      1.0798                 1.1029                 1.0501
 Frc consts  --      6.0388                 6.3283                 7.2807
 IR Inten    --     23.6696                15.2380                 8.1025

                     31                     32                     33
                      A                      A                      A
 Frequencies --   3532.4506              3563.7837              3781.9742
 Red. masses --      1.0921                 1.0747                 1.0639
 Frc consts  --      8.0292                 8.0421                 8.9660
 IR Inten    --      0.3095                 3.2386                64.1669

 - Thermochemistry -
 -------------------
 Temperature   298.150 Kelvin.  Pressure   1.00000 Atm.
 Atom     1 has atomic number  6 and mass  12.00000

 Molecular mass:    89.05891 amu.
 Principal axes and moments of inertia in atomic units:
                           1         2         3
     Eigenvalues --   344.28625 513.27336 827.11926
           X            0.99930  -0.03735  -0.00137
           Y            0.03735   0.99930  -0.00228
           Z            0.00145   0.00223   1.00000
 This molecule is an asymmetric top.
 Rotational symmetry number  1.
 Rotational temperatures (Kelvin)      0.25158     0.16875     0.10472
 Rotational constants (GHZ):           5.24198     3.51614     2.18196
 Zero-point vibrational energy     284712.0 (Joules/Mol)
                                   68.04780 (Kcal/Mol)
 Warning -- explicit consideration of   9 degrees of freedom as
           vibrations may cause significant error
 Vibrational temperatures:    127.95   226.44   277.15   466.12   474.38
          (Kelvin)            610.56   781.81   795.20   808.61  1061.75
                             1087.19  1123.55  1285.36  1507.19  1586.95
                             1643.17  1738.53  1833.14  1883.18  1918.20
                             2077.80  2131.11  2156.43  2174.55  2433.31
                             2480.81  4285.86  4432.68  4490.00  4935.66
                             5082.40  5127.48  5441.41

 Zero-point correction=                           0.108441 (Hartree/Particle)
 Thermal correction to Energy=                    0.115339
 Thermal correction to Enthalpy=                  0.116283
 Thermal correction to Gibbs Free Energy=         0.077979
 Sum of electronic and zero-point Energies=           -319.775899
 Sum of electronic and thermal Energies=              -319.769001
 Sum of electronic and thermal Enthalpies=            -319.768056
 Sum of electronic and thermal Free Energies=         -319.806360

                     E (Thermal)             CV                S
                      KCal/Mol        Cal/Mol-Kelvin    Cal/Mol-Kelvin
 Total                   72.376             24.281             80.617
 Electronic               0.000              0.000              0.000
 Translational            0.889              2.981             39.373
 Rotational               0.889              2.981             26.483
 Vibrational             70.599             18.319             14.762
 Vibration     1          0.602              1.957              3.684
 Vibration     2          0.621              1.894              2.581
 Vibration     3          0.635              1.850              2.202
 Vibration     4          0.709              1.628              1.290
 Vibration     5          0.713              1.616              1.261
 Vibration     6          0.786              1.417              0.877
 Vibration     7          0.899              1.154              0.558
 Vibration     8          0.908              1.134              0.539
 Vibration     9          0.918              1.113              0.520

 Normal termination of Gaussian 09 at Tue Aug 30 12:02:16 2022.

 -----------------------------------------------------------------
 #P Geom=AllCheck Guess=TCheck SCRF=Check CCSD(T,E4T,FrzG4)/GTBas1
 -----------------------------------------------------------------

 Structure from the checkpoint file:  "G4.Frag_959.chk"
 --------
 Frag_959
 --------
 Charge =  0 Multiplicity = 1

 SCF Done:  E(RHF) =  -317.960651063     A.U. after   13 cycles
 E2 =    -0.9204827901D+00 EUMP2 =    -0.31888113385299D+03
 CCSD(T)
 CCSD(T)= -0.31895176505D+03
 Normal termination of Gaussian 09 at Tue Aug 30 12:04:07 2022.

 ---------------------------------------------------------
 #P Geom=AllCheck Guess=TCheck SCRF=Check MP4=FrzG4/GTBas2
 ---------------------------------------------------------

 Structure from the checkpoint file:  "G4.Frag_959.chk"
 --------
 Frag_959
 --------
 Charge =  0 Multiplicity = 1

 SCF Done:  E(RHF) =  -317.972141326     A.U. after   13 cycles
 E2 =    -0.9358739404D+00 EUMP2 =    -0.31890801526615D+03
 Normal termination of Gaussian 09 at Tue Aug 30 12:04:41 2022.

 ---------------------------------------------------------
 #P Geom=AllCheck Guess=TCheck SCRF=Check MP4=FrzG4/GTBas3
 ---------------------------------------------------------

 Structure from the checkpoint file:  "G4.Frag_959.chk"
 --------
 Frag_959
 --------
 Charge =  0 Multiplicity = 1

 SCF Done:  E(RHF) =  -318.006971533     A.U. after   12 cycles
 E2 =    -0.1124045224D+01 EUMP2 =    -0.31913101675773D+03
 Normal termination of Gaussian 09 at Tue Aug 30 12:08:03 2022.

 -----------------------------------------------------------
 #P Geom=AllCheck Guess=TCheck SCRF=Check MP2=Full/GTLargeXP
 -----------------------------------------------------------

 Structure from the checkpoint file:  "G4.Frag_959.chk"
 --------
 Frag_959
 --------
 Charge =  0 Multiplicity = 1

 SCF Done:  E(RHF) =  -318.093052427     A.U. after   12 cycles
 E2 =    -0.1466595331D+01 EUMP2 =    -0.31955964775818D+03
 Normal termination of Gaussian 09 at Tue Aug 30 12:09:52 2022.
 SCF Done:  E(RHF) =  -318.118080965     A.U. after    9 cycles
 Normal termination of Gaussian 09 at Tue Aug 30 12:11:39 2022.

                         Standard orientation:
 ---------------------------------------------------------------------
 Center     Atomic      Atomic             Coordinates (Angstroms)
 Number     Number       Type             X           Y           Z
 ---------------------------------------------------------------------
      1          6           0       -1.478856    1.073864   -0.063972
      2          7           0       -0.591243   -0.068003   -0.172904
      3          7           0       -1.114027   -1.335424    0.147457
      4          6           0        0.773354    0.119159   -0.018659
      5          7           0        1.412141    1.215238    0.129889
      6          8           0        1.457857   -1.039021   -0.100799
      7          1           0       -1.626084    1.409469    0.975262
      8          1           0       -1.094566    1.911432   -0.651487
      9          1           0       -2.451352    0.794770   -0.477867
     10          1           0       -1.600022   -1.295304    1.043087
     11          1           0       -1.791267   -1.596173   -0.563486
     12          1           0        0.804315    2.018879    0.240286
     13          1           0        2.381035   -0.771728    0.005285
 ---------------------------------------------------------------------

 SCF Done:  E(RHF) =  -318.123467126     A.U. after    8 cycles

 The electronic state is 1-A.
 Alpha  occ. eigenvalues --  -20.58492 -15.61201 -15.59302 -15.51424 -11.36690
 Alpha  occ. eigenvalues --  -11.27401  -1.43025  -1.31497  -1.18249  -1.07854
 Alpha  occ. eigenvalues --   -0.96205  -0.79455  -0.72555  -0.71380  -0.70243
 Alpha  occ. eigenvalues --   -0.63865  -0.61012  -0.58696  -0.58387  -0.56350
 Alpha  occ. eigenvalues --   -0.45788  -0.43754  -0.42243  -0.36378
 Alpha virt. eigenvalues --    0.03058   0.04594   0.04811   0.05340   0.06965
 Alpha virt. eigenvalues --    0.07201   0.07669   0.08647   0.09297   0.11618
 Alpha virt. eigenvalues --    0.12750   0.14095   0.14245   0.14742   0.15562

 Mulliken charges:
               1
     1  C   -0.458157
     2  N   -0.070684
     3  N   -0.598925
     4  C    0.569704
     5  N   -0.784004
     6  O   -0.513743
     7  H    0.172128
     8  H    0.198578
     9  H    0.182453
    10  H    0.297525
    11  H    0.318626
    12  H    0.273641
    13  H    0.412855
 Sum of Mulliken charges =  -0.00000

 Dipole moment (field-independent basis, Debye):
    X=             -3.7451    Y=              0.3806    Z=              0.3732  Tot=              3.7828
 Quadrupole moment (field-independent basis, Debye-Ang):
   XX=            -32.2781   YY=            -38.4917   ZZ=            -36.5280
   XY=             -2.4824   XZ=             -0.3040   YZ=             -0.2817

 Normal termination of Gaussian 09 at Tue Aug 30 12:18:11 2022.
