 Gaussian 09, Revision E.01,
 Gaussian 09:  ES64L-G09RevE.01 30-Nov-2015

 -----
 #P G4
 -----

 --------
 Frag_841
 --------
 Symbolic Z-matrix:
 Charge =  0 Multiplicity = 1

 SCF Done:  E(RB3LYP) =  -364.271650273     A.U. after   12 cycles
 SCF Done:  E(RB3LYP) =  -364.277466856     A.U. after   10 cycles
 SCF Done:  E(RB3LYP) =  -364.277921326     A.U. after   10 cycles
 SCF Done:  E(RB3LYP) =  -364.278112720     A.U. after   10 cycles
 SCF Done:  E(RB3LYP) =  -364.278140288     A.U. after    9 cycles
 SCF Done:  E(RB3LYP) =  -364.278147141     A.U. after    9 cycles
 SCF Done:  E(RB3LYP) =  -364.278154043     A.U. after    9 cycles
 SCF Done:  E(RB3LYP) =  -364.278156638     A.U. after    7 cycles
 SCF Done:  E(RB3LYP) =  -364.278157687     A.U. after    7 cycles
 SCF Done:  E(RB3LYP) =  -364.278158032     A.U. after    7 cycles
 Optimization completed.
    -- Stationary point found.
 Normal termination of Gaussian 09 at Fri Aug 26 08:04:48 2022.

 ----------------------------------------------------------
 #P Geom=AllCheck Guess=TCheck SCRF=Check B3LYP/GTBas3 Freq
 ----------------------------------------------------------

 Structure from the checkpoint file:  "G4.Frag_841.chk"
 --------
 Frag_841
 --------
 Charge =  0 Multiplicity = 1

 SCF Done:  E(RB3LYP) =  -364.278158032     A.U. after    1 cycles

  Exact polarizability:  62.039  -0.208  58.537  -0.317  -0.194  57.484
 Approx polarizability:  82.420  -0.798  83.557  -1.640   0.733  83.144

                      1                      2                      3
                      A                      A                      A
 Frequencies --     99.3418               194.1948               239.4662
 Red. masses --      3.0697                 1.0465                 1.5346
 Frc consts  --      0.0178                 0.0233                 0.0518
 IR Inten    --      0.6595                 1.7654                 3.3103

                      4                      5                      6
                      A                      A                      A
 Frequencies --    250.4836               267.1289               308.0890
 Red. masses --      1.8671                 2.6515                 1.0720
 Frc consts  --      0.0690                 0.1115                 0.0599
 IR Inten    --      1.1855                 2.2158                36.1478

                      7                      8                      9
                      A                      A                      A
 Frequencies --    324.4437               346.5361               372.7823
 Red. masses --      1.1744                 2.4131                 2.7594
 Frc consts  --      0.0728                 0.1707                 0.2259
 IR Inten    --     97.3932                 4.3304                 7.3462

                     10                     11                     12
                      A                      A                      A
 Frequencies --    405.5053               478.4286               499.1713
 Red. masses --      1.4139                 2.4608                 2.4591
 Frc consts  --      0.1370                 0.3319                 0.3610
 IR Inten    --     32.0578                14.8511                53.2029

                     13                     14                     15
                      A                      A                      A
 Frequencies --    511.4293               598.2968               725.3356
 Red. masses --      3.6173                 3.0004                 3.1659
 Frc consts  --      0.5575                 0.6328                 0.9814
 IR Inten    --      4.7229                21.5361                20.1977

                     16                     17                     18
                      A                      A                      A
 Frequencies --    892.4430               906.6745               935.6903
 Red. masses --      2.0683                 1.6602                 2.0734
 Frc consts  --      0.9706                 0.8041                 1.0696
 IR Inten    --    125.0900                24.2018                79.1690

                     19                     20                     21
                      A                      A                      A
 Frequencies --    942.4076              1015.3189              1032.0230
 Red. masses --      1.6619                 1.4229                 1.7584
 Frc consts  --      0.8696                 0.8642                 1.1034
 IR Inten    --     33.5163                 7.1157                39.1673

                     22                     23                     24
                      A                      A                      A
 Frequencies --   1101.0019              1120.6890              1158.9295
 Red. masses --      1.5334                 2.0516                 2.3519
 Frc consts  --      1.0952                 1.5181                 1.8611
 IR Inten    --     49.1070               111.5561                46.3220

                     25                     26                     27
                      A                      A                      A
 Frequencies --   1185.3302              1277.6464              1303.1419
 Red. masses --      2.6518                 1.6151                 1.3023
 Frc consts  --      2.1952                 1.5533                 1.3030
 IR Inten    --     52.1925                 1.5943                13.9947

                     28                     29                     30
                      A                      A                      A
 Frequencies --   1372.1184              1380.2905              1396.2475
 Red. masses --      1.4852                 1.2542                 1.4001
 Frc consts  --      1.6475                 1.4078                 1.6082
 IR Inten    --     18.2011                 7.2906                10.1007

                     31                     32                     33
                      A                      A                      A
 Frequencies --   1409.2828              1440.9052              1480.8617
 Red. masses --      1.3749                 1.7130                 1.0541
 Frc consts  --      1.6089                 2.0954                 1.3620
 IR Inten    --     10.7816                59.7144                 4.9580

                     34                     35                     36
                      A                      A                      A
 Frequencies --   1493.4653              1497.8822              1502.8400
 Red. masses --      1.0608                 1.0522                 1.0588
 Frc consts  --      1.3940                 1.3910                 1.4089
 IR Inten    --      3.0353                 3.5135                 0.3205

                     37                     38                     39
                      A                      A                      A
 Frequencies --   1663.8896              2986.0547              3037.7435
 Red. masses --      1.0919                 1.0830                 1.0409
 Frc consts  --      1.7811                 5.6893                 5.6593
 IR Inten    --     22.8982                33.7248                21.1156

                     40                     41                     42
                      A                      A                      A
 Frequencies --   3049.9153              3105.6654              3117.9933
 Red. masses --      1.0365                 1.0951                 1.0995
 Frc consts  --      5.6809                 6.2232                 6.2981
 IR Inten    --     11.3335                30.0907                19.0109

                     43                     44                     45
                      A                      A                      A
 Frequencies --   3142.1434              3142.8119              3480.7776
 Red. masses --      1.1021                 1.1012                 1.0484
 Frc consts  --      6.4110                 6.4085                 7.4840
 IR Inten    --     14.0324                13.2745                 1.2920

                     46                     47                     48
                      A                      A                      A
 Frequencies --   3561.6335              3782.4769              3796.2974
 Red. masses --      1.0919                 1.0652                 1.0657
 Frc consts  --      8.1608                 8.9793                 9.0488
 IR Inten    --      1.9889                16.6803                16.1004

 - Thermochemistry -
 -------------------
 Temperature   298.150 Kelvin.  Pressure   1.00000 Atm.
 Atom     1 has atomic number  6 and mass  12.00000

 Molecular mass:   105.07898 amu.
 Principal axes and moments of inertia in atomic units:
                           1         2         3
     Eigenvalues --   558.89031 792.22744 942.56063
           X            0.99942   0.03168   0.01263
           Y           -0.03138   0.99924  -0.02323
           Z           -0.01336   0.02282   0.99965
 This molecule is an asymmetric top.
 Rotational symmetry number  1.
 Warning -- assumption of classical behavior for rotation
           may cause significant error
 Rotational temperatures (Kelvin)      0.15497     0.10933     0.09189
 Rotational constants (GHZ):           3.22915     2.27806     1.91472
 Zero-point vibrational energy     414704.8 (Joules/Mol)
                                   99.11682 (Kcal/Mol)
 Warning -- explicit consideration of  14 degrees of freedom as
           vibrations may cause significant error
 Vibrational temperatures:    142.93   279.40   344.54   360.39   384.34
          (Kelvin)            443.27   466.80   498.59   536.35   583.43
                              688.35   718.20   735.83   860.81  1043.59
                             1284.02  1304.50  1346.25  1355.91  1460.82
                             1484.85  1584.09  1612.42  1667.44  1705.42
                             1838.25  1874.93  1974.17  1985.93  2008.89
                             2027.64  2073.14  2130.63  2148.76  2155.12
                             2162.25  2393.96  4296.26  4370.63  4388.14
                             4468.35  4486.09  4520.84  4521.80  5008.06
                             5124.39  5442.13  5462.02

 Zero-point correction=                           0.157953 (Hartree/Particle)
 Thermal correction to Energy=                    0.166730
 Thermal correction to Enthalpy=                  0.167674
 Thermal correction to Gibbs Free Energy=         0.125917
 Sum of electronic and zero-point Energies=           -364.120205
 Sum of electronic and thermal Energies=              -364.111428
 Sum of electronic and thermal Enthalpies=            -364.110484
 Sum of electronic and thermal Free Energies=         -364.152241

                     E (Thermal)             CV                S
                      KCal/Mol        Cal/Mol-Kelvin    Cal/Mol-Kelvin
 Total                  104.625             33.259             87.885
 Electronic               0.000              0.000              0.000
 Translational            0.889              2.981             39.866
 Rotational               0.889              2.981             27.525
 Vibrational            102.847             27.297             20.494
 Vibration     1          0.604              1.950              3.467
 Vibration     2          0.635              1.848              2.187
 Vibration     3          0.657              1.780              1.807
 Vibration     4          0.663              1.762              1.727
 Vibration     5          0.672              1.733              1.615
 Vibration     6          0.698              1.658              1.373
 Vibration     7          0.709              1.627              1.288
 Vibration     8          0.725              1.582              1.182
 Vibration     9          0.744              1.528              1.068
 Vibration    10          0.770              1.458              0.943
 Vibration    11          0.835              1.298              0.714
 Vibration    12          0.855              1.252              0.660
 Vibration    13          0.867              1.225              0.630
 Vibration    14          0.956              1.035              0.453

 Optimization completed.
    -- Stationary point found.
 Normal termination of Gaussian 09 at Fri Aug 26 08:05:42 2022.

 -----------------------------------------------------------------
 #P Geom=AllCheck Guess=TCheck SCRF=Check CCSD(T,E4T,FrzG4)/GTBas1
 -----------------------------------------------------------------

 Structure from the checkpoint file:  "G4.Frag_841.chk"
 --------
 Frag_841
 --------
 Charge =  0 Multiplicity = 1

 SCF Done:  E(RHF) =  -362.036978071     A.U. after   11 cycles
 E2 =    -0.1052806569D+01 EUMP2 =    -0.36308978463969D+03
 CCSD(T)
 CCSD(T)= -0.36318115641D+03
 Normal termination of Gaussian 09 at Fri Aug 26 08:10:32 2022.

 ---------------------------------------------------------
 #P Geom=AllCheck Guess=TCheck SCRF=Check MP4=FrzG4/GTBas2
 ---------------------------------------------------------

 Structure from the checkpoint file:  "G4.Frag_841.chk"
 --------
 Frag_841
 --------
 Charge =  0 Multiplicity = 1

 SCF Done:  E(RHF) =  -362.048998020     A.U. after   11 cycles
 E2 =    -0.1071279737D+01 EUMP2 =    -0.36312027775685D+03
 Normal termination of Gaussian 09 at Fri Aug 26 08:12:02 2022.

 ---------------------------------------------------------
 #P Geom=AllCheck Guess=TCheck SCRF=Check MP4=FrzG4/GTBas3
 ---------------------------------------------------------

 Structure from the checkpoint file:  "G4.Frag_841.chk"
 --------
 Frag_841
 --------
 Charge =  0 Multiplicity = 1

 SCF Done:  E(RHF) =  -362.089499575     A.U. after   11 cycles
 E2 =    -0.1309437578D+01 EUMP2 =    -0.36339893715316D+03
 Normal termination of Gaussian 09 at Fri Aug 26 08:24:21 2022.

 -----------------------------------------------------------
 #P Geom=AllCheck Guess=TCheck SCRF=Check MP2=Full/GTLargeXP
 -----------------------------------------------------------

 Structure from the checkpoint file:  "G4.Frag_841.chk"
 --------
 Frag_841
 --------
 Charge =  0 Multiplicity = 1

 SCF Done:  E(RHF) =  -362.185502607     A.U. after   12 cycles
 E2 =    -0.1709571641D+01 EUMP2 =    -0.36389507424869D+03
 Normal termination of Gaussian 09 at Fri Aug 26 08:28:33 2022.
 SCF Done:  E(RHF) =  -362.214391363     A.U. after    8 cycles
 Normal termination of Gaussian 09 at Fri Aug 26 08:32:13 2022.

                         Standard orientation:
 ---------------------------------------------------------------------
 Center     Atomic      Atomic             Coordinates (Angstroms)
 Number     Number       Type             X           Y           Z
 ---------------------------------------------------------------------
      1          6           0       -1.696450   -1.134775    0.017632
      2          6           0       -0.862654    0.063433   -0.433428
      3          7           0       -1.501951    1.308080   -0.008959
      4          6           0        0.634911   -0.036679   -0.030158
      5          6           0        0.889837   -0.103714    1.472907
      6          8           0        1.326363    1.120434   -0.483720
      7          8           0        1.128846   -1.181813   -0.696286
      8          1           0       -2.702831   -1.064830   -0.403140
      9          1           0       -1.236756   -2.070012   -0.306368
     10          1           0       -1.795326   -1.161022    1.109255
     11          1           0       -0.846901    0.063275   -1.534258
     12          1           0       -1.700880    1.272847    0.987286
     13          1           0       -0.850276    2.076372   -0.145407
     14          1           0        0.480215   -1.025280    1.890503
     15          1           0        1.967553   -0.076800    1.661634
     16          1           0        0.443562    0.752513    1.984619
     17          1           0        1.262064    1.115201   -1.446977
     18          1           0        2.057704   -1.277388   -0.456103
 ---------------------------------------------------------------------

 SCF Done:  E(RHF) =  -362.220824447     A.U. after    8 cycles

 The electronic state is 1-A.
 Alpha  occ. eigenvalues --  -20.56703 -20.56524 -15.53627 -11.34001 -11.25654
 Alpha  occ. eigenvalues --  -11.22328 -11.21204  -1.41755  -1.33620  -1.18405
 Alpha  occ. eigenvalues --   -1.02248  -0.98129  -0.88087  -0.77956  -0.73464
 Alpha  occ. eigenvalues --   -0.66606  -0.66592  -0.63231  -0.62633  -0.58325
 Alpha  occ. eigenvalues --   -0.55449  -0.54815  -0.54374  -0.52006  -0.50233
 Alpha  occ. eigenvalues --   -0.49099  -0.48155  -0.46015  -0.38983
 Alpha virt. eigenvalues --    0.03200   0.04082   0.04493   0.04967   0.06291
 Alpha virt. eigenvalues --    0.06804   0.07096   0.07286   0.07586   0.09536
 Alpha virt. eigenvalues --    0.09816   0.10516   0.10855   0.12276   0.12935

 Mulliken charges:
               1
     1  C   -0.575086
     2  C    0.069667
     3  N   -0.721788
     4  C    0.472846
     5  C   -0.568825
     6  O   -0.621098
     7  O   -0.623346
     8  H    0.186811
     9  H    0.198609
    10  H    0.153009
    11  H    0.155217
    12  H    0.282347
    13  H    0.302565
    14  H    0.187315
    15  H    0.176899
    16  H    0.172705
    17  H    0.376758
    18  H    0.375395
 Sum of Mulliken charges =  -0.00000

 Dipole moment (field-independent basis, Debye):
    X=              1.2355    Y=             -0.4814    Z=              0.8575  Tot=              1.5791
 Quadrupole moment (field-independent basis, Debye-Ang):
   XX=            -46.0934   YY=            -46.9514   ZZ=            -41.2073
   XY=             -0.2531   XZ=             -2.1852   YZ=             -1.2507

 Normal termination of Gaussian 09 at Fri Aug 26 08:45:28 2022.
