 Gaussian 09, Revision E.01,
 Gaussian 09:  ES64L-G09RevE.01 30-Nov-2015

 -----
 #P G4
 -----

 ---------
 Frag_1004
 ---------
 Symbolic Z-matrix:
 Charge =  0 Multiplicity = 1

 SCF Done:  E(RB3LYP) =  -323.718877847     A.U. after   13 cycles
 SCF Done:  E(RB3LYP) =  -323.739754002     A.U. after   12 cycles
 SCF Done:  E(RB3LYP) =  -323.741513462     A.U. after   11 cycles
 SCF Done:  E(RB3LYP) =  -323.741795865     A.U. after   11 cycles
 SCF Done:  E(RB3LYP) =  -323.742201153     A.U. after   12 cycles
 SCF Done:  E(RB3LYP) =  -323.742421886     A.U. after   11 cycles
 SCF Done:  E(RB3LYP) =  -323.742577341     A.U. after   11 cycles
 SCF Done:  E(RB3LYP) =  -323.742590094     A.U. after   11 cycles
 SCF Done:  E(RB3LYP) =  -323.742609502     A.U. after    9 cycles
 SCF Done:  E(RB3LYP) =  -323.742618871     A.U. after   10 cycles
 SCF Done:  E(RB3LYP) =  -323.742639588     A.U. after    8 cycles
 SCF Done:  E(RB3LYP) =  -323.742638581     A.U. after    7 cycles
 SCF Done:  E(RB3LYP) =  -323.742640390     A.U. after    7 cycles
 Optimization completed.
    -- Stationary point found.
 Normal termination of Gaussian 09 at Fri Aug 26 06:54:28 2022.

 ----------------------------------------------------------
 #P Geom=AllCheck Guess=TCheck SCRF=Check B3LYP/GTBas3 Freq
 ----------------------------------------------------------

 Structure from the checkpoint file:  "G4.Frag_1004.chk"
 ---------
 Frag_1004
 ---------
 Charge =  0 Multiplicity = 1

 SCF Done:  E(RB3LYP) =  -323.742640390     A.U. after    1 cycles

  Exact polarizability:  54.640  -1.562  40.390   2.537  -4.363  46.160
 Approx polarizability:  74.731  -5.671  59.291   6.793  -9.940  69.638

                      1                      2                      3
                      A                      A                      A
 Frequencies --     54.0871               192.8643               236.5153
 Red. masses --      4.9666                 1.1474                 1.6808
 Frc consts  --      0.0086                 0.0251                 0.0554
 IR Inten    --      0.7328                95.3244                 4.0994

                      4                      5                      6
                      A                      A                      A
 Frequencies --    251.8279               286.4368               370.6921
 Red. masses --      1.7124                 2.9717                 3.4021
 Frc consts  --      0.0640                 0.1437                 0.2754
 IR Inten    --      3.6961                 1.4515                 7.8632

                      7                      8                      9
                      A                      A                      A
 Frequencies --    515.3435               576.8165               610.2614
 Red. masses --      3.1107                 1.1780                 3.1592
 Frc consts  --      0.4868                 0.2309                 0.6932
 IR Inten    --     11.7390                88.9028                34.3826

                     10                     11                     12
                      A                      A                      A
 Frequencies --    739.9112               806.3454               854.2152
 Red. masses --      5.0507                 2.6579                 1.1389
 Frc consts  --      1.6291                 1.0182                 0.4896
 IR Inten    --     43.5046                 6.1690                29.8404

                     13                     14                     15
                      A                      A                      A
 Frequencies --    919.5381              1032.7495              1090.2076
 Red. masses --      2.2646                 1.7345                 2.5316
 Frc consts  --      1.1282                 1.0900                 1.7728
 IR Inten    --     23.3790                33.4852                68.5693

                     16                     17                     18
                      A                      A                      A
 Frequencies --   1119.0663              1134.5343              1237.2480
 Red. masses --      1.5210                 2.6798                 1.2781
 Frc consts  --      1.1222                 2.0323                 1.1528
 IR Inten    --    115.9857               111.9869                65.3895

                     19                     20                     21
                      A                      A                      A
 Frequencies --   1278.1275              1358.0584              1397.7818
 Red. masses --      1.2075                 1.2276                 1.2699
 Frc consts  --      1.1622                 1.3340                 1.4619
 IR Inten    --     47.1972                13.3561                 4.9447

                     22                     23                     24
                      A                      A                      A
 Frequencies --   1413.0900              1453.8540              1488.1789
 Red. masses --      1.4737                 2.1056                 1.0442
 Frc consts  --      1.7339                 2.6222                 1.3626
 IR Inten    --     39.7704                20.0406                 3.6535

                     25                     26                     27
                      A                      A                      A
 Frequencies --   1505.9040              1748.5383              2979.7355
 Red. masses --      1.1929                 7.8917                 1.0836
 Frc consts  --      1.5938                14.2157                 5.6688
 IR Inten    --     12.9470               181.4896                50.7853

                     28                     29                     30
                      A                      A                      A
 Frequencies --   3033.6693              3102.1896              3137.7143
 Red. masses --      1.0380                 1.0987                 1.1015
 Frc consts  --      5.6285                 6.2296                 6.3892
 IR Inten    --     17.2611                22.3201                11.9624

                     31                     32                     33
                      A                      A                      A
 Frequencies --   3511.4440              3753.6591              3817.7745
 Red. masses --      1.0751                 1.0639                 1.0663
 Frc consts  --      7.8106                 8.8320                 9.1567
 IR Inten    --      1.3752                47.7112                17.5897

 - Thermochemistry -
 -------------------
 Temperature   298.150 Kelvin.  Pressure   1.00000 Atm.
 Atom     1 has atomic number  6 and mass  12.00000

 Molecular mass:    89.04768 amu.
 Principal axes and moments of inertia in atomic units:
                           1         2         3
     Eigenvalues --   350.39698 670.86876 687.48073
           X            0.99917   0.03944   0.00972
           Y           -0.03934   0.99918  -0.00969
           Z           -0.01009   0.00930   0.99991
 This molecule is an asymmetric top.
 Rotational symmetry number  1.
 Rotational temperatures (Kelvin)      0.24719     0.12911     0.12599
 Rotational constants (GHZ):           5.15056     2.69016     2.62515
 Zero-point vibrational energy     281172.5 (Joules/Mol)
                                   67.20185 (Kcal/Mol)
 Warning -- explicit consideration of   9 degrees of freedom as
           vibrations may cause significant error
 Vibrational temperatures:     77.82   277.49   340.29   362.32   412.12
          (Kelvin)            533.34   741.46   829.91   878.03  1064.57
                             1160.15  1229.02  1323.01  1485.89  1568.56
                             1610.08  1632.34  1780.12  1838.94  1953.94
                             2011.09  2033.12  2091.77  2141.15  2166.66
                             2515.75  4287.17  4364.77  4463.35  4514.47
                             5052.18  5400.67  5492.92

 Zero-point correction=                           0.107093 (Hartree/Particle)
 Thermal correction to Energy=                    0.114090
 Thermal correction to Enthalpy=                  0.115034
 Thermal correction to Gibbs Free Energy=         0.076233
 Sum of electronic and zero-point Energies=           -323.635547
 Sum of electronic and thermal Energies=              -323.628551
 Sum of electronic and thermal Enthalpies=            -323.627606
 Sum of electronic and thermal Free Energies=         -323.666408

                     E (Thermal)             CV                S
                      KCal/Mol        Cal/Mol-Kelvin    Cal/Mol-Kelvin
 Total                   71.592             24.394             81.664
 Electronic               0.000              0.000              0.000
 Translational            0.889              2.981             39.372
 Rotational               0.889              2.981             26.583
 Vibrational             69.815             18.432             15.709
 Vibration     1          0.596              1.976              4.662
 Vibration     2          0.635              1.850              2.200
 Vibration     3          0.655              1.785              1.829
 Vibration     4          0.664              1.760              1.718
 Vibration     5          0.684              1.699              1.495
 Vibration     6          0.743              1.532              1.077
 Vibration     7          0.870              1.216              0.621
 Vibration     8          0.933              1.081              0.491
 Vibration     9          0.969              1.010              0.432

 Normal termination of Gaussian 09 at Fri Aug 26 06:54:57 2022.

 -----------------------------------------------------------------
 #P Geom=AllCheck Guess=TCheck SCRF=Check CCSD(T,E4T,FrzG4)/GTBas1
 -----------------------------------------------------------------

 Structure from the checkpoint file:  "G4.Frag_1004.chk"
 ---------
 Frag_1004
 ---------
 Charge =  0 Multiplicity = 1

 SCF Done:  E(RHF) =  -321.829127166     A.U. after   13 cycles
 E2 =    -0.9049388273D+00 EUMP2 =    -0.32273406599294D+03
 CCSD(T)
 CCSD(T)= -0.32280385950D+03
 P4SDTQ=-322.8051814\MP4SDQ=-322.7764831\CCSD=-322.7761465\CCSD(T)=-322
 Normal termination of Gaussian 09 at Fri Aug 26 06:56:50 2022.

 ---------------------------------------------------------
 #P Geom=AllCheck Guess=TCheck SCRF=Check MP4=FrzG4/GTBas2
 ---------------------------------------------------------

 Structure from the checkpoint file:  "G4.Frag_1004.chk"
 ---------
 Frag_1004
 ---------
 Charge =  0 Multiplicity = 1

 SCF Done:  E(RHF) =  -321.840908177     A.U. after   12 cycles
 E2 =    -0.9202063788D+00 EUMP2 =    -0.32276111455579D+03
 Normal termination of Gaussian 09 at Fri Aug 26 06:57:24 2022.

 ---------------------------------------------------------
 #P Geom=AllCheck Guess=TCheck SCRF=Check MP4=FrzG4/GTBas3
 ---------------------------------------------------------

 Structure from the checkpoint file:  "G4.Frag_1004.chk"
 ---------
 Frag_1004
 ---------
 Charge =  0 Multiplicity = 1

 SCF Done:  E(RHF) =  -321.875099315     A.U. after   12 cycles
 E2 =    -0.1112706377D+01 EUMP2 =    -0.32298780569221D+03
 Normal termination of Gaussian 09 at Fri Aug 26 07:00:50 2022.

 -----------------------------------------------------------
 #P Geom=AllCheck Guess=TCheck SCRF=Check MP2=Full/GTLargeXP
 -----------------------------------------------------------

 Structure from the checkpoint file:  "G4.Frag_1004.chk"
 ---------
 Frag_1004
 ---------
 Charge =  0 Multiplicity = 1

 SCF Done:  E(RHF) =  -321.963791754     A.U. after   12 cycles
 E2 =    -0.1455935171D+01 EUMP2 =    -0.32341972692559D+03
 Normal termination of Gaussian 09 at Fri Aug 26 07:02:34 2022.
 SCF Done:  E(RHF) =  -321.989818400     A.U. after    9 cycles
 Normal termination of Gaussian 09 at Fri Aug 26 07:04:23 2022.

                         Standard orientation:
 ---------------------------------------------------------------------
 Center     Atomic      Atomic             Coordinates (Angstroms)
 Number     Number       Type             X           Y           Z
 ---------------------------------------------------------------------
      1          6           0        1.403442    1.047178    0.494480
      2          6           0        0.643111    0.123472   -0.461519
      3          8           0        1.163537   -1.197064   -0.448214
      4          6           0       -0.825740    0.030596   -0.077160
      5          7           0       -1.830824    0.429548   -0.739299
      6          8           0       -0.989501   -0.518909    1.142370
      7          1           0        1.346804    0.658919    1.513789
      8          1           0        2.455981    1.113633    0.195669
      9          1           0        0.986963    2.058990    0.476870
     10          1           0        0.680169    0.542067   -1.479293
     11          1           0        2.123473   -1.134935   -0.480843
     12          1           0       -1.550333    0.807221   -1.641862
     13          1           0       -1.944455   -0.532428    1.302705
 ---------------------------------------------------------------------

 SCF Done:  E(RHF) =  -321.995443851     A.U. after    8 cycles

 The electronic state is 1-A.
 Alpha  occ. eigenvalues --  -20.59278 -20.57103 -15.53994 -11.34295 -11.30928
 Alpha  occ. eigenvalues --  -11.23619  -1.42900  -1.37714  -1.19558  -1.04032
 Alpha  occ. eigenvalues --   -0.90651  -0.80698  -0.72818  -0.69747  -0.65817
 Alpha  occ. eigenvalues --   -0.63690  -0.59753  -0.58331  -0.55769  -0.55082
 Alpha  occ. eigenvalues --   -0.52161  -0.46353  -0.43591  -0.41132
 Alpha virt. eigenvalues --    0.03102   0.04201   0.04660   0.05260   0.07047
 Alpha virt. eigenvalues --    0.07193   0.07302   0.07642   0.08911   0.10260
 Alpha virt. eigenvalues --    0.12205   0.13157   0.14118   0.14365   0.15046

 Mulliken charges:
               1
     1  C   -0.551317
     2  C    0.148308
     3  O   -0.571672
     4  C    0.487771
     5  N   -0.722883
     6  O   -0.530628
     7  H    0.203604
     8  H    0.158944
     9  H    0.183366
    10  H    0.137674
    11  H    0.368884
    12  H    0.281556
    13  H    0.406392
 Sum of Mulliken charges =  -0.00000

 Dipole moment (field-independent basis, Debye):
    X=              2.5327    Y=              1.6179    Z=             -0.3562  Tot=              3.0264
 Quadrupole moment (field-independent basis, Debye-Ang):
   XX=            -34.2947   YY=            -39.0689   ZZ=            -34.7505
   XY=              1.7453   XZ=             -3.4701   YZ=             -1.3863

 Normal termination of Gaussian 09 at Fri Aug 26 07:10:59 2022.
