 Gaussian 09, Revision E.01,
 Gaussian 09:  ES64L-G09RevE.01 30-Nov-2015

 -----
 #P G4
 -----

 ---------
 Frag_1030
 ---------
 Symbolic Z-matrix:
 Charge =  0 Multiplicity = 1

 SCF Done:  E(RB3LYP) =  -375.592203098     A.U. after   14 cycles
 SCF Done:  E(RB3LYP) =  -375.609796972     A.U. after   13 cycles
 SCF Done:  E(RB3LYP) =  -375.610953213     A.U. after   11 cycles
 SCF Done:  E(RB3LYP) =  -375.611282835     A.U. after   11 cycles
 SCF Done:  E(RB3LYP) =  -375.611965505     A.U. after   12 cycles
 SCF Done:  E(RB3LYP) =  -375.613255319     A.U. after   12 cycles
 SCF Done:  E(RB3LYP) =  -375.564988074     A.U. after   14 cycles
 SCF Done:  E(RB3LYP) =  -375.613281379     A.U. after    8 cycles
 SCF Done:  E(RB3LYP) =  -375.617579066     A.U. after   14 cycles
 SCF Done:  E(RB3LYP) =  -375.617525199     A.U. after   12 cycles
 SCF Done:  E(RB3LYP) =  -375.623290408     A.U. after    8 cycles
 SCF Done:  E(RB3LYP) =  -375.623290760     A.U. after    8 cycles
 SCF Done:  E(RB3LYP) =  -375.623290783     A.U. after    7 cycles
 Optimization completed.
    -- Stationary point found.
 Normal termination of Gaussian 09 at Fri Aug 26 13:44:07 2022.

 ----------------------------------------------------------
 #P Geom=AllCheck Guess=TCheck SCRF=Check B3LYP/GTBas3 Freq
 ----------------------------------------------------------

 Structure from the checkpoint file:  "G4.Frag_1030.chk"
 ---------
 Frag_1030
 ---------
 Charge =  0 Multiplicity = 1

 SCF Done:  E(RB3LYP) =  -375.623290783     A.U. after    1 cycles

  Exact polarizability:  44.138   1.074  45.636  -2.542  -0.210  23.721
 Approx polarizability:  58.244  -1.340  74.578  -3.276   0.321  36.649

                      1                      2                      3
                      A                      A                      A
 Frequencies --     95.0581               244.3869               317.3669
 Red. masses --      6.6143                 1.1207                 4.7766
 Frc consts  --      0.0352                 0.0394                 0.2835
 IR Inten    --      2.6405                48.4578                 7.8741

                      4                      5                      6
                      A                      A                      A
 Frequencies --    324.9304               381.7105               433.0563
 Red. masses --      2.5625                 1.4414                 1.4384
 Frc consts  --      0.1594                 0.1237                 0.1589
 IR Inten    --     17.4080               126.9222               125.8698

                      7                      8                      9
                      A                      A                      A
 Frequencies --    494.1000               518.3998               575.2201
 Red. masses --      6.0252                 2.4065                 1.3347
 Frc consts  --      0.8667                 0.3810                 0.2602
 IR Inten    --     39.1533                21.4967                 4.2383

                     10                     11                     12
                      A                      A                      A
 Frequencies --    597.5675               747.2906               790.8134
 Red. masses --      4.0984                 4.5677                 9.9771
 Frc consts  --      0.8623                 1.5029                 3.6762
 IR Inten    --     19.2688                49.9450                29.5592

                     13                     14                     15
                      A                      A                      A
 Frequencies --    985.0057              1071.3218              1105.7412
 Red. masses --      9.0157                 8.9186                 1.9804
 Frc consts  --      5.1538                 6.0309                 1.4266
 IR Inten    --    119.8165                26.9497                 1.2017

                     16                     17                     18
                      A                      A                      A
 Frequencies --   1346.0795              1392.9057              1424.8453
 Red. masses --      2.3389                 1.3062                 1.1623
 Frc consts  --      2.4970                 1.4932                 1.3903
 IR Inten    --    149.8714                66.1129                79.2001

                     19                     20                     21
                      A                      A                      A
 Frequencies --   1588.9261              1854.2466              3610.0725
 Red. masses --      1.2417                10.7144                 1.0439
 Frc consts  --      1.8471                21.7048                 8.0160
 IR Inten    --    133.4346               318.3575                41.2197

                     22                     23                     24
                      A                      A                      A
 Frequencies --   3742.9466              3785.2018              3790.1729
 Red. masses --      1.1041                 1.0682                 1.0685
 Frc consts  --      9.1137                 9.0177                 9.0437
 IR Inten    --     67.0212                44.3526                54.2396

 - Thermochemistry -
 -------------------
 Temperature   298.150 Kelvin.  Pressure   1.00000 Atm.
 Atom     1 has atomic number  7 and mass  14.00307

 Molecular mass:    92.02219 amu.
 Principal axes and moments of inertia in atomic units:
                           1         2         3
     Eigenvalues --   337.23833 479.22002 787.69749
           X            0.99513   0.09610  -0.02189
           Y           -0.09624   0.99534  -0.00534
           Z            0.02128   0.00742   0.99975
 This molecule is an asymmetric top.
 Rotational symmetry number  1.
 Rotational temperatures (Kelvin)      0.25683     0.18074     0.10996
 Rotational constants (GHZ):           5.35153     3.76600     2.29116
 Zero-point vibrational energy     186721.3 (Joules/Mol)
                                   44.62746 (Kcal/Mol)
 Warning -- explicit consideration of  10 degrees of freedom as
           vibrations may cause significant error
 Vibrational temperatures:    136.77   351.62   456.62   467.50   549.20
          (Kelvin)            623.07   710.90   745.86   827.61   859.77
                             1075.18  1137.80  1417.20  1541.39  1590.91
                             1936.71  2004.08  2050.03  2286.11  2667.84
                             5194.08  5385.26  5446.05  5453.21

 Zero-point correction=                           0.071118 (Hartree/Particle)
 Thermal correction to Energy=                    0.077655
 Thermal correction to Enthalpy=                  0.078599
 Thermal correction to Gibbs Free Energy=         0.041238
 Sum of electronic and zero-point Energies=           -375.552172
 Sum of electronic and thermal Energies=              -375.545636
 Sum of electronic and thermal Enthalpies=            -375.544692
 Sum of electronic and thermal Free Energies=         -375.582053

                     E (Thermal)             CV                S
                      KCal/Mol        Cal/Mol-Kelvin    Cal/Mol-Kelvin
 Total                   48.729             23.244             78.632
 Electronic               0.000              0.000              0.000
 Translational            0.889              2.981             39.470
 Rotational               0.889              2.981             26.346
 Vibrational             46.952             17.282             12.817
 Vibration     1          0.603              1.953              3.553
 Vibration     2          0.660              1.772              1.771
 Vibration     3          0.704              1.640              1.324
 Vibration     4          0.709              1.626              1.285
 Vibration     5          0.751              1.509              1.032
 Vibration     6          0.794              1.398              0.849
 Vibration     7          0.850              1.263              0.673
 Vibration     8          0.873              1.209              0.614
 Vibration     9          0.932              1.085              0.494
 Vibration    10          0.955              1.037              0.454

 Optimization completed.
    -- Stationary point found.
 Normal termination of Gaussian 09 at Fri Aug 26 13:44:29 2022.

 -----------------------------------------------------------------
 #P Geom=AllCheck Guess=TCheck SCRF=Check CCSD(T,E4T,FrzG4)/GTBas1
 -----------------------------------------------------------------

 Structure from the checkpoint file:  "G4.Frag_1030.chk"
 ---------
 Frag_1030
 ---------
 Charge =  0 Multiplicity = 1

 SCF Done:  E(RHF) =  -373.569350008     A.U. after   14 cycles
 E2 =    -0.9877837112D+00 EUMP2 =    -0.37455713371951D+03
 CCSD(T)
 CCSD(T)= -0.37461223173D+03
 Normal termination of Gaussian 09 at Fri Aug 26 13:46:09 2022.

 ---------------------------------------------------------
 #P Geom=AllCheck Guess=TCheck SCRF=Check MP4=FrzG4/GTBas2
 ---------------------------------------------------------

 Structure from the checkpoint file:  "G4.Frag_1030.chk"
 ---------
 Frag_1030
 ---------
 Charge =  0 Multiplicity = 1

 SCF Done:  E(RHF) =  -373.583299541     A.U. after   12 cycles
 E2 =    -0.1006488518D+01 EUMP2 =    -0.37458978805909D+03
 Normal termination of Gaussian 09 at Fri Aug 26 13:46:42 2022.

 ---------------------------------------------------------
 #P Geom=AllCheck Guess=TCheck SCRF=Check MP4=FrzG4/GTBas3
 ---------------------------------------------------------

 Structure from the checkpoint file:  "G4.Frag_1030.chk"
 ---------
 Frag_1030
 ---------
 Charge =  0 Multiplicity = 1

 SCF Done:  E(RHF) =  -373.618330003     A.U. after   12 cycles
 E2 =    -0.1204078020D+01 EUMP2 =    -0.37482240802253D+03
 Normal termination of Gaussian 09 at Fri Aug 26 13:49:01 2022.

 -----------------------------------------------------------
 #P Geom=AllCheck Guess=TCheck SCRF=Check MP2=Full/GTLargeXP
 -----------------------------------------------------------

 Structure from the checkpoint file:  "G4.Frag_1030.chk"
 ---------
 Frag_1030
 ---------
 Charge =  0 Multiplicity = 1

 SCF Done:  E(RHF) =  -373.727518898     A.U. after   12 cycles
 E2 =    -0.1564119541D+01 EUMP2 =    -0.37529163843876D+03
 Normal termination of Gaussian 09 at Fri Aug 26 13:50:18 2022.
 SCF Done:  E(RHF) =  -373.758611395     A.U. after    9 cycles
 Normal termination of Gaussian 09 at Fri Aug 26 13:51:32 2022.

                         Standard orientation:
 ---------------------------------------------------------------------
 Center     Atomic      Atomic             Coordinates (Angstroms)
 Number     Number       Type             X           Y           Z
 ---------------------------------------------------------------------
      1          7           0        1.468887    0.948186   -0.031942
      2          6           0        0.755989   -0.208133    0.053591
      3          8           0        1.208615   -1.324439    0.021174
      4          7           0       -0.646890    0.006330    0.360240
      5          8           0       -1.072634    1.269278   -0.128993
      6          8           0       -1.411251   -0.979414   -0.280121
      7          1           0        2.434579    0.845496   -0.294297
      8          1           0        0.985868    1.801892   -0.252929
      9          1           0       -1.630231    1.603923    0.583838
     10          1           0       -1.877974   -1.407517    0.447271
 ---------------------------------------------------------------------

 SCF Done:  E(RHF) =  -373.765172676     A.U. after    8 cycles

 The electronic state is 1-A.
 Alpha  occ. eigenvalues --  -20.62823 -20.61554 -20.52993 -15.70200 -15.59114
 Alpha  occ. eigenvalues --  -11.38999  -1.50163  -1.39881  -1.37535  -1.22798
 Alpha  occ. eigenvalues --   -1.08053  -0.82135  -0.76394  -0.75453  -0.73687
 Alpha  occ. eigenvalues --   -0.68009  -0.63738  -0.62476  -0.58776  -0.55956
 Alpha  occ. eigenvalues --   -0.51578  -0.46339  -0.43235  -0.42962
 Alpha virt. eigenvalues --    0.03613   0.04292   0.05895   0.06141   0.08104
 Alpha virt. eigenvalues --    0.08656   0.09353   0.10842   0.11475   0.11866
 Alpha virt. eigenvalues --    0.14067   0.14381   0.15805   0.16118   0.16669

 Mulliken charges:
               1
     1  N   -0.701708
     2  C    0.680791
     3  O   -0.608940
     4  N    0.062175
     5  O   -0.490975
     6  O   -0.460924
     7  H    0.358642
     8  H    0.354971
     9  H    0.404980
    10  H    0.400987
 Sum of Mulliken charges =  -0.00000

 Dipole moment (field-independent basis, Debye):
    X=             -1.3934    Y=              3.5618    Z=              1.4394  Tot=              4.0866
 Quadrupole moment (field-independent basis, Debye-Ang):
   XX=            -28.1390   YY=            -33.5513   ZZ=            -35.1117
   XY=              5.4260   XZ=             -6.1633   YZ=             -0.8516

 Normal termination of Gaussian 09 at Fri Aug 26 13:56:36 2022.
