 Gaussian 09, Revision E.01,
 Gaussian 09:  ES64L-G09RevE.01 30-Nov-2015

 -----
 #P G4
 -----

 --------
 Frag_965
 --------
 Symbolic Z-matrix:
 Charge =  0 Multiplicity = 1

 SCF Done:  E(RB3LYP) =  -265.756096141     A.U. after   13 cycles
 SCF Done:  E(RB3LYP) =  -265.761077869     A.U. after   11 cycles
 SCF Done:  E(RB3LYP) =  -265.761510386     A.U. after   10 cycles
 SCF Done:  E(RB3LYP) =  -265.761585108     A.U. after    9 cycles
 SCF Done:  E(RB3LYP) =  -265.761599441     A.U. after    9 cycles
 SCF Done:  E(RB3LYP) =  -265.761608427     A.U. after    9 cycles
 SCF Done:  E(RB3LYP) =  -265.761610979     A.U. after    7 cycles
 SCF Done:  E(RB3LYP) =  -265.761611020     A.U. after    6 cycles
 Optimization completed.
    -- Stationary point found.
 Normal termination of Gaussian 09 at Fri Aug 26 06:48:50 2022.

 ----------------------------------------------------------
 #P Geom=AllCheck Guess=TCheck SCRF=Check B3LYP/GTBas3 Freq
 ----------------------------------------------------------

 Structure from the checkpoint file:  "G4.Frag_965.chk"
 --------
 Frag_965
 --------
 Charge =  0 Multiplicity = 1

 SCF Done:  E(RB3LYP) =  -265.761611020     A.U. after    1 cycles

  Exact polarizability:  48.044   0.067  41.628   0.771  -0.949  38.849
 Approx polarizability:  58.994  -0.013  56.847   0.524  -0.477  57.308

                      1                      2                      3
                      A                      A                      A
 Frequencies --    124.7343               190.5159               243.1974
 Red. masses --      1.7305                 1.4502                 1.0817
 Frc consts  --      0.0159                 0.0310                 0.0377
 IR Inten    --      1.8966                 1.8536                32.5767

                      4                      5                      6
                      A                      A                      A
 Frequencies --    282.2011               299.4896               427.0901
 Red. masses --      1.2476                 2.1392                 2.5935
 Frc consts  --      0.0585                 0.1130                 0.2787
 IR Inten    --     32.3217                16.4739                30.4139

                      7                      8                      9
                      A                      A                      A
 Frequencies --    523.1488               571.5688               857.3336
 Red. masses --      3.3091                 2.5438                 2.2240
 Frc consts  --      0.5336                 0.4896                 0.9631
 IR Inten    --      4.4378                17.4885                66.5589

                     10                     11                     12
                      A                      A                      A
 Frequencies --    878.6226               929.9818              1017.2042
 Red. masses --      1.8014                 1.9457                 1.7953
 Frc consts  --      0.8193                 0.9915                 1.0945
 IR Inten    --    128.3639               166.6039                77.7732

                     13                     14                     15
                      A                      A                      A
 Frequencies --   1103.3826              1147.7010              1176.0813
 Red. masses --      5.1073                 1.7761                 1.5202
 Frc consts  --      3.6634                 1.3784                 1.2388
 IR Inten    --    100.8669                31.9384                55.3975

                     16                     17                     18
                      A                      A                      A
 Frequencies --   1192.5063              1225.4280              1328.3312
 Red. masses --      1.4873                 1.6533                 1.6428
 Frc consts  --      1.2462                 1.4628                 1.7079
 IR Inten    --     72.8567                36.4393                13.6379

                     19                     20                     21
                      A                      A                      A
 Frequencies --   1390.8578              1430.5954              1476.5430
 Red. masses --      1.2008                 1.2777                 1.1544
 Frc consts  --      1.3686                 1.5407                 1.4828
 IR Inten    --     31.8565                26.6451                 5.1238

                     22                     23                     24
                      A                      A                      A
 Frequencies --   1482.7520              1516.1563              1639.4258
 Red. masses --      1.0610                 1.0567                 1.1033
 Frc consts  --      1.3743                 1.4312                 1.7472
 IR Inten    --      3.6039                 4.4460                32.4679

                     25                     26                     27
                      A                      A                      A
 Frequencies --   1658.7820              2971.9010              2986.3913
 Red. masses --      1.1023                 1.0815                 1.0488
 Frc consts  --      1.7871                 5.6277                 5.5109
 IR Inten    --     30.0333                39.2084                77.2415

                     28                     29                     30
                      A                      A                      A
 Frequencies --   3065.9272              3118.8638              3466.5765
 Red. masses --      1.0869                 1.1024                 1.0490
 Frc consts  --      6.0194                 6.3181                 7.4272
 IR Inten    --     38.9251                27.7640                 0.0630

                     31                     32                     33
                      A                      A                      A
 Frequencies --   3477.6409              3546.7357              3568.5738
 Red. masses --      1.0500                 1.0910                 1.0905
 Frc consts  --      7.4822                 8.0860                 8.1820
 IR Inten    --      0.4266                 0.2099                 1.5547

 - Thermochemistry -
 -------------------
 Temperature   298.150 Kelvin.  Pressure   1.00000 Atm.
 Atom     1 has atomic number  6 and mass  12.00000

 Molecular mass:    76.06366 amu.
 Principal axes and moments of inertia in atomic units:
                           1         2         3
     Eigenvalues --   216.24814 457.29375 608.38831
           X            0.99983   0.00676   0.01719
           Y           -0.00646   0.99982  -0.01771
           Z           -0.01731   0.01760   0.99970
 This molecule is an asymmetric top.
 Rotational symmetry number  1.
 Rotational temperatures (Kelvin)      0.40053     0.18941     0.14237
 Rotational constants (GHZ):           8.34570     3.94657     2.96643
 Zero-point vibrational energy     300958.0 (Joules/Mol)
                                   71.93068 (Kcal/Mol)
 Warning -- explicit consideration of   8 degrees of freedom as
           vibrations may cause significant error
 Vibrational temperatures:    179.46   274.11   349.91   406.02   430.90
          (Kelvin)            614.49   752.69   822.36  1233.51  1264.14
                             1338.03  1463.53  1587.52  1651.28  1692.12
                             1715.75  1763.12  1911.17  2001.13  2058.31
                             2124.41  2133.35  2181.41  2358.77  2386.61
                             4275.90  4296.75  4411.18  4487.34  4987.62
                             5003.54  5102.96  5134.38

 Zero-point correction=                           0.114629 (Hartree/Particle)
 Thermal correction to Energy=                    0.121099
 Thermal correction to Enthalpy=                  0.122043
 Thermal correction to Gibbs Free Energy=         0.085306
 Sum of electronic and zero-point Energies=           -265.646982
 Sum of electronic and thermal Energies=              -265.640512
 Sum of electronic and thermal Enthalpies=            -265.639568
 Sum of electronic and thermal Free Energies=         -265.676305

                     E (Thermal)             CV                S
                      KCal/Mol        Cal/Mol-Kelvin    Cal/Mol-Kelvin
 Total                   75.990             22.309             77.318
 Electronic               0.000              0.000              0.000
 Translational            0.889              2.981             38.903
 Rotational               0.889              2.981             25.601
 Vibrational             74.213             16.347             12.815
 Vibration     1          0.610              1.928              3.026
 Vibration     2          0.634              1.853              2.223
 Vibration     3          0.659              1.774              1.779
 Vibration     4          0.681              1.707              1.520
 Vibration     5          0.692              1.675              1.420
 Vibration     6          0.789              1.411              0.868
 Vibration     7          0.878              1.199              0.603
 Vibration     8          0.928              1.093              0.501

 Normal termination of Gaussian 09 at Fri Aug 26 06:49:13 2022.

 -----------------------------------------------------------------
 #P Geom=AllCheck Guess=TCheck SCRF=Check CCSD(T,E4T,FrzG4)/GTBas1
 -----------------------------------------------------------------

 Structure from the checkpoint file:  "G4.Frag_965.chk"
 --------
 Frag_965
 --------
 Charge =  0 Multiplicity = 1

 SCF Done:  E(RHF) =  -264.128550411     A.U. after   12 cycles
 E2 =    -0.7671059465D+00 EUMP2 =    -0.26489565635774D+03
 CCSD(T)
 CCSD(T)= -0.26496244125D+03
 4SDTQ=-264.9620436\MP4SDQ=-264.9409321\CCSD=-264.9415169\CCSD(T)=-264.
 Normal termination of Gaussian 09 at Fri Aug 26 06:50:14 2022.

 ---------------------------------------------------------
 #P Geom=AllCheck Guess=TCheck SCRF=Check MP4=FrzG4/GTBas2
 ---------------------------------------------------------

 Structure from the checkpoint file:  "G4.Frag_965.chk"
 --------
 Frag_965
 --------
 Charge =  0 Multiplicity = 1

 SCF Done:  E(RHF) =  -264.138809713     A.U. after   11 cycles
 E2 =    -0.7807096744D+00 EUMP2 =    -0.26491951938719D+03
 Normal termination of Gaussian 09 at Fri Aug 26 06:50:32 2022.

 ---------------------------------------------------------
 #P Geom=AllCheck Guess=TCheck SCRF=Check MP4=FrzG4/GTBas3
 ---------------------------------------------------------

 Structure from the checkpoint file:  "G4.Frag_965.chk"
 --------
 Frag_965
 --------
 Charge =  0 Multiplicity = 1

 SCF Done:  E(RHF) =  -264.166269191     A.U. after   11 cycles
 E2 =    -0.9510576232D+00 EUMP2 =    -0.26511732681417D+03
 Normal termination of Gaussian 09 at Fri Aug 26 06:52:17 2022.

 -----------------------------------------------------------
 #P Geom=AllCheck Guess=TCheck SCRF=Check MP2=Full/GTLargeXP
 -----------------------------------------------------------

 Structure from the checkpoint file:  "G4.Frag_965.chk"
 --------
 Frag_965
 --------
 Charge =  0 Multiplicity = 1

 SCF Done:  E(RHF) =  -264.239124261     A.U. after   11 cycles
 E2 =    -0.1238676340D+01 EUMP2 =    -0.26547780060125D+03
 Normal termination of Gaussian 09 at Fri Aug 26 06:53:14 2022.
 SCF Done:  E(RHF) =  -264.259946985     A.U. after    8 cycles
 Normal termination of Gaussian 09 at Fri Aug 26 06:54:20 2022.

                         Standard orientation:
 ---------------------------------------------------------------------
 Center     Atomic      Atomic             Coordinates (Angstroms)
 Number     Number       Type             X           Y           Z
 ---------------------------------------------------------------------
      1          6           0        1.919407   -0.067698    0.071936
      2          8           0        0.665844   -0.583245   -0.338523
      3          6           0       -0.445077   -0.005839    0.321292
      4          7           0       -0.556668    1.389404   -0.063563
      5          7           0       -1.633318   -0.775588    0.027741
      6          1           0        2.008151    1.003820   -0.138291
      7          1           0        2.081804   -0.223956    1.149969
      8          1           0        2.685645   -0.616320   -0.481140
      9          1           0       -0.285897   -0.040493    1.411962
     10          1           0       -1.373552    1.792409    0.386026
     11          1           0       -0.714331    1.439754   -1.068050
     12          1           0       -1.486707   -1.738769    0.321727
     13          1           0       -1.757948   -0.805976   -0.982635
 ---------------------------------------------------------------------

 SCF Done:  E(RHF) =  -264.264629344     A.U. after    8 cycles

 The electronic state is 1-A.
 Alpha  occ. eigenvalues --  -20.55335 -15.54410 -15.54373 -11.33464 -11.26441
 Alpha  occ. eigenvalues --   -1.38671  -1.20814  -1.13461  -0.93320  -0.83815
 Alpha  occ. eigenvalues --   -0.71089  -0.67081  -0.65729  -0.62664  -0.60633
 Alpha  occ. eigenvalues --   -0.57507  -0.53464  -0.48538  -0.44085  -0.42416
 Alpha  occ. eigenvalues --   -0.41251
 Alpha virt. eigenvalues --    0.04238   0.04638   0.04929   0.05512   0.07278
 Alpha virt. eigenvalues --    0.07581   0.08301   0.09959   0.10242   0.12062
 Alpha virt. eigenvalues --    0.12347   0.12876   0.13381   0.14889   0.16695

 Mulliken charges:
               1
     1  C   -0.356704
     2  O   -0.354999
     3  C    0.252348
     4  N   -0.688988
     5  N   -0.658488
     6  H    0.193415
     7  H    0.144058
     8  H    0.177092
     9  H    0.144917
    10  H    0.303828
    11  H    0.279993
    12  H    0.284439
    13  H    0.279088
 Sum of Mulliken charges =  -0.00000

 Dipole moment (field-independent basis, Debye):
    X=              0.0204    Y=             -0.1076    Z=             -0.0825  Tot=              0.1371
 Quadrupole moment (field-independent basis, Debye-Ang):
   XX=            -31.9098   YY=            -31.7207   ZZ=            -29.6515
   XY=             -0.9643   XZ=              2.2658   YZ=             -1.2555

 Normal termination of Gaussian 09 at Fri Aug 26 06:58:50 2022.
