 Gaussian 09, Revision E.01,
 Gaussian 09:  ES64L-G09RevE.01 30-Nov-2015

 -----
 #P G4
 -----

 --------
 Frag_537
 --------
 Symbolic Z-matrix:
 Charge =  0 Multiplicity = 1

 SCF Done:  E(RB3LYP) =  -284.355109823     A.U. after   14 cycles
 SCF Done:  E(RB3LYP) =  -284.377705797     A.U. after   12 cycles
 SCF Done:  E(RB3LYP) =  -284.381225928     A.U. after   12 cycles
 SCF Done:  E(RB3LYP) =  -284.381812477     A.U. after   11 cycles
 SCF Done:  E(RB3LYP) =  -284.382121986     A.U. after   10 cycles
 SCF Done:  E(RB3LYP) =  -284.382186734     A.U. after    9 cycles
 SCF Done:  E(RB3LYP) =  -284.382200170     A.U. after    9 cycles
 SCF Done:  E(RB3LYP) =  -284.382204017     A.U. after    8 cycles
 SCF Done:  E(RB3LYP) =  -284.382204810     A.U. after    7 cycles
 Optimization completed.
    -- Stationary point found.
 Normal termination of Gaussian 09 at Wed Aug 24 15:19:49 2022.

 ----------------------------------------------------------
 #P Geom=AllCheck Guess=TCheck SCRF=Check B3LYP/GTBas3 Freq
 ----------------------------------------------------------

 Structure from the checkpoint file:  "G4.Frag_537.chk"
 --------
 Frag_537
 --------
 Charge =  0 Multiplicity = 1

 SCF Done:  E(RB3LYP) =  -284.382204810     A.U. after    1 cycles

  Exact polarizability:  54.253  -4.486  36.598   0.001  -0.001  24.893
 Approx polarizability:  76.555 -10.560  56.403   0.000   0.000  36.356

                      1                      2                      3
                      A                      A                      A
 Frequencies --    194.1216               283.9862               288.4926
 Red. masses --      1.1847                 2.7995                 5.1656
 Frc consts  --      0.0263                 0.1330                 0.2533
 IR Inten    --      0.0148                 6.1805                 4.2134

                      4                      5                      6
                      A                      A                      A
 Frequencies --    344.6745               378.6295               397.3964
 Red. masses --      1.2112                 1.0813                 2.8355
 Frc consts  --      0.0848                 0.0913                 0.2638
 IR Inten    --     82.0160               125.4760                 3.5229

                      7                      8                      9
                      A                      A                      A
 Frequencies --    614.6950               626.5124               899.0691
 Red. masses --      4.3188                 4.8114                 5.6475
 Frc consts  --      0.9615                 1.1127                 2.6896
 IR Inten    --      1.3043                14.2897                16.8275

                     10                     11                     12
                      A                      A                      A
 Frequencies --    965.8736              1050.8728              1065.5227
 Red. masses --      3.0208                 2.0713                 1.5047
 Frc consts  --      1.6604                 1.3477                 1.0065
 IR Inten    --     70.9921                66.1160                 1.3724

                     13                     14                     15
                      A                      A                      A
 Frequencies --   1225.9659              1325.0242              1402.2741
 Red. masses --      1.3648                 2.5925                 1.2211
 Frc consts  --      1.2086                 2.6817                 1.4147
 IR Inten    --     74.7157               231.4724                19.8237

                     16                     17                     18
                      A                      A                      A
 Frequencies --   1442.8841              1480.3740              1482.2284
 Red. masses --      1.5836                 1.0428                 1.0535
 Frc consts  --      1.9425                 1.3465                 1.3636
 IR Inten    --     30.7249                 7.1148                 2.1930

                     19                     20                     21
                      A                      A                      A
 Frequencies --   1783.6809              3023.3918              3074.0672
 Red. masses --      6.4968                 1.0403                 1.1000
 Frc consts  --     12.1782                 5.6025                 6.1244
 IR Inten    --     58.5904                24.0248                16.5800

                     22                     23                     24
                      A                      A                      A
 Frequencies --   3158.5199              3825.6918              3833.4460
 Red. masses --      1.0963                 1.0677                 1.0665
 Frc consts  --      6.4441                 9.2070                 9.2340
 IR Inten    --      3.9344                87.6721                35.7268

 - Thermochemistry -
 -------------------
 Temperature   298.150 Kelvin.  Pressure   1.00000 Atm.
 Atom     1 has atomic number  6 and mass  12.00000

 Molecular mass:    75.03203 amu.
 Principal axes and moments of inertia in atomic units:
                           1         2         3
     Eigenvalues --   178.79021 436.62848 604.11913
           X            0.99998   0.00673   0.00001
           Y           -0.00673   0.99998  -0.00002
           Z           -0.00001   0.00002   1.00000
 This molecule is an asymmetric top.
 Rotational symmetry number  1.
 Rotational temperatures (Kelvin)      0.48444     0.19837     0.14337
 Rotational constants (GHZ):          10.09418     4.13336     2.98739
 Zero-point vibrational energy     204366.4 (Joules/Mol)
                                   48.84474 (Kcal/Mol)
 Warning -- explicit consideration of   7 degrees of freedom as
           vibrations may cause significant error
 Vibrational temperatures:    279.30   408.59   415.08   495.91   544.76
          (Kelvin)            571.76   884.41   901.41  1293.56  1389.67
                             1511.97  1533.05  1763.89  1906.41  2017.56
                             2075.99  2129.93  2132.59  2566.32  4349.98
                             4422.89  4544.40  5504.31  5515.47

 Zero-point correction=                           0.077839 (Hartree/Particle)
 Thermal correction to Energy=                    0.083631
 Thermal correction to Enthalpy=                  0.084575
 Thermal correction to Gibbs Free Energy=         0.049435
 Sum of electronic and zero-point Energies=           -284.304366
 Sum of electronic and thermal Energies=              -284.298574
 Sum of electronic and thermal Enthalpies=            -284.297630
 Sum of electronic and thermal Free Energies=         -284.332770

                     E (Thermal)             CV                S
                      KCal/Mol        Cal/Mol-Kelvin    Cal/Mol-Kelvin
 Total                   52.479             20.024             73.959
 Electronic               0.000              0.000              0.000
 Translational            0.889              2.981             38.862
 Rotational               0.889              2.981             25.359
 Vibrational             50.702             14.062              9.738
 Vibration     1          0.635              1.848              2.188
 Vibration     2          0.682              1.703              1.510
 Vibration     3          0.685              1.695              1.483
 Vibration     4          0.723              1.586              1.190
 Vibration     5          0.749              1.516              1.045
 Vibration     6          0.764              1.476              0.972
 Vibration     7          0.974              1.001              0.425

 Optimization completed.
    -- Stationary point found.
 Normal termination of Gaussian 09 at Wed Aug 24 15:20:49 2022.

 -----------------------------------------------------------------
 #P Geom=AllCheck Guess=TCheck SCRF=Check CCSD(T,E4T,FrzG4)/GTBas1
 -----------------------------------------------------------------

 Structure from the checkpoint file:  "G4.Frag_537.chk"
 --------
 Frag_537
 --------
 Charge =  0 Multiplicity = 1

 SCF Done:  E(RHF) =  -282.741682372     A.U. after   13 cycles
 E2 =    -0.7791595315D+00 EUMP2 =    -0.28352084190311D+03
 CCSD(T)
 CCSD(T)= -0.28357728426D+03
 Normal termination of Gaussian 09 at Wed Aug 24 15:22:21 2022.

 ---------------------------------------------------------
 #P Geom=AllCheck Guess=TCheck SCRF=Check MP4=FrzG4/GTBas2
 ---------------------------------------------------------

 Structure from the checkpoint file:  "G4.Frag_537.chk"
 --------
 Frag_537
 --------
 Charge =  0 Multiplicity = 1

 SCF Done:  E(RHF) =  -282.752296084     A.U. after   12 cycles
 E2 =    -0.7924400659D+00 EUMP2 =    -0.28354473615024D+03
 Normal termination of Gaussian 09 at Wed Aug 24 15:23:49 2022.

 ---------------------------------------------------------
 #P Geom=AllCheck Guess=TCheck SCRF=Check MP4=FrzG4/GTBas3
 ---------------------------------------------------------

 Structure from the checkpoint file:  "G4.Frag_537.chk"
 --------
 Frag_537
 --------
 Charge =  0 Multiplicity = 1

 SCF Done:  E(RHF) =  -282.781055429     A.U. after   12 cycles
 E2 =    -0.9531162744D+00 EUMP2 =    -0.28373417170310D+03
 Normal termination of Gaussian 09 at Wed Aug 24 15:55:33 2022.

 -----------------------------------------------------------
 #P Geom=AllCheck Guess=TCheck SCRF=Check MP2=Full/GTLargeXP
 -----------------------------------------------------------

 Structure from the checkpoint file:  "G4.Frag_537.chk"
 --------
 Frag_537
 --------
 Charge =  0 Multiplicity = 1

 SCF Done:  E(RHF) =  -282.860433363     A.U. after   12 cycles
 E2 =    -0.1244211517D+01 EUMP2 =    -0.28410464488063D+03
 Normal termination of Gaussian 09 at Wed Aug 24 15:57:37 2022.
 SCF Done:  E(RHF) =  -282.884275000     A.U. after    9 cycles
 Normal termination of Gaussian 09 at Wed Aug 24 16:00:08 2022.

                         Standard orientation:
 ---------------------------------------------------------------------
 Center     Atomic      Atomic             Coordinates (Angstroms)
 Number     Number       Type             X           Y           Z
 ---------------------------------------------------------------------
      1          6           0       -1.727999   -0.620929   -0.000041
      2          6           0       -0.361765   -0.008664    0.000128
      3          8           0       -0.262832    1.344248    0.000106
      4          7           0        0.661728   -0.769567    0.000081
      5          8           0        1.859325   -0.031620   -0.000095
      6          1           0       -1.645118   -1.707375   -0.000197
      7          1           0       -2.295257   -0.309651   -0.886017
      8          1           0       -2.295337   -0.309740    0.885883
      9          1           0       -1.146900    1.724389   -0.000733
     10          1           0        2.517147   -0.734114   -0.000117
 ---------------------------------------------------------------------

 SCF Done:  E(RHF) =  -282.889297486     A.U. after    8 cycles

 The electronic state is 1-A.
 Alpha  occ. eigenvalues --  -20.60521 -20.58146 -15.59862 -11.33861 -11.25039
 Alpha  occ. eigenvalues --   -1.44164  -1.39087  -1.14834  -0.99776  -0.80596
 Alpha  occ. eigenvalues --   -0.72757  -0.67574  -0.64782  -0.64352  -0.57329
 Alpha  occ. eigenvalues --   -0.57039  -0.54452  -0.54149  -0.44544  -0.37009
 Alpha virt. eigenvalues --    0.03225   0.04773   0.05583   0.05615   0.07438
 Alpha virt. eigenvalues --    0.07763   0.08208   0.11204   0.11802   0.12327
 Alpha virt. eigenvalues --    0.14073   0.14948   0.15972   0.16705   0.16954

 Mulliken charges:
               1
     1  C   -0.539503
     2  C    0.422764
     3  O   -0.520558
     4  N   -0.282525
     5  O   -0.477049
     6  H    0.219695
     7  H    0.197105
     8  H    0.197166
     9  H    0.386007
    10  H    0.396899
 Sum of Mulliken charges =  -0.00000

 Dipole moment (field-independent basis, Debye):
    X=             -3.0049    Y=             -0.1045    Z=             -0.0015  Tot=              3.0067
 Quadrupole moment (field-independent basis, Debye-Ang):
   XX=            -22.3248   YY=            -29.8754   ZZ=            -30.5669
   XY=             -4.9857   XZ=              0.0018   YZ=             -0.0023

 Normal termination of Gaussian 09 at Wed Aug 24 17:10:53 2022.
