 Gaussian 09, Revision E.01,
 Gaussian 09:  ES64L-G09RevE.01 30-Nov-2015

 -----
 #P G4
 -----

 --------
 Frag_824
 --------
 Symbolic Z-matrix:
 Charge =  0 Multiplicity = 1

 SCF Done:  E(RB3LYP) =  -284.409268729     A.U. after   13 cycles
 SCF Done:  E(RB3LYP) =  -284.432249435     A.U. after   12 cycles
 SCF Done:  E(RB3LYP) =  -284.434290405     A.U. after   11 cycles
 SCF Done:  E(RB3LYP) =  -284.434406117     A.U. after   10 cycles
 SCF Done:  E(RB3LYP) =  -284.434413805     A.U. after    8 cycles
 SCF Done:  E(RB3LYP) =  -284.434414434     A.U. after    7 cycles
 Optimization completed.
    -- Stationary point found.
 Normal termination of Gaussian 09 at Fri Aug 26 06:25:28 2022.

 ----------------------------------------------------------
 #P Geom=AllCheck Guess=TCheck SCRF=Check B3LYP/GTBas3 Freq
 ----------------------------------------------------------

 Structure from the checkpoint file:  "G4.Frag_824.chk"
 --------
 Frag_824
 --------
 Charge =  0 Multiplicity = 1

 SCF Done:  E(RB3LYP) =  -284.434414434     A.U. after    1 cycles

  Exact polarizability:  42.554  -1.572  41.385   0.000  -0.000  24.590
 Approx polarizability:  53.840  -0.816  66.219   0.000  -0.000  35.312

                      1                      2                      3
                      A                      A                      A
 Frequencies --    142.1865               175.6415               305.5910
 Red. masses --      1.6128                 1.7330                 3.2992
 Frc consts  --      0.0192                 0.0315                 0.1815
 IR Inten    --      6.0133                 7.5895                13.9656

                      4                      5                      6
                      A                      A                      A
 Frequencies --    430.8680               502.0845               624.1042
 Red. masses --      1.1087                 3.5762                 4.1787
 Frc consts  --      0.1213                 0.5312                 0.9590
 IR Inten    --    125.5426                11.7574                 8.4543

                      7                      8                      9
                      A                      A                      A
 Frequencies --    737.2584               819.5672               906.1173
 Red. masses --      7.8980                 1.1813                 4.1621
 Frc consts  --      2.5293                 0.4675                 2.0134
 IR Inten    --      6.9831                52.4420                69.3708

                     10                     11                     12
                      A                      A                      A
 Frequencies --   1082.3930              1111.1287              1185.2248
 Red. masses --      3.2994                 2.3772                 1.2731
 Frc consts  --      2.2775                 1.7292                 1.0537
 IR Inten    --     24.3037               150.3765                 0.6691

                     13                     14                     15
                      A                      A                      A
 Frequencies --   1220.0475              1239.4862              1397.8423
 Red. masses --      1.5130                 1.3782                 2.3566
 Frc consts  --      1.3269                 1.2476                 2.7130
 IR Inten    --     16.7434                17.9971               413.1468

                     16                     17                     18
                      A                      A                      A
 Frequencies --   1476.8811              1482.8564              1502.6950
 Red. masses --      1.0464                 1.3191                 1.0834
 Frc consts  --      1.3447                 1.7089                 1.4414
 IR Inten    --      6.4461                89.1870                16.6755

                     19                     20                     21
                      A                      A                      A
 Frequencies --   1794.3364              3052.3072              3129.5814
 Red. masses --      6.7527                 1.0289                 1.1058
 Frc consts  --     12.8096                 5.6479                 6.3810
 IR Inten    --    291.5989                27.4487                17.7661

                     22                     23                     24
                      A                      A                      A
 Frequencies --   3155.0721              3536.1899              3788.9519
 Red. masses --      1.1067                 1.0748                 1.0648
 Frc consts  --      6.4906                 7.9183                 9.0066
 IR Inten    --     17.1327                 8.7312                59.6177

 - Thermochemistry -
 -------------------
 Temperature   298.150 Kelvin.  Pressure   1.00000 Atm.
 Atom     1 has atomic number  6 and mass  12.00000

 Molecular mass:    75.03203 amu.
 Principal axes and moments of inertia in atomic units:
                           1         2         3
     Eigenvalues --   175.41653 407.83830 571.90626
           X            1.00000  -0.00122  -0.00000
           Y            0.00122   1.00000  -0.00000
           Z            0.00000   0.00000   1.00000
 This molecule is an asymmetric top.
 Rotational symmetry number  1.
 Rotational temperatures (Kelvin)      0.49376     0.21237     0.15145
 Rotational constants (GHZ):          10.28832     4.42514     3.15566
 Zero-point vibrational energy     208140.7 (Joules/Mol)
                                   49.74683 (Kcal/Mol)
 Warning -- explicit consideration of   5 degrees of freedom as
           vibrations may cause significant error
 Vibrational temperatures:    204.57   252.71   439.68   619.92   722.39
          (Kelvin)            897.95  1060.75  1179.17  1303.70  1557.32
                             1598.66  1705.27  1755.37  1783.34  2011.18
                             2124.90  2133.50  2162.04  2581.65  4391.58
                             4502.76  4539.44  5087.78  5451.45

 Zero-point correction=                           0.079277 (Hartree/Particle)
 Thermal correction to Energy=                    0.084776
 Thermal correction to Enthalpy=                  0.085721
 Thermal correction to Gibbs Free Energy=         0.050832
 Sum of electronic and zero-point Energies=           -284.355138
 Sum of electronic and thermal Energies=              -284.349638
 Sum of electronic and thermal Enthalpies=            -284.348694
 Sum of electronic and thermal Free Energies=         -284.383582

                     E (Thermal)             CV                S
                      KCal/Mol        Cal/Mol-Kelvin    Cal/Mol-Kelvin
 Total                   53.198             18.429             73.429
 Electronic               0.000              0.000              0.000
 Translational            0.889              2.981             38.862
 Rotational               0.889              2.981             25.218
 Vibrational             51.421             12.468              9.349
 Vibration     1          0.616              1.911              2.774
 Vibration     2          0.628              1.872              2.374
 Vibration     3          0.696              1.663              1.386
 Vibration     4          0.792              1.403              0.856
 Vibration     5          0.857              1.245              0.653

 Optimization completed.
    -- Stationary point found.
 Normal termination of Gaussian 09 at Fri Aug 26 06:25:46 2022.

 -----------------------------------------------------------------
 #P Geom=AllCheck Guess=TCheck SCRF=Check CCSD(T,E4T,FrzG4)/GTBas1
 -----------------------------------------------------------------

 Structure from the checkpoint file:  "G4.Frag_824.chk"
 --------
 Frag_824
 --------
 Charge =  0 Multiplicity = 1

 SCF Done:  E(RHF) =  -282.807861852     A.U. after   12 cycles
 E2 =    -0.7684160640D+00 EUMP2 =    -0.28357627791559D+03
 CCSD(T)
 CCSD(T)= -0.28362977216D+03
 Normal termination of Gaussian 09 at Fri Aug 26 06:26:34 2022.

 ---------------------------------------------------------
 #P Geom=AllCheck Guess=TCheck SCRF=Check MP4=FrzG4/GTBas2
 ---------------------------------------------------------

 Structure from the checkpoint file:  "G4.Frag_824.chk"
 --------
 Frag_824
 --------
 Charge =  0 Multiplicity = 1

 SCF Done:  E(RHF) =  -282.817251115     A.U. after   12 cycles
 E2 =    -0.7807086715D+00 EUMP2 =    -0.28359795978683D+03
 Normal termination of Gaussian 09 at Fri Aug 26 06:26:49 2022.

 ---------------------------------------------------------
 #P Geom=AllCheck Guess=TCheck SCRF=Check MP4=FrzG4/GTBas3
 ---------------------------------------------------------

 Structure from the checkpoint file:  "G4.Frag_824.chk"
 --------
 Frag_824
 --------
 Charge =  0 Multiplicity = 1

 SCF Done:  E(RHF) =  -282.845229339     A.U. after   11 cycles
 E2 =    -0.9445783009D+00 EUMP2 =    -0.28378980763947D+03
 Normal termination of Gaussian 09 at Fri Aug 26 06:27:57 2022.

 -----------------------------------------------------------
 #P Geom=AllCheck Guess=TCheck SCRF=Check MP2=Full/GTLargeXP
 -----------------------------------------------------------

 Structure from the checkpoint file:  "G4.Frag_824.chk"
 --------
 Frag_824
 --------
 Charge =  0 Multiplicity = 1

 SCF Done:  E(RHF) =  -282.924457268     A.U. after   11 cycles
 E2 =    -0.1233892320D+01 EUMP2 =    -0.28415834958795D+03
 Normal termination of Gaussian 09 at Fri Aug 26 06:28:34 2022.
 SCF Done:  E(RHF) =  -282.947260265     A.U. after    8 cycles
 Normal termination of Gaussian 09 at Fri Aug 26 06:29:17 2022.

                         Standard orientation:
 ---------------------------------------------------------------------
 Center     Atomic      Atomic             Coordinates (Angstroms)
 Number     Number       Type             X           Y           Z
 ---------------------------------------------------------------------
      1          6           0        1.838019   -0.033871   -0.000005
      2          8           0        0.570049   -0.695195    0.000004
      3          6           0       -0.509020    0.108496    0.000017
      4          7           0       -0.446237    1.369728   -0.000001
      5          8           0       -1.639092   -0.630405   -0.000007
      6          1           0        1.941536    0.594679    0.887859
      7          1           0        2.585163   -0.828317   -0.000000
      8          1           0        1.941534    0.594664   -0.887879
      9          1           0       -1.380939    1.770324   -0.000015
     10          1           0       -1.385287   -1.562399   -0.000005
 ---------------------------------------------------------------------

 SCF Done:  E(RHF) =  -282.952199829     A.U. after    8 cycles

 The electronic state is 1-A.
 Alpha  occ. eigenvalues --  -20.61038 -20.60753 -15.52808 -11.39679 -11.28711
 Alpha  occ. eigenvalues --   -1.48408  -1.39127  -1.19248  -0.97399  -0.81738
 Alpha  occ. eigenvalues --   -0.77090  -0.70733  -0.68548  -0.63256  -0.59701
 Alpha  occ. eigenvalues --   -0.58250  -0.53324  -0.49534  -0.45586  -0.40454
 Alpha virt. eigenvalues --    0.03903   0.04384   0.05386   0.05510   0.06910
 Alpha virt. eigenvalues --    0.07819   0.07872   0.11012   0.12321   0.13183
 Alpha virt. eigenvalues --    0.14232   0.14678   0.15371   0.16203   0.16901

 Mulliken charges:
               1
     1  C   -0.342771
     2  O   -0.340520
     3  C    0.654239
     4  N   -0.722699
     5  O   -0.552425
     6  H    0.199265
     7  H    0.190208
     8  H    0.199264
     9  H    0.307415
    10  H    0.408024
 Sum of Mulliken charges =  -0.00000

 Dipole moment (field-independent basis, Debye):
    X=              0.7959    Y=             -1.8536    Z=              0.0000  Tot=              2.0172
 Quadrupole moment (field-independent basis, Debye-Ang):
   XX=            -26.6179   YY=            -29.5132   ZZ=            -30.3641
   XY=             -0.0715   XZ=             -0.0000   YZ=             -0.0000

 Normal termination of Gaussian 09 at Fri Aug 26 06:34:04 2022.
