 Gaussian 09, Revision E.01,
 Gaussian 09:  ES64L-G09RevE.01 30-Nov-2015

 -----
 #P G4
 -----

 --------
 Frag_674
 --------
 Symbolic Z-matrix:
 Charge =  0 Multiplicity = 1

 SCF Done:  E(RB3LYP) =  -307.675967031     A.U. after   14 cycles
 SCF Done:  E(RB3LYP) =  -307.681195550     A.U. after   12 cycles
 SCF Done:  E(RB3LYP) =  -307.683326887     A.U. after   12 cycles
 SCF Done:  E(RB3LYP) =  -307.684845113     A.U. after   12 cycles
 SCF Done:  E(RB3LYP) =  -307.685107816     A.U. after   11 cycles
 SCF Done:  E(RB3LYP) =  -307.685177757     A.U. after   10 cycles
 SCF Done:  E(RB3LYP) =  -307.685238279     A.U. after   11 cycles
 SCF Done:  E(RB3LYP) =  -307.685289916     A.U. after   11 cycles
 SCF Done:  E(RB3LYP) =  -307.685357641     A.U. after   11 cycles
 SCF Done:  E(RB3LYP) =  -307.685387804     A.U. after   11 cycles
 SCF Done:  E(RB3LYP) =  -307.685390849     A.U. after    8 cycles
 SCF Done:  E(RB3LYP) =  -307.685390931     A.U. after    7 cycles
 Optimization completed.
    -- Stationary point found.
 Normal termination of Gaussian 09 at Fri Aug 26 05:53:09 2022.

 ----------------------------------------------------------
 #P Geom=AllCheck Guess=TCheck SCRF=Check B3LYP/GTBas3 Freq
 ----------------------------------------------------------

 Structure from the checkpoint file:  "G4.Frag_674.chk"
 --------
 Frag_674
 --------
 Charge =  0 Multiplicity = 1

 SCF Done:  E(RB3LYP) =  -307.685390931     A.U. after    1 cycles

  Exact polarizability:  62.894  -1.350  43.132   3.614  -0.952  48.149
 Approx polarizability:  88.372  -0.739  60.217  10.203  -0.681  72.327

                      1                      2                      3
                      A                      A                      A
 Frequencies --     99.8680               190.2536               229.7773
 Red. masses --      2.2912                 1.2044                 1.0986
 Frc consts  --      0.0135                 0.0257                 0.0342
 IR Inten    --      4.3813                22.9915                12.3333

                      4                      5                      6
                      A                      A                      A
 Frequencies --    282.2854               325.2102               375.8920
 Red. masses --      3.1372                 1.7992                 2.5594
 Frc consts  --      0.1473                 0.1121                 0.2131
 IR Inten    --      1.2213                 2.1528                11.9518

                      7                      8                      9
                      A                      A                      A
 Frequencies --    396.2701               454.1217               507.9720
 Red. masses --      1.1173                 2.3610                 4.8746
 Frc consts  --      0.1034                 0.2869                 0.7411
 IR Inten    --    132.7787                 8.0078                22.3517

                     10                     11                     12
                      A                      A                      A
 Frequencies --    585.3505               717.2287               758.1013
 Red. masses --      3.1369                 1.8465                 3.5707
 Frc consts  --      0.6333                 0.5596                 1.2091
 IR Inten    --      8.8335                14.1347                 1.2074

                     13                     14                     15
                      A                      A                      A
 Frequencies --    933.1321               948.1851               973.1188
 Red. masses --      2.3135                 1.9180                 1.3752
 Frc consts  --      1.1869                 1.0160                 0.7673
 IR Inten    --     62.4095                24.9642                26.0420

                     16                     17                     18
                      A                      A                      A
 Frequencies --   1036.9741              1044.9758              1050.4171
 Red. masses --      1.3199                 1.9438                 1.1950
 Frc consts  --      0.8362                 1.2506                 0.7769
 IR Inten    --      4.8993                89.9986                 4.0081

                     19                     20                     21
                      A                      A                      A
 Frequencies --   1157.6766              1226.6841              1263.9108
 Red. masses --      2.2967                 1.9122                 1.6406
 Frc consts  --      1.8136                 1.6953                 1.5442
 IR Inten    --     36.8311               141.8366                83.3767

                     22                     23                     24
                      A                      A                      A
 Frequencies --   1312.9489              1389.3532              1432.6155
 Red. masses --      1.2875                 1.2386                 1.3284
 Frc consts  --      1.3077                 1.4086                 1.6064
 IR Inten    --      2.9439                15.6261                 8.3438

                     25                     26                     27
                      A                      A                      A
 Frequencies --   1450.1394              1483.7228              1486.1452
 Red. masses --      1.4851                 1.0810                 1.0583
 Frc consts  --      1.8400                 1.4021                 1.3772
 IR Inten    --     51.8062                 1.9867                 2.8474

                     28                     29                     30
                      A                      A                      A
 Frequencies --   1710.2294              3058.8610              3138.9191
 Red. masses --      5.1397                 1.0338                 1.1019
 Frc consts  --      8.8572                 5.6991                 6.3967
 IR Inten    --      0.9262                 9.4934                12.3306

                     31                     32                     33
                      A                      A                      A
 Frequencies --   3145.3044              3147.7509              3158.9132
 Red. masses --      1.0769                 1.0929                 1.0833
 Frc consts  --      6.2768                 6.3801                 6.3691
 IR Inten    --      3.0666                20.2059                 5.4565

                     34                     35                     36
                      A                      A                      A
 Frequencies --   3236.5912              3798.0034              3799.0843
 Red. masses --      1.1150                 1.0663                 1.0655
 Frc consts  --      6.8815                 9.0627                 9.0605
 IR Inten    --      7.6621                 9.1101                14.4996

 - Thermochemistry -
 -------------------
 Temperature   298.150 Kelvin.  Pressure   1.00000 Atm.
 Atom     1 has atomic number  6 and mass  12.00000

 Molecular mass:    88.05243 amu.
 Principal axes and moments of inertia in atomic units:
                           1         2         3
     Eigenvalues --   365.58639 640.55953 650.72349
           X            0.99880  -0.01368  -0.04712
           Y            0.04899   0.22301   0.97358
           Z            0.00281   0.97472  -0.22342
 This molecule is an asymmetric top.
 Rotational symmetry number  1.
 Rotational temperatures (Kelvin)      0.23692     0.13522     0.13310
 Rotational constants (GHZ):           4.93657     2.81744     2.77344
 Zero-point vibrational energy     306877.9 (Joules/Mol)
                                   73.34559 (Kcal/Mol)
 Warning -- explicit consideration of  10 degrees of freedom as
           vibrations may cause significant error
 Vibrational temperatures:    143.69   273.73   330.60   406.15   467.90
          (Kelvin)            540.82   570.14   653.38   730.86   842.19
                             1031.93  1090.74  1342.57  1364.23  1400.10
                             1491.97  1503.49  1511.31  1665.64  1764.92
                             1818.48  1889.04  1998.97  2061.21  2086.42
                             2134.74  2138.23  2460.64  4401.01  4516.20
                             4525.39  4528.91  4544.97  4656.73  5464.47
                             5466.03

 Zero-point correction=                           0.116884 (Hartree/Particle)
 Thermal correction to Energy=                    0.124184
 Thermal correction to Enthalpy=                  0.125128
 Thermal correction to Gibbs Free Energy=         0.086410
 Sum of electronic and zero-point Energies=           -307.568507
 Sum of electronic and thermal Energies=              -307.561207
 Sum of electronic and thermal Enthalpies=            -307.560263
 Sum of electronic and thermal Free Energies=         -307.598981

                     E (Thermal)             CV                S
                      KCal/Mol        Cal/Mol-Kelvin    Cal/Mol-Kelvin
 Total                   77.926             26.571             81.489
 Electronic               0.000              0.000              0.000
 Translational            0.889              2.981             39.339
 Rotational               0.889              2.981             26.524
 Vibrational             76.149             20.609             15.626
 Vibration     1          0.604              1.949              3.457
 Vibration     2          0.634              1.853              2.225
 Vibration     3          0.652              1.796              1.881
 Vibration     4          0.681              1.706              1.520
 Vibration     5          0.709              1.625              1.284
 Vibration     6          0.747              1.521              1.056
 Vibration     7          0.763              1.478              0.976
 Vibration     8          0.813              1.352              0.783
 Vibration     9          0.863              1.232              0.638
 Vibration    10          0.942              1.063              0.476

 Normal termination of Gaussian 09 at Fri Aug 26 05:53:41 2022.

 -----------------------------------------------------------------
 #P Geom=AllCheck Guess=TCheck SCRF=Check CCSD(T,E4T,FrzG4)/GTBas1
 -----------------------------------------------------------------

 Structure from the checkpoint file:  "G4.Frag_674.chk"
 --------
 Frag_674
 --------
 Charge =  0 Multiplicity = 1

 SCF Done:  E(RHF) =  -305.818038913     A.U. after   12 cycles
 E2 =    -0.8738708930D+00 EUMP2 =    -0.30669190980547D+03
 CCSD(T)
 CCSD(T)= -0.30676866342D+03
 =-306.7409368\CCSD=-306.7414136\CCSD(T)=-306.7686634\RMSD=6.094e-09\PG
 Normal termination of Gaussian 09 at Fri Aug 26 05:55:37 2022.

 ---------------------------------------------------------
 #P Geom=AllCheck Guess=TCheck SCRF=Check MP4=FrzG4/GTBas2
 ---------------------------------------------------------

 Structure from the checkpoint file:  "G4.Frag_674.chk"
 --------
 Frag_674
 --------
 Charge =  0 Multiplicity = 1

 SCF Done:  E(RHF) =  -305.829446590     A.U. after   12 cycles
 E2 =    -0.8880995284D+00 EUMP2 =    -0.30671754611794D+03
 Normal termination of Gaussian 09 at Fri Aug 26 05:56:19 2022.

 ---------------------------------------------------------
 #P Geom=AllCheck Guess=TCheck SCRF=Check MP4=FrzG4/GTBas3
 ---------------------------------------------------------

 Structure from the checkpoint file:  "G4.Frag_674.chk"
 --------
 Frag_674
 --------
 Charge =  0 Multiplicity = 1

 SCF Done:  E(RHF) =  -305.860664272     A.U. after   11 cycles
 E2 =    -0.1081264597D+01 EUMP2 =    -0.30694192886874D+03
 Normal termination of Gaussian 09 at Fri Aug 26 05:59:42 2022.

 -----------------------------------------------------------
 #P Geom=AllCheck Guess=TCheck SCRF=Check MP2=Full/GTLargeXP
 -----------------------------------------------------------

 Structure from the checkpoint file:  "G4.Frag_674.chk"
 --------
 Frag_674
 --------
 Charge =  0 Multiplicity = 1

 SCF Done:  E(RHF) =  -305.943227867     A.U. after   12 cycles
 E2 =    -0.1419123423D+01 EUMP2 =    -0.30736235129052D+03
 Normal termination of Gaussian 09 at Fri Aug 26 06:01:41 2022.
 SCF Done:  E(RHF) =  -305.968117763     A.U. after    8 cycles
 Normal termination of Gaussian 09 at Fri Aug 26 06:03:29 2022.

                         Standard orientation:
 ---------------------------------------------------------------------
 Center     Atomic      Atomic             Coordinates (Angstroms)
 Number     Number       Type             X           Y           Z
 ---------------------------------------------------------------------
      1          6           0        2.143462    0.169551    0.005205
      2          6           0        0.980943    0.205027   -0.636230
      3          6           0       -0.373976   -0.040254   -0.001460
      4          6           0       -1.229546    1.222569    0.040594
      5          8           0       -0.261565   -0.482856    1.334138
      6          8           0       -1.087110   -0.978514   -0.798256
      7          1           0        3.083972    0.336048   -0.508811
      8          1           0        2.189807   -0.007355    1.074777
      9          1           0        0.940740    0.413040   -1.703791
     10          1           0       -2.225400    0.961089    0.406370
     11          1           0       -1.320834    1.652335   -0.959138
     12          1           0       -0.779549    1.956357    0.711746
     13          1           0        0.243607   -1.303873    1.331518
     14          1           0       -0.468250   -1.658038   -1.088374
 ---------------------------------------------------------------------

 SCF Done:  E(RHF) =  -305.973504756     A.U. after    8 cycles

 The electronic state is 1-A.
 Alpha  occ. eigenvalues --  -20.56480 -20.56260 -11.34727 -11.24351 -11.23925
 Alpha  occ. eigenvalues --  -11.21422  -1.41292  -1.33609  -1.06996  -0.99878
 Alpha  occ. eigenvalues --   -0.85564  -0.78265  -0.72314  -0.69440  -0.63753
 Alpha  occ. eigenvalues --   -0.63034  -0.56299  -0.54489  -0.54357  -0.53527
 Alpha  occ. eigenvalues --   -0.51907  -0.47870  -0.46092  -0.38591
 Alpha virt. eigenvalues --    0.03369   0.04259   0.04735   0.04913   0.06640
 Alpha virt. eigenvalues --    0.07139   0.07236   0.07341   0.07626   0.09615
 Alpha virt. eigenvalues --    0.09981   0.10501   0.11784   0.13815   0.14444

 Mulliken charges:
               1
     1  C   -0.442253
     2  C   -0.279184
     3  C    0.564422
     4  C   -0.541962
     5  O   -0.606719
     6  O   -0.591762
     7  H    0.201554
     8  H    0.206986
     9  H    0.222802
    10  H    0.191811
    11  H    0.172485
    12  H    0.182664
    13  H    0.356463
    14  H    0.362693
 Sum of Mulliken charges =  -0.00000

 Dipole moment (field-independent basis, Debye):
    X=              2.2883    Y=             -0.5480    Z=             -0.9130  Tot=              2.5239
 Quadrupole moment (field-independent basis, Debye-Ang):
   XX=            -38.0610   YY=            -34.3234   ZZ=            -38.3054
   XY=             -2.9489   XZ=              0.0275   YZ=             -0.7602

 Normal termination of Gaussian 09 at Fri Aug 26 06:10:52 2022.
