 Gaussian 09, Revision E.01,
 Gaussian 09:  ES64L-G09RevE.01 30-Nov-2015

 -----
 #P G4
 -----

 --------
 Frag_975
 --------
 Symbolic Z-matrix:
 Charge =  0 Multiplicity = 1

 SCF Done:  E(RB3LYP) =  -169.894134831     A.U. after   13 cycles
 SCF Done:  E(RB3LYP) =  -169.905762002     A.U. after   12 cycles
 SCF Done:  E(RB3LYP) =  -169.906050544     A.U. after    9 cycles
 SCF Done:  E(RB3LYP) =  -169.906066278     A.U. after    8 cycles
 SCF Done:  E(RB3LYP) =  -169.906060140     A.U. after    8 cycles
 SCF Done:  E(RB3LYP) =  -169.906067298     A.U. after    8 cycles
 Optimization completed.
    -- Stationary point found.
 Normal termination of Gaussian 09 at Tue Aug 23 16:09:15 2022.

 ----------------------------------------------------------
 #P Geom=AllCheck Guess=TCheck SCRF=Check B3LYP/GTBas3 Freq
 ----------------------------------------------------------

 Structure from the checkpoint file:  "G4.Frag_975.chk"
 --------
 Frag_975
 --------
 Charge =  0 Multiplicity = 1

 SCF Done:  E(RB3LYP) =  -169.906067298     A.U. after    1 cycles

  Exact polarizability:  29.243  -0.379  23.014  -0.000   0.000  12.448
 Approx polarizability:  47.580  -3.993  31.830   0.000   0.000  17.630

                      1                      2                      3
                      A                      A                      A
 Frequencies --    147.1013               563.3534               647.9984
 Red. masses --      1.2271                 2.3922                 1.2053
 Frc consts  --      0.0156                 0.4473                 0.2982
 IR Inten    --    202.1479                10.8575                14.7027

                      4                      5                      6
                      A                      A                      A
 Frequencies --   1051.9475              1054.5232              1270.9300
 Red. masses --      1.7846                 1.5478                 2.8482
 Frc consts  --      1.1636                 1.0141                 2.7106
 IR Inten    --      2.9486                 0.2012                95.9230

                      7                      8                      9
                      A                      A                      A
 Frequencies --   1431.1153              1614.6884              1834.3256
 Red. masses --      1.2069                 1.2290                 7.6817
 Frc consts  --      1.4563                 1.8879                15.2287
 IR Inten    --      4.0813                62.9010               341.3101

                     10                     11                     12
                      A                      A                      A
 Frequencies --   2927.9970              3595.7686              3736.6092
 Red. masses --      1.0846                 1.0451                 1.1042
 Frc consts  --      5.4782                 7.9617                 9.0836
 IR Inten    --    102.9988                31.6704                37.0764

 - Thermochemistry -
 -------------------
 Temperature   298.150 Kelvin.  Pressure   1.00000 Atm.
 Atom     1 has atomic number  7 and mass  14.00307

 Molecular mass:    45.02146 amu.
 Principal axes and moments of inertia in atomic units:
                           1         2         3
     Eigenvalues --    24.44328 159.03243 183.47571
           X            0.99982   0.01890  -0.00000
           Y           -0.01890   0.99982   0.00000
           Z            0.00000  -0.00000   1.00000
 This molecule is an asymmetric top.
 Rotational symmetry number  1.
 Rotational temperatures (Kelvin)      3.54346     0.54463     0.47207
 Rotational constants (GHZ):          73.83383    11.34826     9.83640
 Zero-point vibrational energy     118887.0 (Joules/Mol)
                                   28.41468 (Kcal/Mol)
 Warning -- explicit consideration of   2 degrees of freedom as
           vibrations may cause significant error
 Vibrational temperatures:    211.65   810.54   932.32  1513.52  1517.22
          (Kelvin)           1828.58  2059.05  2323.17  2639.18  4212.73
                             5173.50  5376.14

 Zero-point correction=                           0.045282 (Hartree/Particle)
 Thermal correction to Energy=                    0.049163
 Thermal correction to Enthalpy=                  0.050107
 Thermal correction to Gibbs Free Energy=         0.020486
 Sum of electronic and zero-point Energies=           -169.860786
 Sum of electronic and thermal Energies=              -169.856905
 Sum of electronic and thermal Enthalpies=            -169.855961
 Sum of electronic and thermal Free Energies=         -169.885581

                     E (Thermal)             CV                S
                      KCal/Mol        Cal/Mol-Kelvin    Cal/Mol-Kelvin
 Total                   30.850             10.885             62.342
 Electronic               0.000              0.000              0.000
 Translational            0.889              2.981             37.339
 Rotational               0.889              2.981             21.194
 Vibrational             29.073              4.924              3.808
 Vibration     1          0.617              1.906              2.709
 Vibration     2          0.919              1.111              0.517

 Optimization completed.
    -- Stationary point found.
 Normal termination of Gaussian 09 at Tue Aug 23 16:09:24 2022.

 -----------------------------------------------------------------
 #P Geom=AllCheck Guess=TCheck SCRF=Check CCSD(T,E4T,FrzG4)/GTBas1
 -----------------------------------------------------------------

 Structure from the checkpoint file:  "G4.Frag_975.chk"
 --------
 Frag_975
 --------
 Charge =  0 Multiplicity = 1

 SCF Done:  E(RHF) =  -168.929436988     A.U. after   13 cycles
 E2 =    -0.4646092700D+00 EUMP2 =    -0.16939404625765D+03
 CCSD(T)
 CCSD(T)= -0.16942485459D+03
 169.411691\CCSD=-169.4105637\CCSD(T)=-169.4248546\RMSD=2.717e-09\PG=C0
 Normal termination of Gaussian 09 at Tue Aug 23 16:09:32 2022.

 ---------------------------------------------------------
 #P Geom=AllCheck Guess=TCheck SCRF=Check MP4=FrzG4/GTBas2
 ---------------------------------------------------------

 Structure from the checkpoint file:  "G4.Frag_975.chk"
 --------
 Frag_975
 --------
 Charge =  0 Multiplicity = 1

 SCF Done:  E(RHF) =  -168.937419392     A.U. after   12 cycles
 E2 =    -0.4723035035D+00 EUMP2 =    -0.16940972289502D+03
 Normal termination of Gaussian 09 at Tue Aug 23 16:09:35 2022.

 ---------------------------------------------------------
 #P Geom=AllCheck Guess=TCheck SCRF=Check MP4=FrzG4/GTBas3
 ---------------------------------------------------------

 Structure from the checkpoint file:  "G4.Frag_975.chk"
 --------
 Frag_975
 --------
 Charge =  0 Multiplicity = 1

 SCF Done:  E(RHF) =  -168.951233566     A.U. after   11 cycles
 E2 =    -0.5667010844D+00 EUMP2 =    -0.16951793465085D+03
 Normal termination of Gaussian 09 at Tue Aug 23 16:09:48 2022.

 -----------------------------------------------------------
 #P Geom=AllCheck Guess=TCheck SCRF=Check MP2=Full/GTLargeXP
 -----------------------------------------------------------

 Structure from the checkpoint file:  "G4.Frag_975.chk"
 --------
 Frag_975
 --------
 Charge =  0 Multiplicity = 1

 SCF Done:  E(RHF) =  -169.001550196     A.U. after   11 cycles
 E2 =    -0.7407187727D+00 EUMP2 =    -0.16974226896916D+03
 Normal termination of Gaussian 09 at Tue Aug 23 16:10:01 2022.
 SCF Done:  E(RHF) =  -169.015142408     A.U. after   10 cycles
 Normal termination of Gaussian 09 at Tue Aug 23 16:10:29 2022.

                         Standard orientation:
 ---------------------------------------------------------------------
 Center     Atomic      Atomic             Coordinates (Angstroms)
 Number     Number       Type             X           Y           Z
 ---------------------------------------------------------------------
      1          7           0       -1.083110   -0.157616   -0.000010
      2          6           0        0.163689    0.385411   -0.000007
      3          8           0        1.195600   -0.244884    0.000004
      4          1           0       -1.183520   -1.160196    0.000019
      5          1           0       -1.908360    0.415919    0.000047
      6          1           0        0.126718    1.494188    0.000011
 ---------------------------------------------------------------------

 SCF Done:  E(RHF) =  -169.018022180     A.U. after    8 cycles

 The electronic state is 1-A.
 Alpha  occ. eigenvalues --  -20.52850 -15.59441 -11.35679  -1.38868  -1.22051
 Alpha  occ. eigenvalues --   -0.85195  -0.75199  -0.67490  -0.61181  -0.57398
 Alpha  occ. eigenvalues --   -0.43844  -0.42414
 Alpha virt. eigenvalues --    0.03506   0.04776   0.05893   0.07152   0.09118
 Alpha virt. eigenvalues --    0.09636   0.11015   0.15067   0.15079   0.17388
 Alpha virt. eigenvalues --    0.17932   0.18904   0.19005   0.21824   0.23990

 Mulliken charges:
               1
     1  N   -0.643607
     2  C    0.401780
     3  O   -0.592289
     4  H    0.350965
     5  H    0.331945
     6  H    0.151206
 Sum of Mulliken charges =  -0.00000

 Dipole moment (field-independent basis, Debye):
    X=             -4.0742    Y=              1.1858    Z=              0.0001  Tot=              4.2432
 Quadrupole moment (field-independent basis, Debye-Ang):
   XX=            -18.4879   YY=            -14.9851   ZZ=            -19.0017
   XY=              1.2922   XZ=             -0.0003   YZ=              0.0000

 Normal termination of Gaussian 09 at Tue Aug 23 16:23:22 2022.
