 Gaussian 09, Revision E.01,
 Gaussian 09:  ES64L-G09RevE.01 30-Nov-2015

 -----
 #P G4
 -----

 --------
 Frag_444
 --------
 Symbolic Z-matrix:
 Charge =  0 Multiplicity = 1

 SCF Done:  E(RB3LYP) =  -286.608835607     A.U. after   14 cycles
 SCF Done:  E(RB3LYP) =  -286.621109638     A.U. after   13 cycles
 SCF Done:  E(RB3LYP) =  -286.622109693     A.U. after   12 cycles
 SCF Done:  E(RB3LYP) =  -286.622258126     A.U. after   11 cycles
 SCF Done:  E(RB3LYP) =  -286.622280656     A.U. after   11 cycles
 SCF Done:  E(RB3LYP) =  -286.622333096     A.U. after   10 cycles
 SCF Done:  E(RB3LYP) =  -286.622376967     A.U. after   11 cycles
 SCF Done:  E(RB3LYP) =  -286.622412127     A.U. after   11 cycles
 SCF Done:  E(RB3LYP) =  -286.622419206     A.U. after   10 cycles
 SCF Done:  E(RB3LYP) =  -286.622420995     A.U. after    9 cycles
 SCF Done:  E(RB3LYP) =  -286.622421705     A.U. after    6 cycles
 SCF Done:  E(RB3LYP) =  -286.622421768     A.U. after    6 cycles
 SCF Done:  E(RB3LYP) =  -286.622421800     A.U. after    7 cycles
 Optimization completed.
    -- Stationary point found.
 Normal termination of Gaussian 09 at Fri Aug 26 07:13:17 2022.

 ----------------------------------------------------------
 #P Geom=AllCheck Guess=TCheck SCRF=Check B3LYP/GTBas3 Freq
 ----------------------------------------------------------

 Structure from the checkpoint file:  "G4.Frag_444.chk"
 --------
 Frag_444
 --------
 Charge =  0 Multiplicity = 1

 SCF Done:  E(RB3LYP) =  -286.622421800     A.U. after    1 cycles

  Exact polarizability:  58.047   1.571  61.856   0.000   0.001  34.992
 Approx polarizability:  70.733   6.595 109.399   0.000   0.001  53.471

                      1                      2                      3
                      A                      A                      A
 Frequencies --     60.0756               117.0923               127.0927
 Red. masses --      2.7462                 1.1111                 1.0993
 Frc consts  --      0.0058                 0.0090                 0.0105
 IR Inten    --      7.2302                 0.1029                 0.0081

                      4                      5                      6
                      A                      A                      A
 Frequencies --    257.3222               353.3719               375.5320
 Red. masses --      3.3900                 3.0204                 3.0433
 Frc consts  --      0.1323                 0.2222                 0.2529
 IR Inten    --     13.7049                 0.0029                 1.4756

                      7                      8                      9
                      A                      A                      A
 Frequencies --    513.1446               553.4869               629.8902
 Red. masses --      3.3167                 4.4369                 2.1558
 Frc consts  --      0.5146                 0.8008                 0.5039
 IR Inten    --     16.4430                11.5489                 0.2097

                     10                     11                     12
                      A                      A                      A
 Frequencies --    703.1559               866.6918               920.4844
 Red. masses --      3.3193                 1.1547                 2.4178
 Frc consts  --      0.9669                 0.5110                 1.2070
 IR Inten    --      1.5674                21.2777                13.2670

                     13                     14                     15
                      A                      A                      A
 Frequencies --   1014.4134              1060.8545              1081.8460
 Red. masses --      1.8120                 1.7705                 1.5330
 Frc consts  --      1.0986                 1.1740                 1.0571
 IR Inten    --      0.5948                21.7120                32.6077

                     16                     17                     18
                      A                      A                      A
 Frequencies --   1084.9866              1203.1936              1372.8616
 Red. masses --      1.6326                 2.1342                 1.4048
 Frc consts  --      1.1323                 1.8203                 1.5600
 IR Inten    --     12.2564                75.8536                49.9491

                     19                     20                     21
                      A                      A                      A
 Frequencies --   1391.7198              1409.5972              1455.1902
 Red. masses --      1.3979                 1.7128                 1.0560
 Frc consts  --      1.5952                 2.0051                 1.3175
 IR Inten    --     27.5437                25.7534                 9.2118

                     22                     23                     24
                      A                      A                      A
 Frequencies --   1460.8551              1464.1365              1471.7356
 Red. masses --      1.0463                 1.0487                 1.0801
 Frc consts  --      1.3156                 1.3245                 1.3784
 IR Inten    --     11.4276                 1.0273                24.0052

                     25                     26                     27
                      A                      A                      A
 Frequencies --   1716.7684              1793.8081              3045.1052
 Red. masses --      8.8878                11.2734                 1.0349
 Frc consts  --     15.4336                21.3725                 5.6538
 IR Inten    --     30.3695               125.1257                 5.6346

                     28                     29                     30
                      A                      A                      A
 Frequencies --   3055.0872              3111.1956              3119.3508
 Red. masses --      1.0348                 1.0981                 1.0973
 Frc consts  --      5.6903                 6.2624                 6.2908
 IR Inten    --      0.8053                 4.3738                 2.9561

                     31                     32                     33
                      A                      A                      A
 Frequencies --   3130.9450              3159.9086              3422.5505
 Red. masses --      1.1045                 1.1050                 1.0745
 Frc consts  --      6.3794                 6.5009                 7.4157
 IR Inten    --     12.4137                10.2650                 2.0113

 - Thermochemistry -
 -------------------
 Temperature   298.150 Kelvin.  Pressure   1.00000 Atm.
 Atom     1 has atomic number  6 and mass  12.00000

 Molecular mass:    85.05276 amu.
 Principal axes and moments of inertia in atomic units:
                           1         2         3
     Eigenvalues --   346.40913 533.38274 857.79618
           X            0.99223  -0.12441   0.00000
           Y            0.12441   0.99223   0.00000
           Z           -0.00000  -0.00000   1.00000
 This molecule is an asymmetric top.
 Rotational symmetry number  1.
 Rotational temperatures (Kelvin)      0.25003     0.16239     0.10097
 Rotational constants (GHZ):           5.20985     3.38358     2.10393
 Zero-point vibrational energy     278152.4 (Joules/Mol)
                                   66.48002 (Kcal/Mol)
 Warning -- explicit consideration of   8 degrees of freedom as
           vibrations may cause significant error
 Vibrational temperatures:     86.44   168.47   182.86   370.23   508.42
          (Kelvin)            540.31   738.30   796.34   906.27  1011.68
                             1246.97  1324.37  1459.51  1526.33  1556.53
                             1561.05  1731.13  1975.24  2002.37  2028.09
                             2093.69  2101.84  2106.56  2117.50  2470.04
                             2580.89  4381.22  4395.58  4476.31  4488.04
                             4504.73  4546.40  4924.28

 Zero-point correction=                           0.105943 (Hartree/Particle)
 Thermal correction to Energy=                    0.113095
 Thermal correction to Enthalpy=                  0.114040
 Thermal correction to Gibbs Free Energy=         0.074657
 Sum of electronic and zero-point Energies=           -286.516479
 Sum of electronic and thermal Energies=              -286.509326
 Sum of electronic and thermal Enthalpies=            -286.508382
 Sum of electronic and thermal Free Energies=         -286.547765

                     E (Thermal)             CV                S
                      KCal/Mol        Cal/Mol-Kelvin    Cal/Mol-Kelvin
 Total                   70.968             24.000             82.888
 Electronic               0.000              0.000              0.000
 Translational            0.889              2.981             39.235
 Rotational               0.889              2.981             26.563
 Vibrational             69.191             18.039             17.089
 Vibration     1          0.597              1.973              4.455
 Vibration     2          0.608              1.935              3.148
 Vibration     3          0.611              1.926              2.990
 Vibration     4          0.667              1.750              1.680
 Vibration     5          0.730              1.568              1.151
 Vibration     6          0.746              1.522              1.057
 Vibration     7          0.868              1.221              0.626
 Vibration     8          0.909              1.132              0.537

 Optimization completed.
    -- Stationary point found.
 Normal termination of Gaussian 09 at Fri Aug 26 07:13:46 2022.

 -----------------------------------------------------------------
 #P Geom=AllCheck Guess=TCheck SCRF=Check CCSD(T,E4T,FrzG4)/GTBas1
 -----------------------------------------------------------------

 Structure from the checkpoint file:  "G4.Frag_444.chk"
 --------
 Frag_444
 --------
 Charge =  0 Multiplicity = 1

 SCF Done:  E(RHF) =  -284.846436268     A.U. after   12 cycles
 E2 =    -0.8473907158D+00 EUMP2 =    -0.28569382698389D+03
 CCSD(T)
 CCSD(T)= -0.28577022183D+03
 P4SDTQ=-285.7726705\MP4SDQ=-285.7403848\CCSD=-285.7392141\CCSD(T)=-285
 Normal termination of Gaussian 09 at Fri Aug 26 07:15:33 2022.

 ---------------------------------------------------------
 #P Geom=AllCheck Guess=TCheck SCRF=Check MP4=FrzG4/GTBas2
 ---------------------------------------------------------

 Structure from the checkpoint file:  "G4.Frag_444.chk"
 --------
 Frag_444
 --------
 Charge =  0 Multiplicity = 1

 SCF Done:  E(RHF) =  -284.854178096     A.U. after   13 cycles
 E2 =    -0.8579183585D+00 EUMP2 =    -0.28571209645423D+03
 Normal termination of Gaussian 09 at Fri Aug 26 07:16:12 2022.

 ---------------------------------------------------------
 #P Geom=AllCheck Guess=TCheck SCRF=Check MP4=FrzG4/GTBas3
 ---------------------------------------------------------

 Structure from the checkpoint file:  "G4.Frag_444.chk"
 --------
 Frag_444
 --------
 Charge =  0 Multiplicity = 1

 SCF Done:  E(RHF) =  -284.878824749     A.U. after   12 cycles
 E2 =    -0.1030815174D+01 EUMP2 =    -0.28590963992386D+03
 Normal termination of Gaussian 09 at Fri Aug 26 07:19:02 2022.

 -----------------------------------------------------------
 #P Geom=AllCheck Guess=TCheck SCRF=Check MP2=Full/GTLargeXP
 -----------------------------------------------------------

 Structure from the checkpoint file:  "G4.Frag_444.chk"
 --------
 Frag_444
 --------
 Charge =  0 Multiplicity = 1

 SCF Done:  E(RHF) =  -284.949039981     A.U. after   12 cycles
 E2 =    -0.1357302196D+01 EUMP2 =    -0.28630634217743D+03
 Normal termination of Gaussian 09 at Fri Aug 26 07:20:45 2022.
 SCF Done:  E(RHF) =  -284.971111964     A.U. after    9 cycles
 Normal termination of Gaussian 09 at Fri Aug 26 07:22:35 2022.

                         Standard orientation:
 ---------------------------------------------------------------------
 Center     Atomic      Atomic             Coordinates (Angstroms)
 Number     Number       Type             X           Y           Z
 ---------------------------------------------------------------------
      1          6           0        1.839920   -0.662632   -0.000067
      2          6           0        0.686216    0.305660   -0.000007
      3          7           0        0.749513    1.578139    0.000077
      4          6           0       -0.699921   -0.323554    0.000003
      5          6           0       -1.892096    0.604239   -0.000075
      6          8           0       -0.801936   -1.531351    0.000091
      7          1           0        1.787901   -1.318719   -0.874311
      8          1           0        1.787808   -1.318932    0.874006
      9          1           0        2.795231   -0.132240    0.000022
     10          1           0        1.722830    1.896593    0.000121
     11          1           0       -1.860782    1.261377   -0.873913
     12          1           0       -1.861019    1.261159    0.873939
     13          1           0       -2.807790    0.012323   -0.000254
 ---------------------------------------------------------------------

 SCF Done:  E(RHF) =  -284.975636468     A.U. after    8 cycles

 The electronic state is 1-A.
 Alpha  occ. eigenvalues --  -20.55875 -15.57362 -11.33910 -11.30322 -11.23979
 Alpha  occ. eigenvalues --  -11.22969  -1.40127  -1.23460  -1.01202  -1.00323
 Alpha  occ. eigenvalues --   -0.86761  -0.72046  -0.67347  -0.65559  -0.61461
 Alpha  occ. eigenvalues --   -0.60704  -0.57885  -0.57753  -0.53792  -0.50578
 Alpha  occ. eigenvalues --   -0.47321  -0.44347  -0.41186
 Alpha virt. eigenvalues --    0.03396   0.04108   0.05220   0.05317   0.06396
 Alpha virt. eigenvalues --    0.06942   0.07099   0.07644   0.08277   0.08455
 Alpha virt. eigenvalues --    0.09229   0.10046   0.10534   0.13028   0.13465

 Mulliken charges:
               1
     1  C   -0.541659
     2  C    0.271115
     3  N   -0.603728
     4  C    0.479104
     5  C   -0.575817
     6  O   -0.519664
     7  H    0.205494
     8  H    0.205519
     9  H    0.162739
    10  H    0.289803
    11  H    0.209251
    12  H    0.209236
    13  H    0.208607
 Sum of Mulliken charges =  -0.00000

 Dipole moment (field-independent basis, Debye):
    X=              1.6812    Y=              1.2474    Z=             -0.0003  Tot=              2.0934
 Quadrupole moment (field-independent basis, Debye-Ang):
   XX=            -30.9955   YY=            -43.6175   ZZ=            -36.0133
   XY=             -1.8609   XZ=              0.0002   YZ=              0.0003

 Normal termination of Gaussian 09 at Fri Aug 26 07:29:19 2022.
