 Gaussian 09, Revision E.01,
 Gaussian 09:  ES64L-G09RevE.01 30-Nov-2015

 -----
 #P G4
 -----

 --------
 Frag_634
 --------
 Symbolic Z-matrix:
 Charge =  0 Multiplicity = 1

 SCF Done:  E(RB3LYP) =  -308.921016596     A.U. after   12 cycles
 SCF Done:  E(RB3LYP) =  -308.925934606     A.U. after   10 cycles
 SCF Done:  E(RB3LYP) =  -308.926382674     A.U. after   10 cycles
 SCF Done:  E(RB3LYP) =  -308.926494601     A.U. after    9 cycles
 SCF Done:  E(RB3LYP) =  -308.926509484     A.U. after    9 cycles
 SCF Done:  E(RB3LYP) =  -308.926512588     A.U. after    7 cycles
 SCF Done:  E(RB3LYP) =  -308.926512458     A.U. after    7 cycles
 Optimization completed.
    -- Stationary point found.
 Normal termination of Gaussian 09 at Sat Aug 20 09:14:04 2022.

 ----------------------------------------------------------
 #P Geom=AllCheck Guess=TCheck SCRF=Check B3LYP/GTBas3 Freq
 ----------------------------------------------------------

 Structure from the checkpoint file:  "G4.Frag_634.chk"
 --------
 Frag_634
 --------
 Charge =  0 Multiplicity = 1

 SCF Done:  E(RB3LYP) =  -308.926512458     A.U. after    1 cycles

  Exact polarizability:  56.170   0.665  52.241   0.991   0.577  48.875
 Approx polarizability:  72.368   0.339  71.800   0.142   0.199  71.412

                      1                      2                      3
                      A                      A                      A
 Frequencies --    104.9540               206.6232               239.0812
 Red. masses --      1.9386                 1.0828                 1.8048
 Frc consts  --      0.0126                 0.0272                 0.0608
 IR Inten    --      0.2110                 0.9479                 0.6031

                      4                      5                      6
                      A                      A                      A
 Frequencies --    247.7796               307.9744               332.7095
 Red. masses --      1.5326                 1.1019                 1.6300
 Frc consts  --      0.0554                 0.0616                 0.1063
 IR Inten    --      2.4502                98.1629                12.5338

                      7                      8                      9
                      A                      A                      A
 Frequencies --    368.1514               404.4209               470.2258
 Red. masses --      2.5925                 1.5410                 3.3315
 Frc consts  --      0.2070                 0.1485                 0.4340
 IR Inten    --      7.5259                31.8659                21.7341

                     10                     11                     12
                      A                      A                      A
 Frequencies --    503.3809               566.8833               750.1500
 Red. masses --      2.6666                 3.3759                 3.3405
 Frc consts  --      0.3981                 0.6392                 1.1075
 IR Inten    --     19.2938                44.1708                 0.9615

                     13                     14                     15
                      A                      A                      A
 Frequencies --    791.0867               923.2802               934.2414
 Red. masses --      1.2467                 1.7978                 2.2294
 Frc consts  --      0.4597                 0.9029                 1.1465
 IR Inten    --      1.5459                21.4973                57.7651

                     16                     17                     18
                      A                      A                      A
 Frequencies --   1008.7509              1017.6182              1072.6422
 Red. masses --      1.5890                 2.0051                 2.2213
 Frc consts  --      0.9527                 1.2233                 1.5058
 IR Inten    --      7.0316                62.3353                18.3557

                     19                     20                     21
                      A                      A                      A
 Frequencies --   1098.9165              1175.5863              1195.8495
 Red. masses --      1.4537                 2.0895                 2.3432
 Frc consts  --      1.0343                 1.7014                 1.9743
 IR Inten    --     25.9479               113.5677                78.9698

                     22                     23                     24
                      A                      A                      A
 Frequencies --   1284.6343              1328.2828              1378.6898
 Red. masses --      1.1895                 1.4216                 1.3369
 Frc consts  --      1.1566                 1.4778                 1.4972
 IR Inten    --      6.1525                 2.9738                 4.4529

                     25                     26                     27
                      A                      A                      A
 Frequencies --   1399.7317              1410.1180              1438.0876
 Red. masses --      1.4993                 1.2452                 1.7356
 Frc consts  --      1.7307                 1.4588                 2.1148
 IR Inten    --     14.5939                 7.5266                82.5260

                     28                     29                     30
                      A                      A                      A
 Frequencies --   1475.1682              1486.2615              1498.5057
 Red. masses --      1.0799                 1.0704                 1.0699
 Frc consts  --      1.3845                 1.3931                 1.4155
 IR Inten    --      0.9976                 7.4756                 1.4613

                     31                     32                     33
                      A                      A                      A
 Frequencies --   1501.0021              1510.8250              3022.4609
 Red. masses --      1.0470                 1.0697                 1.0653
 Frc consts  --      1.3898                 1.4386                 5.7336
 IR Inten    --      2.0478                 5.0582                28.6577

                     34                     35                     36
                      A                      A                      A
 Frequencies --   3042.6245              3047.5037              3078.1612
 Red. masses --      1.0360                 1.0371                 1.0960
 Frc consts  --      5.6506                 5.6747                 6.1185
 IR Inten    --     23.5977                 8.6383                12.6217

                     37                     38                     39
                      A                      A                      A
 Frequencies --   3104.7185              3116.2389              3128.3506
 Red. masses --      1.1013                 1.1000                 1.1011
 Frc consts  --      6.2548                 6.2937                 6.3493
 IR Inten    --     39.2683                17.1701                27.3889

                     40                     41                     42
                      A                      A                      A
 Frequencies --   3142.1249              3793.6046              3798.8816
 Red. masses --      1.1018                 1.0653                 1.0654
 Frc consts  --      6.4092                 9.0330                 9.0591
 IR Inten    --     16.0424                13.7185                15.6323

 - Thermochemistry -
 -------------------
 Temperature   298.150 Kelvin.  Pressure   1.00000 Atm.
 Atom     1 has atomic number  6 and mass  12.00000

 Molecular mass:    90.06808 amu.
 Principal axes and moments of inertia in atomic units:
                           1         2         3
     Eigenvalues --   380.87493 681.81117 699.50184
           X            0.99956   0.02109   0.02086
           Y           -0.02281   0.99601   0.08629
           Z           -0.01895  -0.08673   0.99605
 This molecule is an asymmetric top.
 Rotational symmetry number  1.
 Rotational temperatures (Kelvin)      0.22741     0.12703     0.12382
 Rotational constants (GHZ):           4.73841     2.64698     2.58004
 Zero-point vibrational energy     369085.5 (Joules/Mol)
                                   88.21356 (Kcal/Mol)
 Warning -- explicit consideration of  11 degrees of freedom as
           vibrations may cause significant error
 Vibrational temperatures:    151.01   297.28   343.98   356.50   443.11
          (Kelvin)            478.69   529.69   581.87   676.55   724.25
                              815.62  1079.30  1138.20  1328.39  1344.16
                             1451.37  1464.12  1543.29  1581.09  1691.40
                             1720.56  1848.30  1911.10  1983.62  2013.90
                             2028.84  2069.08  2122.44  2138.40  2156.01
                             2159.60  2173.74  4348.64  4377.65  4384.67
                             4428.78  4466.99  4483.57  4500.99  4520.81
                             5458.14  5465.74

 Zero-point correction=                           0.140577 (Hartree/Particle)
 Thermal correction to Energy=                    0.148269
 Thermal correction to Enthalpy=                  0.149213
 Thermal correction to Gibbs Free Energy=         0.109805
 Sum of electronic and zero-point Energies=           -308.785935
 Sum of electronic and thermal Energies=              -308.778243
 Sum of electronic and thermal Enthalpies=            -308.777299
 Sum of electronic and thermal Free Energies=         -308.816708

                     E (Thermal)             CV                S
                      KCal/Mol        Cal/Mol-Kelvin    Cal/Mol-Kelvin
 Total                   93.040             28.368             82.943
 Electronic               0.000              0.000              0.000
 Translational            0.889              2.981             39.406
 Rotational               0.889              2.981             26.699
 Vibrational             91.263             22.406             16.838
 Vibration     1          0.605              1.945              3.360
 Vibration     2          0.641              1.830              2.073
 Vibration     3          0.657              1.781              1.810
 Vibration     4          0.661              1.766              1.746
 Vibration     5          0.698              1.659              1.373
 Vibration     6          0.715              1.610              1.247
 Vibration     7          0.741              1.538              1.087
 Vibration     8          0.770              1.461              0.947
 Vibration     9          0.827              1.316              0.737
 Vibration    10          0.859              1.243              0.650
 Vibration    11          0.923              1.103              0.510

 Normal termination of Gaussian 09 at Sat Aug 20 09:17:07 2022.

 -----------------------------------------------------------------
 #P Geom=AllCheck Guess=TCheck SCRF=Check CCSD(T,E4T,FrzG4)/GTBas1
 -----------------------------------------------------------------

 Structure from the checkpoint file:  "G4.Frag_634.chk"
 --------
 Frag_634
 --------
 Charge =  0 Multiplicity = 1

 SCF Done:  E(RHF) =  -307.016122001     A.U. after   11 cycles
 E2 =    -0.8867940073D+00 EUMP2 =    -0.30790291600831D+03
 CCSD(T)
 CCSD(T)= -0.30798359979D+03
 DTQ=-307.983152\MP4SDQ=-307.9582318\CCSD=-307.9587302\CCSD(T)=-307.983
 Normal termination of Gaussian 09 at Sat Aug 20 09:23:41 2022.

 ---------------------------------------------------------
 #P Geom=AllCheck Guess=TCheck SCRF=Check MP4=FrzG4/GTBas2
 ---------------------------------------------------------

 Structure from the checkpoint file:  "G4.Frag_634.chk"
 --------
 Frag_634
 --------
 Charge =  0 Multiplicity = 1

 SCF Done:  E(RHF) =  -307.025457662     A.U. after   11 cycles
 E2 =    -0.9014022926D+00 EUMP2 =    -0.30792685995496D+03
 Normal termination of Gaussian 09 at Sat Aug 20 09:33:32 2022.

 ---------------------------------------------------------
 #P Geom=AllCheck Guess=TCheck SCRF=Check MP4=FrzG4/GTBas3
 ---------------------------------------------------------

 Structure from the checkpoint file:  "G4.Frag_634.chk"
 --------
 Frag_634
 --------
 Charge =  0 Multiplicity = 1

 SCF Done:  E(RHF) =  -307.059227942     A.U. after   10 cycles
 E2 =    -0.1108946803D+01 EUMP2 =    -0.30816817474572D+03
 Normal termination of Gaussian 09 at Sat Aug 20 13:15:26 2022.

 -----------------------------------------------------------
 #P Geom=AllCheck Guess=TCheck SCRF=Check MP2=Full/GTLargeXP
 -----------------------------------------------------------

 Structure from the checkpoint file:  "G4.Frag_634.chk"
 --------
 Frag_634
 --------
 Charge =  0 Multiplicity = 1

 SCF Done:  E(RHF) =  -307.139794879     A.U. after   11 cycles
 E2 =    -0.1450651360D+01 EUMP2 =    -0.30859044623940D+03
 Normal termination of Gaussian 09 at Sat Aug 20 13:22:30 2022.
 SCF Done:  E(RHF) =  -307.164916444     A.U. after    8 cycles
 Normal termination of Gaussian 09 at Sat Aug 20 13:28:58 2022.

                         Standard orientation:
 ---------------------------------------------------------------------
 Center     Atomic      Atomic             Coordinates (Angstroms)
 Number     Number       Type             X           Y           Z
 ---------------------------------------------------------------------
      1          6           0       -2.141262    0.092716    0.041410
      2          6           0       -0.891858   -0.555126   -0.560649
      3          6           0        0.444753   -0.035822   -0.010080
      4          6           0        0.686263    1.450571   -0.268737
      5          8           0        0.430092   -0.321968    1.378114
      6          8           0        1.527540   -0.705157   -0.633098
      7          1           0       -2.205551    1.156837   -0.206568
      8          1           0       -3.046322   -0.387835   -0.342438
      9          1           0       -2.137627   -0.002723    1.129972
     10          1           0       -0.916442   -1.635404   -0.365138
     11          1           0       -0.873211   -0.428582   -1.648055
     12          1           0        0.641385    1.670984   -1.338492
     13          1           0       -0.054610    2.057638    0.254536
     14          1           0        1.683920    1.725396    0.088502
     15          1           0        1.265390   -0.004529    1.740081
     16          1           0        1.394639   -1.648805   -0.484194
 ---------------------------------------------------------------------

 SCF Done:  E(RHF) =  -307.170443884     A.U. after    7 cycles

 The electronic state is 1-A.
 Alpha  occ. eigenvalues --  -20.55946 -20.55875 -11.33754 -11.22373 -11.21746
 Alpha  occ. eigenvalues --  -11.21302  -1.41008  -1.32949  -1.05509  -0.98372
 Alpha  occ. eigenvalues --   -0.88246  -0.78591  -0.73429  -0.64866  -0.63175
 Alpha  occ. eigenvalues --   -0.61901  -0.58734  -0.55553  -0.54532  -0.53869
 Alpha  occ. eigenvalues --   -0.50528  -0.49309  -0.48006  -0.47743  -0.44271
 Alpha virt. eigenvalues --    0.03753   0.04233   0.04350   0.04979   0.06721
 Alpha virt. eigenvalues --    0.06756   0.07262   0.07539   0.07972   0.09816
 Alpha virt. eigenvalues --    0.09962   0.10527   0.11231   0.13799   0.14633

 Mulliken charges:
               1
     1  C   -0.548659
     2  C   -0.261651
     3  C    0.488315
     4  C   -0.560732
     5  O   -0.619920
     6  O   -0.611343
     7  H    0.157949
     8  H    0.164935
     9  H    0.195066
    10  H    0.140184
    11  H    0.184682
    12  H    0.177604
    13  H    0.182378
    14  H    0.170584
    15  H    0.372271
    16  H    0.368339
 Sum of Mulliken charges =  -0.00000

 Dipole moment (field-independent basis, Debye):
    X=             -0.2260    Y=              0.1450    Z=             -0.0339  Tot=              0.2706
 Quadrupole moment (field-independent basis, Debye-Ang):
   XX=            -39.4397   YY=            -35.2798   ZZ=            -39.9201
   XY=              0.1751   XZ=              4.0544   YZ=              1.1828

 Normal termination of Gaussian 09 at Sat Aug 20 16:20:40 2022.
