 Gaussian 09, Revision E.01,
 Gaussian 09:  ES64L-G09RevE.01 30-Nov-2015

 -----
 #P G4
 -----

 --------
 Frag_953
 --------
 Symbolic Z-matrix:
 Charge =  0 Multiplicity = 1

 SCF Done:  E(RB3LYP) =  -246.214607775     A.U. after   13 cycles
 SCF Done:  E(RB3LYP) =  -246.227792423     A.U. after   12 cycles
 SCF Done:  E(RB3LYP) =  -246.230346425     A.U. after   12 cycles
 SCF Done:  E(RB3LYP) =  -246.230775088     A.U. after   11 cycles
 SCF Done:  E(RB3LYP) =  -246.230808421     A.U. after   10 cycles
 SCF Done:  E(RB3LYP) =  -246.230816990     A.U. after    9 cycles
 SCF Done:  E(RB3LYP) =  -246.230818993     A.U. after    8 cycles
 SCF Done:  E(RB3LYP) =  -246.230819545     A.U. after    8 cycles
 SCF Done:  E(RB3LYP) =  -246.230819640     A.U. after    7 cycles
 Optimization completed.
    -- Stationary point found.
 Normal termination of Gaussian 09 at Fri Aug 26 06:48:01 2022.

 ----------------------------------------------------------
 #P Geom=AllCheck Guess=TCheck SCRF=Check B3LYP/GTBas3 Freq
 ----------------------------------------------------------

 Structure from the checkpoint file:  "G4.Frag_953.chk"
 --------
 Frag_953
 --------
 Charge =  0 Multiplicity = 1

 SCF Done:  E(RB3LYP) =  -246.230819640     A.U. after    1 cycles

  Exact polarizability:  33.228  -2.127  29.186   3.092  -0.165  25.364
 Approx polarizability:  42.985  -4.256  43.250   4.110  -2.369  36.054

                      1                      2                      3
                      A                      A                      A
 Frequencies --    165.6425               244.1332               330.3354
 Red. masses --      2.9389                 1.1235                 1.6932
 Frc consts  --      0.0475                 0.0395                 0.1089
 IR Inten    --      5.0384                94.7732                26.4222

                      4                      5                      6
                      A                      A                      A
 Frequencies --    433.4525               559.4482               838.0714
 Red. masses --      1.6249                 2.5938                 2.3290
 Frc consts  --      0.1799                 0.4783                 0.9638
 IR Inten    --     39.1393                34.7732                43.0243

                      7                      8                      9
                      A                      A                      A
 Frequencies --    881.8987               948.1001               976.4309
 Red. masses --      2.5167                 1.4453                 9.3522
 Frc consts  --      1.1532                 0.7655                 5.2535
 IR Inten    --    189.8007                25.4513                56.2012

                     10                     11                     12
                      A                      A                      A
 Frequencies --   1150.7128              1272.5928              1370.6410
 Red. masses --      3.0910                 1.3353                 1.1210
 Frc consts  --      2.4115                 1.2741                 1.2408
 IR Inten    --     27.4220                 2.4305                39.7455

                     13                     14                     15
                      A                      A                      A
 Frequencies --   1382.1846              1403.7715              1473.2994
 Red. masses --      1.1889                 1.1669                 1.1232
 Frc consts  --      1.3382                 1.3548                 1.4364
 IR Inten    --     12.6469                29.1801                 2.9203

                     16                     17                     18
                      A                      A                      A
 Frequencies --   1672.8852              3031.0552              3088.8191
 Red. masses --      1.0953                 1.0574                 1.1077
 Frc consts  --      1.8059                 5.7235                 6.2267
 IR Inten    --     23.8014                45.0126                23.3588

                     19                     20                     21
                      A                      A                      A
 Frequencies --   3506.4848              3588.5968              3754.6278
 Red. masses --      1.0484                 1.0927                 1.0686
 Frc consts  --      7.5950                 8.2905                 8.8753
 IR Inten    --      1.2480                 4.2495                29.4972

 - Thermochemistry -
 -------------------
 Temperature   298.150 Kelvin.  Pressure   1.00000 Atm.
 Atom     1 has atomic number  7 and mass  14.00307

 Molecular mass:    63.03203 amu.
 Principal axes and moments of inertia in atomic units:
                           1         2         3
     Eigenvalues --   107.54232 319.40719 378.36677
           X            0.99963   0.00119   0.02715
           Y           -0.00269   0.99847   0.05522
           Z           -0.02704  -0.05528   0.99810
 This molecule is an asymmetric top.
 Rotational symmetry number  1.
 Rotational temperatures (Kelvin)      0.80539     0.27117     0.22891
 Rotational constants (GHZ):          16.78168     5.65028     4.76982
 Zero-point vibrational energy     191840.2 (Joules/Mol)
                                   45.85092 (Kcal/Mol)
 Warning -- explicit consideration of   5 degrees of freedom as
           vibrations may cause significant error
 Vibrational temperatures:    238.32   351.25   475.28   623.64   804.92
          (Kelvin)           1205.80  1268.85  1364.10  1404.86  1655.62
                             1830.97  1972.04  1988.65  2019.71  2119.75
                             2406.91  4361.01  4444.12  5045.04  5163.18
                             5402.07

 Zero-point correction=                           0.073068 (Hartree/Particle)
 Thermal correction to Energy=                    0.078133
 Thermal correction to Enthalpy=                  0.079077
 Thermal correction to Gibbs Free Energy=         0.045812
 Sum of electronic and zero-point Energies=           -246.157752
 Sum of electronic and thermal Energies=              -246.152686
 Sum of electronic and thermal Enthalpies=            -246.151742
 Sum of electronic and thermal Free Energies=         -246.185007

                     E (Thermal)             CV                S
                      KCal/Mol        Cal/Mol-Kelvin    Cal/Mol-Kelvin
 Total                   49.029             16.565             70.012
 Electronic               0.000              0.000              0.000
 Translational            0.889              2.981             38.342
 Rotational               0.889              2.981             24.078
 Vibrational             47.252             10.603              7.592
 Vibration     1          0.624              1.885              2.484
 Vibration     2          0.659              1.772              1.773
 Vibration     3          0.713              1.615              1.258
 Vibration     4          0.794              1.397              0.847
 Vibration     5          0.915              1.119              0.525

 Optimization completed.
    -- Stationary point found.
 Normal termination of Gaussian 09 at Fri Aug 26 06:48:14 2022.

 -----------------------------------------------------------------
 #P Geom=AllCheck Guess=TCheck SCRF=Check CCSD(T,E4T,FrzG4)/GTBas1
 -----------------------------------------------------------------

 Structure from the checkpoint file:  "G4.Frag_953.chk"
 --------
 Frag_953
 --------
 Charge =  0 Multiplicity = 1

 SCF Done:  E(RHF) =  -244.827833899     A.U. after   13 cycles
 E2 =    -0.6594508239D+00 EUMP2 =    -0.24548728472305D+03
 CCSD(T)
 CCSD(T)= -0.24553574845D+03
 46\CCSD=-245.5178792\CCSD(T)=-245.5357485\RMSD=8.506e-09\PG=C01 [X(C1H
 Normal termination of Gaussian 09 at Fri Aug 26 06:48:41 2022.

 ---------------------------------------------------------
 #P Geom=AllCheck Guess=TCheck SCRF=Check MP4=FrzG4/GTBas2
 ---------------------------------------------------------

 Structure from the checkpoint file:  "G4.Frag_953.chk"
 --------
 Frag_953
 --------
 Charge =  0 Multiplicity = 1

 SCF Done:  E(RHF) =  -244.836598428     A.U. after   12 cycles
 E2 =    -0.6724426445D+00 EUMP2 =    -0.24550904107202D+03
 Normal termination of Gaussian 09 at Fri Aug 26 06:48:48 2022.

 ---------------------------------------------------------
 #P Geom=AllCheck Guess=TCheck SCRF=Check MP4=FrzG4/GTBas3
 ---------------------------------------------------------

 Structure from the checkpoint file:  "G4.Frag_953.chk"
 --------
 Frag_953
 --------
 Charge =  0 Multiplicity = 1

 SCF Done:  E(RHF) =  -244.860232351     A.U. after   13 cycles
 E2 =    -0.8159748680D+00 EUMP2 =    -0.24567620721874D+03
 Normal termination of Gaussian 09 at Fri Aug 26 06:49:18 2022.

 -----------------------------------------------------------
 #P Geom=AllCheck Guess=TCheck SCRF=Check MP2=Full/GTLargeXP
 -----------------------------------------------------------

 Structure from the checkpoint file:  "G4.Frag_953.chk"
 --------
 Frag_953
 --------
 Charge =  0 Multiplicity = 1

 SCF Done:  E(RHF) =  -244.931659642     A.U. after   12 cycles
 E2 =    -0.1057535314D+01 EUMP2 =    -0.24598919495595D+03
 Normal termination of Gaussian 09 at Fri Aug 26 06:49:37 2022.
 SCF Done:  E(RHF) =  -244.953190798     A.U. after    9 cycles
 Normal termination of Gaussian 09 at Fri Aug 26 06:50:01 2022.

                         Standard orientation:
 ---------------------------------------------------------------------
 Center     Atomic      Atomic             Coordinates (Angstroms)
 Number     Number       Type             X           Y           Z
 ---------------------------------------------------------------------
      1          7           0       -1.497081   -0.499306   -0.039246
      2          6           0       -0.608026    0.569048    0.297064
      3          8           0        0.651698    0.589624   -0.386246
      4          8           0        1.381372   -0.581047    0.052383
      5          1           0       -1.651511   -0.526899   -1.042485
      6          1           0       -1.082681   -1.386201    0.228077
      7          1           0       -1.042796    1.531952    0.005262
      8          1           0       -0.427684    0.559559    1.378684
      9          1           0        2.067841   -0.166177    0.593704
 ---------------------------------------------------------------------

 SCF Done:  E(RHF) =  -244.957709980     A.U. after    8 cycles

 The electronic state is 1-A.
 Alpha  occ. eigenvalues --  -20.62343 -20.62230 -15.55012 -11.31269  -1.47686
 Alpha  occ. eigenvalues --   -1.24343  -1.16643  -0.88452  -0.72373  -0.70184
 Alpha  occ. eigenvalues --   -0.67180  -0.61926  -0.60644  -0.51905  -0.50777
 Alpha  occ. eigenvalues --   -0.46724  -0.42345
 Alpha virt. eigenvalues --    0.04705   0.05211   0.05298   0.06105   0.09500
 Alpha virt. eigenvalues --    0.10181   0.10694   0.11322   0.12792   0.14467
 Alpha virt. eigenvalues --    0.16118   0.16669   0.17889   0.19656   0.20687

 Mulliken charges:
               1
     1  N   -0.653605
     2  C   -0.011381
     3  O   -0.216481
     4  O   -0.432834
     5  H    0.281388
     6  H    0.298475
     7  H    0.185184
     8  H    0.157311
     9  H    0.391943
 Sum of Mulliken charges =  -0.00000

 Dipole moment (field-independent basis, Debye):
    X=              0.5645    Y=              0.3367    Z=              1.0020  Tot=              1.1984
 Quadrupole moment (field-independent basis, Debye-Ang):
   XX=            -24.8759   YY=            -23.5770   ZZ=            -22.9927
   XY=             -0.1000   XZ=              4.9471   YZ=              0.7426

 Normal termination of Gaussian 09 at Fri Aug 26 06:52:18 2022.
