 Gaussian 09, Revision E.01,
 Gaussian 09:  ES64L-G09RevE.01 30-Nov-2015

 -----
 #P G4
 -----

 ---------
 Frag_1061
 ---------
 Symbolic Z-matrix:
 Charge =  0 Multiplicity = 1

 SCF Done:  E(RB3LYP) =  -207.950959409     A.U. after   14 cycles
 SCF Done:  E(RB3LYP) =  -207.962566100     A.U. after   13 cycles
 SCF Done:  E(RB3LYP) =  -207.963259316     A.U. after   11 cycles
 SCF Done:  E(RB3LYP) =  -207.963299281     A.U. after    9 cycles
 SCF Done:  E(RB3LYP) =  -207.963297726     A.U. after    9 cycles
 SCF Done:  E(RB3LYP) =  -207.963298796     A.U. after    9 cycles
 SCF Done:  E(RB3LYP) =  -207.963300972     A.U. after    9 cycles
 Optimization completed.
    -- Stationary point found.
 Normal termination of Gaussian 09 at Thu Aug 25 19:17:47 2022.

 ----------------------------------------------------------
 #P Geom=AllCheck Guess=TCheck SCRF=Check B3LYP/GTBas3 Freq
 ----------------------------------------------------------

 Structure from the checkpoint file:  "G4.Frag_1061.chk"
 ---------
 Frag_1061
 ---------
 Charge =  0 Multiplicity = 1

 SCF Done:  E(RB3LYP) =  -207.963300972     A.U. after    1 cycles

  Exact polarizability:  35.968  -2.575  36.734   0.000  -0.000  16.621
 Approx polarizability:  55.671  -3.483  60.361   0.001   0.000  25.150

                      1                      2                      3
                      A                      A                      A
 Frequencies --    209.7605               300.8612               689.5150
 Red. masses --      1.8510                 5.3713                 1.4745
 Frc consts  --      0.0480                 0.2865                 0.4130
 IR Inten    --      8.2981                17.8453                15.4869

                      4                      5                      6
                      A                      A                      A
 Frequencies --    783.2143               884.1608              1059.9257
 Red. masses --      3.9987                 3.5358                 1.8857
 Frc consts  --      1.4452                 1.6286                 1.2482
 IR Inten    --     23.5513                38.4151                 0.0141

                      7                      8                      9
                      A                      A                      A
 Frequencies --   1171.9244              1237.5094              1400.6665
 Red. masses --      1.0711                 1.2086                 1.1767
 Frc consts  --      0.8667                 1.0905                 1.3602
 IR Inten    --     51.9301               103.0703                21.5441

                     10                     11                     12
                      A                      A                      A
 Frequencies --   1430.0655              1693.2505              1818.0724
 Red. masses --      1.3138                 9.3210                 9.3738
 Frc consts  --      1.5831                15.7455                18.2552
 IR Inten    --      7.5880                25.3112                64.6090

                     13                     14                     15
                      A                      A                      A
 Frequencies --   2920.8649              3109.4557              3371.8441
 Red. masses --      1.0858                 1.0907                 1.0719
 Frc consts  --      5.4577                 6.2133                 7.1805
 IR Inten    --    110.3846                31.5895                 1.9337

 - Thermochemistry -
 -------------------
 Temperature   298.150 Kelvin.  Pressure   1.00000 Atm.
 Atom     1 has atomic number  7 and mass  14.00307

 Molecular mass:    57.02146 amu.
 Principal axes and moments of inertia in atomic units:
                           1         2         3
     Eigenvalues --    75.00132 278.02847 353.02979
           X            0.99980  -0.01998   0.00000
           Y            0.01998   0.99980  -0.00001
           Z           -0.00000   0.00001   1.00000
 This molecule is an asymmetric top.
 Rotational symmetry number  1.
 Rotational temperatures (Kelvin)      1.15483     0.31153     0.24534
 Rotational constants (GHZ):          24.06279     6.49121     5.11215
 Zero-point vibrational energy     132074.3 (Joules/Mol)
                                   31.56650 (Kcal/Mol)
 Warning -- explicit consideration of   2 degrees of freedom as
           vibrations may cause significant error
 Vibrational temperatures:    301.80   432.87   992.06  1126.87  1272.11
          (Kelvin)           1524.99  1686.14  1780.50  2015.24  2057.54
                             2436.21  2615.80  4202.47  4473.81  4851.33

 Zero-point correction=                           0.050304 (Hartree/Particle)
 Thermal correction to Energy=                    0.054439
 Thermal correction to Enthalpy=                  0.055383
 Thermal correction to Gibbs Free Energy=         0.024072
 Sum of electronic and zero-point Energies=           -207.912997
 Sum of electronic and thermal Energies=              -207.908862
 Sum of electronic and thermal Enthalpies=            -207.907918
 Sum of electronic and thermal Free Energies=         -207.939229

                     E (Thermal)             CV                S
                      KCal/Mol        Cal/Mol-Kelvin    Cal/Mol-Kelvin
 Total                   34.161             12.494             65.901
 Electronic               0.000              0.000              0.000
 Translational            0.889              2.981             38.044
 Rotational               0.889              2.981             23.514
 Vibrational             32.384              6.533              4.344
 Vibration     1          0.642              1.826              2.046
 Vibration     2          0.693              1.672              1.412

 Optimization completed.
    -- Stationary point found.
 Normal termination of Gaussian 09 at Thu Aug 25 19:18:09 2022.

 -----------------------------------------------------------------
 #P Geom=AllCheck Guess=TCheck SCRF=Check CCSD(T,E4T,FrzG4)/GTBas1
 -----------------------------------------------------------------

 Structure from the checkpoint file:  "G4.Frag_1061.chk"
 ---------
 Frag_1061
 ---------
 Charge =  0 Multiplicity = 1

 SCF Done:  E(RHF) =  -206.751982333     A.U. after   13 cycles
 E2 =    -0.5852726901D+00 EUMP2 =    -0.20733725502274D+03
 CCSD(T)
 CCSD(T)= -0.20738281240D+03
 08784\CCSD(T)=-207.3828124\RMSD=2.750e-09\PG=C01 [X(C2H3N1O1)]\\@
 Normal termination of Gaussian 09 at Thu Aug 25 19:18:28 2022.

 ---------------------------------------------------------
 #P Geom=AllCheck Guess=TCheck SCRF=Check MP4=FrzG4/GTBas2
 ---------------------------------------------------------

 Structure from the checkpoint file:  "G4.Frag_1061.chk"
 ---------
 Frag_1061
 ---------
 Charge =  0 Multiplicity = 1

 SCF Done:  E(RHF) =  -206.758534425     A.U. after   13 cycles
 E2 =    -0.5928852275D+00 EUMP2 =    -0.20735141965286D+03
 Normal termination of Gaussian 09 at Thu Aug 25 19:18:35 2022.

 ---------------------------------------------------------
 #P Geom=AllCheck Guess=TCheck SCRF=Check MP4=FrzG4/GTBas3
 ---------------------------------------------------------

 Structure from the checkpoint file:  "G4.Frag_1061.chk"
 ---------
 Frag_1061
 ---------
 Charge =  0 Multiplicity = 1

 SCF Done:  E(RHF) =  -206.774352428     A.U. after   12 cycles
 E2 =    -0.7038993165D+00 EUMP2 =    -0.20747825174481D+03
 Normal termination of Gaussian 09 at Thu Aug 25 19:19:58 2022.

 -----------------------------------------------------------
 #P Geom=AllCheck Guess=TCheck SCRF=Check MP2=Full/GTLargeXP
 -----------------------------------------------------------

 Structure from the checkpoint file:  "G4.Frag_1061.chk"
 ---------
 Frag_1061
 ---------
 Charge =  0 Multiplicity = 1

 SCF Done:  E(RHF) =  -206.829403224     A.U. after   12 cycles
 E2 =    -0.9252266348D+00 EUMP2 =    -0.20775462985897D+03
 Normal termination of Gaussian 09 at Thu Aug 25 19:20:30 2022.
 SCF Done:  E(RHF) =  -206.845567219     A.U. after    9 cycles
 Normal termination of Gaussian 09 at Thu Aug 25 19:21:36 2022.

                         Standard orientation:
 ---------------------------------------------------------------------
 Center     Atomic      Atomic             Coordinates (Angstroms)
 Number     Number       Type             X           Y           Z
 ---------------------------------------------------------------------
      1          7           0        1.472063   -0.493172   -0.000002
      2          6           0        0.743791    0.545180   -0.000007
      3          6           0       -0.766145    0.489694    0.000042
      4          8           0       -1.367794   -0.555003   -0.000017
      5          1           0        0.857071   -1.319022    0.000032
      6          1           0        1.207252    1.535018   -0.000040
      7          1           0       -1.292284    1.466995   -0.000055
 ---------------------------------------------------------------------

 SCF Done:  E(RHF) =  -206.848806360     A.U. after    7 cycles

 The electronic state is 1-A.
 Alpha  occ. eigenvalues --  -20.58777 -15.59068 -11.35952 -11.30371  -1.42552
 Alpha  occ. eigenvalues --   -1.23637  -0.94740  -0.79607  -0.72956  -0.68259
 Alpha  occ. eigenvalues --   -0.61499  -0.57274  -0.49955  -0.45979  -0.43774
 Alpha virt. eigenvalues --    0.03497   0.03547   0.04626   0.05584   0.06325
 Alpha virt. eigenvalues --    0.07464   0.07973   0.08460   0.11012   0.13140
 Alpha virt. eigenvalues --    0.13622   0.14709   0.16214   0.17108   0.17279

 Mulliken charges:
               1
     1  N   -0.491689
     2  C    0.004549
     3  C    0.272118
     4  O   -0.495446
     5  H    0.315769
     6  H    0.207676
     7  H    0.187023
 Sum of Mulliken charges =  -0.00000

 Dipole moment (field-independent basis, Debye):
    X=             -0.4018    Y=              2.6204    Z=              0.0001  Tot=              2.6511
 Quadrupole moment (field-independent basis, Debye-Ang):
   XX=            -30.7751   YY=            -19.9569   ZZ=            -23.5016
   XY=             -1.4694   XZ=             -0.0000   YZ=             -0.0001

 Normal termination of Gaussian 09 at Thu Aug 25 19:48:23 2022.
