 Gaussian 09, Revision E.01,
 Gaussian 09:  ES64L-G09RevE.01 30-Nov-2015

 -----
 #P G4
 -----

 --------
 Frag_808
 --------
 Symbolic Z-matrix:
 Charge =  0 Multiplicity = 1

 SCF Done:  E(RB3LYP) =  -229.035880616     A.U. after   13 cycles
 SCF Done:  E(RB3LYP) =  -229.057090321     A.U. after   12 cycles
 SCF Done:  E(RB3LYP) =  -229.058749419     A.U. after   11 cycles
 SCF Done:  E(RB3LYP) =  -229.058784283     A.U. after    8 cycles
 SCF Done:  E(RB3LYP) =  -229.058786291     A.U. after    8 cycles
 Optimization completed.
    -- Stationary point found.
 Normal termination of Gaussian 09 at Fri Aug 19 17:26:36 2022.

 ----------------------------------------------------------
 #P Geom=AllCheck Guess=TCheck SCRF=Check B3LYP/GTBas3 Freq
 ----------------------------------------------------------

 Structure from the checkpoint file:  "G4.Frag_808.chk"
 --------
 Frag_808
 --------
 Charge =  0 Multiplicity = 1

 SCF Done:  E(RB3LYP) =  -229.058786291     A.U. after    1 cycles

  Exact polarizability:  41.075   0.703  30.522  -0.000  -0.000  16.322
 Approx polarizability:  63.155   1.693  42.564  -0.000  -0.000  23.435

                      1                      2                      3
                      A                      A                      A
 Frequencies --    194.6433               386.0454               452.7085
 Red. masses --      1.0827                 1.1137                 2.2663
 Frc consts  --      0.0242                 0.0978                 0.2737
 IR Inten    --    183.7533                 8.7114                 3.0621

                      4                      5                      6
                      A                      A                      A
 Frequencies --    533.3779               661.4027               692.6002
 Red. masses --      3.7525                 2.6483                 1.2234
 Frc consts  --      0.6290                 0.6826                 0.3458
 IR Inten    --     22.6630                 9.5706                38.5563

                      7                      8                      9
                      A                      A                      A
 Frequencies --    730.9983               943.4309               979.7872
 Red. masses --      1.5255                 4.6958                 1.7882
 Frc consts  --      0.4803                 2.4625                 1.0114
 IR Inten    --     56.7985                39.9043                27.0165

                     10                     11                     12
                      A                      A                      A
 Frequencies --   1192.7768              1243.9353              1421.7390
 Red. masses --      1.5097                 1.2871                 2.3739
 Frc consts  --      1.2655                 1.1734                 2.8271
 IR Inten    --    156.7469                91.5928               180.5253

                     13                     14                     15
                      A                      A                      A
 Frequencies --   1449.3499              1776.8044              3190.8882
 Red. masses --      1.2616                 5.6674                 1.0612
 Frc consts  --      1.5614                10.5417                 6.3660
 IR Inten    --      6.4561               294.5109                 3.1629

                     16                     17                     18
                      A                      A                      A
 Frequencies --   3285.6122              3816.9259              3835.1855
 Red. masses --      1.1163                 1.0654                 1.0653
 Frc consts  --      7.1000                 9.1448                 9.2319
 IR Inten    --      3.1735                83.4970                49.3975

 - Thermochemistry -
 -------------------
 Temperature   298.150 Kelvin.  Pressure   1.00000 Atm.
 Atom     1 has atomic number  6 and mass  12.00000

 Molecular mass:    60.02113 amu.
 Principal axes and moments of inertia in atomic units:
                           1         2         3
     Eigenvalues --   162.77865 177.72876 340.50740
           X            0.99604  -0.08895  -0.00000
           Y            0.08895   0.99604   0.00000
           Z            0.00000  -0.00000   1.00000
 This molecule is an asymmetric top.
 Rotational symmetry number  1.
 Rotational temperatures (Kelvin)      0.53210     0.48734     0.25437
 Rotational constants (GHZ):          11.08709    10.15447     5.30015
 Zero-point vibrational energy     160229.1 (Joules/Mol)
                                   38.29567 (Kcal/Mol)
 Warning -- explicit consideration of   4 degrees of freedom as
           vibrations may cause significant error
 Vibrational temperatures:    280.05   555.43   651.35   767.41   951.61
          (Kelvin)            996.50  1051.74  1357.39  1409.69  1716.14
                             1789.74  2045.56  2085.29  2556.42  4590.97
                             4727.26  5491.70  5517.97

 Zero-point correction=                           0.061028 (Hartree/Particle)
 Thermal correction to Energy=                    0.065692
 Thermal correction to Enthalpy=                  0.066636
 Thermal correction to Gibbs Free Energy=         0.034404
 Sum of electronic and zero-point Energies=           -228.997758
 Sum of electronic and thermal Energies=              -228.993094
 Sum of electronic and thermal Enthalpies=            -228.992150
 Sum of electronic and thermal Free Energies=         -229.024382

                     E (Thermal)             CV                S
                      KCal/Mol        Cal/Mol-Kelvin    Cal/Mol-Kelvin
 Total                   41.222             15.806             67.838
 Electronic               0.000              0.000              0.000
 Translational            0.889              2.981             38.196
 Rotational               0.889              2.981             23.803
 Vibrational             39.445              9.844              5.838
 Vibration     1          0.635              1.847              2.183
 Vibration     2          0.755              1.500              1.015
 Vibration     3          0.811              1.355              0.788
 Vibration     4          0.888              1.176              0.580

 Optimization completed.
    -- Stationary point found.
 Normal termination of Gaussian 09 at Fri Aug 19 17:27:01 2022.

 -----------------------------------------------------------------
 #P Geom=AllCheck Guess=TCheck SCRF=Check CCSD(T,E4T,FrzG4)/GTBas1
 -----------------------------------------------------------------

 Structure from the checkpoint file:  "G4.Frag_808.chk"
 --------
 Frag_808
 --------
 Charge =  0 Multiplicity = 1

 SCF Done:  E(RHF) =  -227.752826103     A.U. after   11 cycles
 E2 =    -0.6075258058D+00 EUMP2 =    -0.22836035190907D+03
 CCSD(T)
 CCSD(T)= -0.22840345912D+03
 -228.4040629\MP4SDQ=-228.386078\CCSD=-228.3859034\CCSD(T)=-228.4034591
 Normal termination of Gaussian 09 at Fri Aug 19 17:27:23 2022.

 ---------------------------------------------------------
 #P Geom=AllCheck Guess=TCheck SCRF=Check MP4=FrzG4/GTBas2
 ---------------------------------------------------------

 Structure from the checkpoint file:  "G4.Frag_808.chk"
 --------
 Frag_808
 --------
 Charge =  0 Multiplicity = 1

 SCF Done:  E(RHF) =  -227.762101985     A.U. after   11 cycles
 E2 =    -0.6175182375D+00 EUMP2 =    -0.22837962022289D+03
 Normal termination of Gaussian 09 at Fri Aug 19 17:27:32 2022.

 ---------------------------------------------------------
 #P Geom=AllCheck Guess=TCheck SCRF=Check MP4=FrzG4/GTBas3
 ---------------------------------------------------------

 Structure from the checkpoint file:  "G4.Frag_808.chk"
 --------
 Frag_808
 --------
 Charge =  0 Multiplicity = 1

 SCF Done:  E(RHF) =  -227.787873581     A.U. after   11 cycles
 E2 =    -0.7506680445D+00 EUMP2 =    -0.22853854162576D+03
 Normal termination of Gaussian 09 at Fri Aug 19 17:30:46 2022.

 -----------------------------------------------------------
 #P Geom=AllCheck Guess=TCheck SCRF=Check MP2=Full/GTLargeXP
 -----------------------------------------------------------

 Structure from the checkpoint file:  "G4.Frag_808.chk"
 --------
 Frag_808
 --------
 Charge =  0 Multiplicity = 1

 SCF Done:  E(RHF) =  -227.854066098     A.U. after   12 cycles
 E2 =    -0.9837978347D+00 EUMP2 =    -0.22883786393279D+03
 Normal termination of Gaussian 09 at Fri Aug 19 17:31:26 2022.
 SCF Done:  E(RHF) =  -227.873518586     A.U. after    8 cycles
 Normal termination of Gaussian 09 at Fri Aug 19 17:32:35 2022.

                         Standard orientation:
 ---------------------------------------------------------------------
 Center     Atomic      Atomic             Coordinates (Angstroms)
 Number     Number       Type             X           Y           Z
 ---------------------------------------------------------------------
      1          6           0        1.395592    0.221698    0.000001
      2          6           0        0.076401    0.035307   -0.000002
      3          8           0       -0.570572   -1.163118   -0.000002
      4          8           0       -0.815891    1.046650   -0.000003
      5          1           0        2.076519   -0.617859   -0.000003
      6          1           0        1.799852    1.222444    0.000009
      7          1           0        0.081233   -1.871744    0.000012
      8          1           0       -1.697860    0.656873    0.000024
 ---------------------------------------------------------------------

 SCF Done:  E(RHF) =  -227.877690961     A.U. after    8 cycles

 The electronic state is 1-A.
 Alpha  occ. eigenvalues --  -20.60955 -20.59802 -11.36496 -11.20082  -1.46725
 Alpha  occ. eigenvalues --   -1.37925  -1.02031  -0.83710  -0.76721  -0.68642
 Alpha  occ. eigenvalues --   -0.64110  -0.59320  -0.59147  -0.55150  -0.53762
 Alpha  occ. eigenvalues --   -0.33657
 Alpha virt. eigenvalues --    0.04062   0.04413   0.05663   0.06404   0.07456
 Alpha virt. eigenvalues --    0.08446   0.08472   0.12551   0.13830   0.14898
 Alpha virt. eigenvalues --    0.15704   0.16334   0.16781   0.17201   0.18391

 Mulliken charges:
               1
     1  C   -0.513353
     2  C    0.452857
     3  O   -0.561417
     4  O   -0.536744
     5  H    0.154359
     6  H    0.204691
     7  H    0.398104
     8  H    0.401503
 Sum of Mulliken charges =  -0.00000

 Dipole moment (field-independent basis, Debye):
    X=             -0.2576    Y=             -1.8068    Z=              0.0001  Tot=              1.8250
 Quadrupole moment (field-independent basis, Debye-Ang):
   XX=            -20.9374   YY=            -22.1536   ZZ=            -26.4471
   XY=             -2.0311   XZ=             -0.0001   YZ=             -0.0000

 Normal termination of Gaussian 09 at Fri Aug 19 18:08:07 2022.
