 Gaussian 09, Revision E.01,
 Gaussian 09:  ES64L-G09RevE.01 30-Nov-2015

 -----
 #P G4
 -----

 --------
 Frag_838
 --------
 Symbolic Z-matrix:
 Charge =  0 Multiplicity = 1

 SCF Done:  E(RB3LYP) =  -248.434267631     A.U. after   15 cycles
 SCF Done:  E(RB3LYP) =  -248.446560366     A.U. after   13 cycles
 SCF Done:  E(RB3LYP) =  -248.448338729     A.U. after   13 cycles
 SCF Done:  E(RB3LYP) =  -248.449175855     A.U. after   13 cycles
 SCF Done:  E(RB3LYP) =  -248.449955430     A.U. after   13 cycles
 SCF Done:  E(RB3LYP) =  -248.450240541     A.U. after   13 cycles
 SCF Done:  E(RB3LYP) =  -248.450354664     A.U. after    9 cycles
 SCF Done:  E(RB3LYP) =  -248.450375158     A.U. after    9 cycles
 SCF Done:  E(RB3LYP) =  -248.450376008     A.U. after    9 cycles
 SCF Done:  E(RB3LYP) =  -248.450376769     A.U. after    8 cycles
 SCF Done:  E(RB3LYP) =  -248.450376816     A.U. after    7 cycles
 Optimization completed.
    -- Stationary point found.
 Normal termination of Gaussian 09 at Fri Aug 26 06:30:55 2022.

 ----------------------------------------------------------
 #P Geom=AllCheck Guess=TCheck SCRF=Check B3LYP/GTBas3 Freq
 ----------------------------------------------------------

 Structure from the checkpoint file:  "G4.Frag_838.chk"
 --------
 Frag_838
 --------
 Charge =  0 Multiplicity = 1

 SCF Done:  E(RB3LYP) =  -248.450376816     A.U. after    1 cycles

  Exact polarizability:  54.448  -5.978  49.916   4.314  -1.700  33.830
 Approx polarizability:  72.297 -17.766  96.228   8.318  -6.968  49.140

                      1                      2                      3
                      A                      A                      A
 Frequencies --     89.9321               220.3107               290.2384
 Red. masses --      2.4338                 1.0799                 2.9365
 Frc consts  --      0.0116                 0.0309                 0.1457
 IR Inten    --      2.6411                 0.7611                 6.3026

                      4                      5                      6
                      A                      A                      A
 Frequencies --    463.7210               537.3254               623.8772
 Red. masses --      2.3371                 2.9619                 1.7969
 Frc consts  --      0.2961                 0.5038                 0.4121
 IR Inten    --      1.8716                12.1789                 1.7706

                      7                      8                      9
                      A                      A                      A
 Frequencies --    694.3044               793.3153               797.8359
 Red. masses --      1.4296                 1.5055                 1.9344
 Frc consts  --      0.4060                 0.5582                 0.7255
 IR Inten    --     18.6837                17.0927                18.4695

                     10                     11                     12
                      A                      A                      A
 Frequencies --    815.0024              1003.7332              1094.9627
 Red. masses --      1.3995                 2.0622                 1.8971
 Frc consts  --      0.5477                 1.2241                 1.3401
 IR Inten    --      4.0802                 2.9371                 7.1884

                     13                     14                     15
                      A                      A                      A
 Frequencies --   1116.8959              1155.6686              1287.5559
 Red. masses --      2.0714                 1.6534                 1.1689
 Frc consts  --      1.5224                 1.3011                 1.1417
 IR Inten    --     22.8613                22.3452                 8.7382

                     16                     17                     18
                      A                      A                      A
 Frequencies --   1352.1417              1368.8999              1402.7617
 Red. masses --      2.6435                 1.2868                 1.2770
 Frc consts  --      2.8475                 1.4207                 1.4806
 IR Inten    --     44.1576                 4.2142                 5.3018

                     19                     20                     21
                      A                      A                      A
 Frequencies --   1465.2662              1482.9845              1493.1358
 Red. masses --      1.2011                 1.0883                 1.1910
 Frc consts  --      1.5193                 1.4102                 1.5644
 IR Inten    --      6.5450                11.4524                 2.9215

                     22                     23                     24
                      A                      A                      A
 Frequencies --   1510.0075              1652.0333              3051.8523
 Red. masses --      1.0643                 6.2942                 1.0363
 Frc consts  --      1.4298                10.1211                 5.6866
 IR Inten    --      3.7256               132.5292                16.6672

                     25                     26                     27
                      A                      A                      A
 Frequencies --   3069.8271              3116.0275              3128.5075
 Red. masses --      1.0579                 1.1021                 1.1053
 Frc consts  --      5.8737                 6.3051                 6.3740
 IR Inten    --     13.3819                10.8166                17.9729

                     28                     29                     30
                      A                      A                      A
 Frequencies --   3154.7264              3193.6024              3320.6677
 Red. masses --      1.1019                 1.0518                 1.1245
 Frc consts  --      6.4611                 6.3203                 7.3054
 IR Inten    --      8.5922                 1.0434                 0.6068

 - Thermochemistry -
 -------------------
 Temperature   298.150 Kelvin.  Pressure   1.00000 Atm.
 Atom     1 has atomic number  6 and mass  12.00000

 Molecular mass:    73.05276 amu.
 Principal axes and moments of inertia in atomic units:
                           1         2         3
     Eigenvalues --   199.45517 437.98239 559.32277
           X            0.99941  -0.03432   0.00206
           Y            0.03429   0.99934   0.01192
           Z           -0.00247  -0.01185   0.99993
 This molecule is an asymmetric top.
 Rotational symmetry number  1.
 Rotational temperatures (Kelvin)      0.43425     0.19776     0.15485
 Rotational constants (GHZ):           9.04835     4.12058     3.22665
 Zero-point vibrational energy     267647.2 (Joules/Mol)
                                   63.96922 (Kcal/Mol)
 Warning -- explicit consideration of   5 degrees of freedom as
           vibrations may cause significant error
 Vibrational temperatures:    129.39   316.98   417.59   667.19   773.09
          (Kelvin)            897.62   998.95  1141.40  1147.91  1172.61
                             1444.15  1575.41  1606.96  1662.75  1852.50
                             1945.43  1969.54  2018.26  2108.19  2133.68
                             2148.29  2172.56  2376.90  4390.93  4416.79
                             4483.26  4501.22  4538.94  4594.88  4777.69

 Zero-point correction=                           0.101941 (Hartree/Particle)
 Thermal correction to Energy=                    0.107601
 Thermal correction to Enthalpy=                  0.108545
 Thermal correction to Gibbs Free Energy=         0.073223
 Sum of electronic and zero-point Energies=           -248.348435
 Sum of electronic and thermal Energies=              -248.342776
 Sum of electronic and thermal Enthalpies=            -248.341831
 Sum of electronic and thermal Free Energies=         -248.377154

                     E (Thermal)             CV                S
                      KCal/Mol        Cal/Mol-Kelvin    Cal/Mol-Kelvin
 Total                   67.521             19.700             74.342
 Electronic               0.000              0.000              0.000
 Translational            0.889              2.981             38.782
 Rotational               0.889              2.981             25.394
 Vibrational             65.743             13.738             10.166
 Vibration     1          0.602              1.956              3.662
 Vibration     2          0.647              1.810              1.957
 Vibration     3          0.686              1.692              1.473
 Vibration     4          0.821              1.331              0.755
 Vibration     5          0.892              1.167              0.571

 Optimization completed.
    -- Stationary point found.
 Normal termination of Gaussian 09 at Fri Aug 26 06:31:16 2022.

 -----------------------------------------------------------------
 #P Geom=AllCheck Guess=TCheck SCRF=Check CCSD(T,E4T,FrzG4)/GTBas1
 -----------------------------------------------------------------

 Structure from the checkpoint file:  "G4.Frag_838.chk"
 --------
 Frag_838
 --------
 Charge =  0 Multiplicity = 1

 SCF Done:  E(RHF) =  -246.884912201     A.U. after   14 cycles
 E2 =    -0.7472154462D+00 EUMP2 =    -0.24763212764714D+03
 CCSD(T)
 CCSD(T)= -0.24769785907D+03
 69\CCSD=-247.6693854\CCSD(T)=-247.6978591\RMSD=2.481e-09\PG=C01 [X(C3H
 Normal termination of Gaussian 09 at Fri Aug 26 06:32:20 2022.

 ---------------------------------------------------------
 #P Geom=AllCheck Guess=TCheck SCRF=Check MP4=FrzG4/GTBas2
 ---------------------------------------------------------

 Structure from the checkpoint file:  "G4.Frag_838.chk"
 --------
 Frag_838
 --------
 Charge =  0 Multiplicity = 1

 SCF Done:  E(RHF) =  -246.894331167     A.U. after   13 cycles
 E2 =    -0.7572846600D+00 EUMP2 =    -0.24765161582668D+03
 Normal termination of Gaussian 09 at Fri Aug 26 06:32:37 2022.

 ---------------------------------------------------------
 #P Geom=AllCheck Guess=TCheck SCRF=Check MP4=FrzG4/GTBas3
 ---------------------------------------------------------

 Structure from the checkpoint file:  "G4.Frag_838.chk"
 --------
 Frag_838
 --------
 Charge =  0 Multiplicity = 1

 SCF Done:  E(RHF) =  -246.914590692     A.U. after   12 cycles
 E2 =    -0.9141832901D+00 EUMP2 =    -0.24782877398224D+03
 Normal termination of Gaussian 09 at Fri Aug 26 06:34:01 2022.

 -----------------------------------------------------------
 #P Geom=AllCheck Guess=TCheck SCRF=Check MP2=Full/GTLargeXP
 -----------------------------------------------------------

 Structure from the checkpoint file:  "G4.Frag_838.chk"
 --------
 Frag_838
 --------
 Charge =  0 Multiplicity = 1

 SCF Done:  E(RHF) =  -246.978719721     A.U. after   13 cycles
 E2 =    -0.1192594606D+01 EUMP2 =    -0.24817131432714D+03
 Normal termination of Gaussian 09 at Fri Aug 26 06:34:55 2022.
 SCF Done:  E(RHF) =  -246.998777929     A.U. after   10 cycles
 Normal termination of Gaussian 09 at Fri Aug 26 06:36:06 2022.

                         Standard orientation:
 ---------------------------------------------------------------------
 Center     Atomic      Atomic             Coordinates (Angstroms)
 Number     Number       Type             X           Y           Z
 ---------------------------------------------------------------------
      1          6           0       -1.583090    0.732540   -0.256727
      2          7           0       -0.607170   -0.063251    0.080024
      3          8           0       -0.656938   -1.323588    0.080740
      4          6           0        0.700353    0.517207    0.512679
      5          6           0        1.828261    0.004783   -0.372967
      6          1           0       -2.515608    0.280436   -0.560239
      7          1           0       -1.435132    1.799698   -0.217096
      8          1           0        0.835350    0.184774    1.545281
      9          1           0        0.623697    1.606295    0.495099
     10          1           0        1.818667   -1.086010   -0.379115
     11          1           0        1.715651    0.364654   -1.400011
     12          1           0        2.789929    0.354429    0.012090
 ---------------------------------------------------------------------

 SCF Done:  E(RHF) =  -247.002944739     A.U. after    8 cycles

 The electronic state is 1-A.
 Alpha  occ. eigenvalues --  -20.51023 -15.72517 -11.28562 -11.28013 -11.22828
 Alpha  occ. eigenvalues --   -1.44983  -1.15579  -1.05214  -0.90592  -0.79955
 Alpha  occ. eigenvalues --   -0.71002  -0.68324  -0.64830  -0.60842  -0.58129
 Alpha  occ. eigenvalues --   -0.53921  -0.52724  -0.51007  -0.41759  -0.34187
 Alpha virt. eigenvalues --    0.03163   0.03799   0.04102   0.05267   0.06312
 Alpha virt. eigenvalues --    0.06932   0.07268   0.08171   0.09419   0.10065
 Alpha virt. eigenvalues --    0.12093   0.12494   0.14343   0.14867   0.15498

 Mulliken charges:
               1
     1  C   -0.358331
     2  N    0.308034
     3  O   -0.608186
     4  C   -0.221647
     5  C   -0.512408
     6  H    0.235344
     7  H    0.215525
     8  H    0.199414
     9  H    0.179988
    10  H    0.225470
    11  H    0.165118
    12  H    0.171680
 Sum of Mulliken charges =  -0.00000

 Dipole moment (field-independent basis, Debye):
    X=              0.8051    Y=              4.1816    Z=              0.0570  Tot=              4.2588
 Quadrupole moment (field-independent basis, Debye-Ang):
   XX=            -27.7512   YY=            -34.4199   ZZ=            -31.4007
   XY=             -3.1749   XZ=              1.5770   YZ=              0.3166

 Normal termination of Gaussian 09 at Fri Aug 26 06:42:21 2022.
