 Gaussian 09, Revision E.01,
 Gaussian 09:  ES64L-G09RevE.01 30-Nov-2015

 -----
 #P G4
 -----

 --------
 Frag_943
 --------
 Symbolic Z-matrix:
 Charge =  0 Multiplicity = 1

 SCF Done:  E(RB3LYP) =  -319.847758671     A.U. after   14 cycles
 SCF Done:  E(RB3LYP) =  -319.861191708     A.U. after   13 cycles
 SCF Done:  E(RB3LYP) =  -319.862542800     A.U. after   11 cycles
 SCF Done:  E(RB3LYP) =  -319.863011188     A.U. after   12 cycles
 SCF Done:  E(RB3LYP) =  -319.863185027     A.U. after   12 cycles
 SCF Done:  E(RB3LYP) =  -319.863290016     A.U. after   13 cycles
 SCF Done:  E(RB3LYP) =  -319.863211133     A.U. after   15 cycles
 SCF Done:  E(RB3LYP) =  -319.863595691     A.U. after   12 cycles
 SCF Done:  E(RB3LYP) =  -319.863660029     A.U. after   15 cycles
 SCF Done:  E(RB3LYP) =  -319.863708451     A.U. after   13 cycles
 SCF Done:  E(RB3LYP) =  -319.874566587     A.U. after    9 cycles
 SCF Done:  E(RB3LYP) =  -319.874568841     A.U. after    9 cycles
 SCF Done:  E(RB3LYP) =  -319.874569362     A.U. after    8 cycles
 Optimization completed.
    -- Stationary point found.
 Normal termination of Gaussian 09 at Mon Aug 22 22:57:25 2022.

 ----------------------------------------------------------
 #P Geom=AllCheck Guess=TCheck SCRF=Check B3LYP/GTBas3 Freq
 ----------------------------------------------------------

 Structure from the checkpoint file:  "G4.Frag_943.chk"
 --------
 Frag_943
 --------
 Charge =  0 Multiplicity = 1

 SCF Done:  E(RB3LYP) =  -319.874569362     A.U. after    1 cycles

  Exact polarizability:  52.892  -1.212  43.911   1.281  -3.262  44.863
 Approx polarizability:  79.321  -1.381  62.983   6.341  -6.770  67.587

                      1                      2                      3
                      A                      A                      A
 Frequencies --    137.8721               224.7979               274.7533
 Red. masses --      3.6970                 1.0329                 1.2988
 Frc consts  --      0.0414                 0.0308                 0.0578
 IR Inten    --      1.7126                 0.4729                 6.0265

                      4                      5                      6
                      A                      A                      A
 Frequencies --    312.1964               341.5367               393.8919
 Red. masses --      1.4132                 3.4841                 2.2182
 Frc consts  --      0.0812                 0.2394                 0.2028
 IR Inten    --     56.1103                 3.3301                33.4479

                      7                      8                      9
                      A                      A                      A
 Frequencies --    394.1211               487.7021               508.9072
 Red. masses --      2.4507                 2.4229                 3.4110
 Frc consts  --      0.2243                 0.3395                 0.5205
 IR Inten    --     15.3159                34.8814                32.5046

                     10                     11                     12
                      A                      A                      A
 Frequencies --    633.7478               730.5464               792.1728
 Red. masses --      2.9014                 3.4672                 2.8144
 Frc consts  --      0.6866                 1.0902                 1.0406
 IR Inten    --     34.6211                18.2856                59.3034

                     13                     14                     15
                      A                      A                      A
 Frequencies --    886.7536               984.5658              1014.3684
 Red. masses --      1.8070                 1.6128                 1.8780
 Frc consts  --      0.8372                 0.9211                 1.1385
 IR Inten    --     27.0472                12.3861                55.2053

                     16                     17                     18
                      A                      A                      A
 Frequencies --   1066.5538              1144.5639              1213.5246
 Red. masses --      1.3698                 1.6449                 2.2639
 Frc consts  --      0.9180                 1.2696                 1.9643
 IR Inten    --     30.8485                 7.7098               151.4413

                     19                     20                     21
                      A                      A                      A
 Frequencies --   1333.9885              1382.1104              1401.2916
 Red. masses --      1.9790                 1.7070                 1.3644
 Frc consts  --      2.0750                 1.9212                 1.5785
 IR Inten    --     31.7358                52.4493                23.6662

                     22                     23                     24
                      A                      A                      A
 Frequencies --   1484.7974              1489.8409              1503.5769
 Red. masses --      1.0817                 1.0503                 1.2459
 Frc consts  --      1.4051                 1.3735                 1.6596
 IR Inten    --      1.5478                 1.7642               117.8289

                     25                     26                     27
                      A                      A                      A
 Frequencies --   1650.8826              1700.4241              3018.9323
 Red. masses --      1.1135                10.2270                 1.0659
 Frc consts  --      1.7881                17.4226                 5.7235
 IR Inten    --     40.2946                11.4431                25.7848

                     28                     29                     30
                      A                      A                      A
 Frequencies --   3044.6831              3122.5650              3134.2206
 Red. masses --      1.0347                 1.1031                 1.1014
 Frc consts  --      5.6511                 6.3368                 6.3744
 IR Inten    --      9.5804                14.0719                10.4729

                     31                     32                     33
                      A                      A                      A
 Frequencies --   3537.0046              3628.1636              3754.6333
 Red. masses --      1.0489                 1.0947                 1.0647
 Frc consts  --      7.7316                 8.4906                 8.8430
 IR Inten    --      9.9352                13.7073                32.0383

 - Thermochemistry -
 -------------------
 Temperature   298.150 Kelvin.  Pressure   1.00000 Atm.
 Atom     1 has atomic number  6 and mass  12.00000

 Molecular mass:    89.05891 amu.
 Principal axes and moments of inertia in atomic units:
                           1         2         3
     Eigenvalues --   378.83845 590.24539 591.99517
           X            0.99713  -0.05986  -0.04630
           Y            0.06864   0.97304   0.22018
           Z            0.03187  -0.22273   0.97436
 This molecule is an asymmetric top.
 Rotational symmetry number  1.
 Rotational temperatures (Kelvin)      0.22863     0.14674     0.14631
 Rotational constants (GHZ):           4.76388     3.05761     3.04857
 Zero-point vibrational energy     279505.6 (Joules/Mol)
                                   66.80345 (Kcal/Mol)
 Warning -- explicit consideration of   9 degrees of freedom as
           vibrations may cause significant error
 Vibrational temperatures:    198.37   323.43   395.31   449.18   491.39
          (Kelvin)            566.72   567.05   701.69   732.20   911.82
                             1051.09  1139.76  1275.84  1416.57  1459.45
                             1534.53  1646.77  1745.99  1919.31  1988.55
                             2016.14  2136.29  2143.55  2163.31  2375.25
                             2446.53  4343.56  4380.61  4492.67  4509.44
                             5088.95  5220.11  5402.07

 Zero-point correction=                           0.106458 (Hartree/Particle)
 Thermal correction to Energy=                    0.113353
 Thermal correction to Enthalpy=                  0.114297
 Thermal correction to Gibbs Free Energy=         0.076565
 Sum of electronic and zero-point Energies=           -319.768111
 Sum of electronic and thermal Energies=              -319.761216
 Sum of electronic and thermal Enthalpies=            -319.760272
 Sum of electronic and thermal Free Energies=         -319.798005

                     E (Thermal)             CV                S
                      KCal/Mol        Cal/Mol-Kelvin    Cal/Mol-Kelvin
 Total                   71.130             25.200             79.415
 Electronic               0.000              0.000              0.000
 Translational            0.889              2.981             39.373
 Rotational               0.889              2.981             26.384
 Vibrational             69.353             19.238             13.658
 Vibration     1          0.614              1.915              2.833
 Vibration     2          0.649              1.803              1.920
 Vibration     3          0.677              1.720              1.566
 Vibration     4          0.701              1.650              1.351
 Vibration     5          0.721              1.592              1.205
 Vibration     6          0.761              1.483              0.985
 Vibration     7          0.761              1.483              0.985
 Vibration     8          0.844              1.277              0.690
 Vibration     9          0.864              1.230              0.636

 Optimization completed.
    -- Stationary point found.
 Normal termination of Gaussian 09 at Mon Aug 22 22:59:39 2022.

 -----------------------------------------------------------------
 #P Geom=AllCheck Guess=TCheck SCRF=Check CCSD(T,E4T,FrzG4)/GTBas1
 -----------------------------------------------------------------

 Structure from the checkpoint file:  "G4.Frag_943.chk"
 --------
 Frag_943
 --------
 Charge =  0 Multiplicity = 1

 SCF Done:  E(RHF) =  -317.951439087     A.U. after   14 cycles
 E2 =    -0.9320334642D+00 EUMP2 =    -0.31888347255083D+03
 CCSD(T)
 CCSD(T)= -0.31895752650D+03
 P4SDTQ=-318.9585385\MP4SDQ=-318.9267323\CCSD=-318.9267113\CCSD(T)=-318
 Normal termination of Gaussian 09 at Mon Aug 22 23:05:16 2022.

 ---------------------------------------------------------
 #P Geom=AllCheck Guess=TCheck SCRF=Check MP4=FrzG4/GTBas2
 ---------------------------------------------------------

 Structure from the checkpoint file:  "G4.Frag_943.chk"
 --------
 Frag_943
 --------
 Charge =  0 Multiplicity = 1

 SCF Done:  E(RHF) =  -317.962836589     A.U. after   14 cycles
 E2 =    -0.9474674910D+00 EUMP2 =    -0.31891030408046D+03
 Normal termination of Gaussian 09 at Mon Aug 22 23:10:38 2022.

 ---------------------------------------------------------
 #P Geom=AllCheck Guess=TCheck SCRF=Check MP4=FrzG4/GTBas3
 ---------------------------------------------------------

 Structure from the checkpoint file:  "G4.Frag_943.chk"
 --------
 Frag_943
 --------
 Charge =  0 Multiplicity = 1

 SCF Done:  E(RHF) =  -317.994829701     A.U. after   14 cycles
 E2 =    -0.1132746699D+01 EUMP2 =    -0.31912757639962D+03
 Normal termination of Gaussian 09 at Tue Aug 23 01:26:14 2022.

 -----------------------------------------------------------
 #P Geom=AllCheck Guess=TCheck SCRF=Check MP2=Full/GTLargeXP
 -----------------------------------------------------------

 Structure from the checkpoint file:  "G4.Frag_943.chk"
 --------
 Frag_943
 --------
 Charge =  0 Multiplicity = 1

 SCF Done:  E(RHF) =  -318.080166062     A.U. after   13 cycles
 E2 =    -0.1474619693D+01 EUMP2 =    -0.31955478575449D+03
 Normal termination of Gaussian 09 at Tue Aug 23 01:31:37 2022.
 SCF Done:  E(RHF) =  -318.105150885     A.U. after    9 cycles
 Normal termination of Gaussian 09 at Tue Aug 23 01:37:11 2022.

                         Standard orientation:
 ---------------------------------------------------------------------
 Center     Atomic      Atomic             Coordinates (Angstroms)
 Number     Number       Type             X           Y           Z
 ---------------------------------------------------------------------
      1          6           0        1.077856   -1.037330   -0.754163
      2          6           0        0.340072    0.045201    0.031646
      3          7           0        0.135772    1.227601   -0.748386
      4          8           0        0.992737    0.365673    1.239679
      5          7           0       -0.983530   -0.570206    0.484778
      6          7           0       -2.018702   -0.190886   -0.057173
      7          1           0        0.609442   -1.202396   -1.729030
      8          1           0        1.054779   -1.976366   -0.196734
      9          1           0        2.120960   -0.739537   -0.894082
     10          1           0        0.164107    2.047526   -0.153043
     11          1           0        0.812709    1.330493   -1.492384
     12          1           0        0.636280   -0.235856    1.908049
     13          1           0       -1.782518    0.537958   -0.779644
 ---------------------------------------------------------------------

 SCF Done:  E(RHF) =  -318.110451300     A.U. after    8 cycles

 The electronic state is 1-A.
 Alpha  occ. eigenvalues --  -20.57263 -15.62369 -15.61350 -15.56926 -11.35909
 Alpha  occ. eigenvalues --  -11.23494  -1.40941  -1.34606  -1.20424  -1.02272
 Alpha  occ. eigenvalues --   -0.91831  -0.81811  -0.75187  -0.70606  -0.67661
 Alpha  occ. eigenvalues --   -0.60346  -0.59892  -0.57878  -0.55399  -0.54270
 Alpha  occ. eigenvalues --   -0.50040  -0.48354  -0.44161  -0.38464
 Alpha virt. eigenvalues --    0.03242   0.04399   0.05024   0.05718   0.06945
 Alpha virt. eigenvalues --    0.07321   0.07564   0.08607   0.09685   0.11159
 Alpha virt. eigenvalues --    0.11868   0.12451   0.13527   0.13722   0.15211

 Mulliken charges:
               1
     1  C   -0.578358
     2  C    0.528065
     3  N   -0.763046
     4  O   -0.595390
     5  N   -0.132874
     6  N   -0.377745
     7  H    0.191151
     8  H    0.201830
     9  H    0.190986
    10  H    0.326209
    11  H    0.312924
    12  H    0.392658
    13  H    0.303592
 Sum of Mulliken charges =  -0.00000

 Dipole moment (field-independent basis, Debye):
    X=              2.2175    Y=              0.9218    Z=             -1.6421  Tot=              2.9092
 Quadrupole moment (field-independent basis, Debye-Ang):
   XX=            -43.4589   YY=            -34.7329   ZZ=            -34.2219
   XY=             -3.0200   XZ=             -0.9593   YZ=             -1.2762

 Normal termination of Gaussian 09 at Tue Aug 23 04:09:18 2022.
