 Gaussian 09, Revision E.01,
 Gaussian 09:  ES64L-G09RevE.01 30-Nov-2015

 -----
 #P G4
 -----

 --------
 Frag_872
 --------
 Symbolic Z-matrix:
 Charge =  0 Multiplicity = 1

 SCF Done:  E(RB3LYP) =  -265.702949418     A.U. after   12 cycles
 SCF Done:  E(RB3LYP) =  -265.710590507     A.U. after   11 cycles
 SCF Done:  E(RB3LYP) =  -265.712172498     A.U. after   11 cycles
 SCF Done:  E(RB3LYP) =  -265.712645969     A.U. after   10 cycles
 SCF Done:  E(RB3LYP) =  -265.712709177     A.U. after   10 cycles
 SCF Done:  E(RB3LYP) =  -265.712745140     A.U. after   10 cycles
 SCF Done:  E(RB3LYP) =  -265.712777583     A.U. after   10 cycles
 SCF Done:  E(RB3LYP) =  -265.712794282     A.U. after    9 cycles
 SCF Done:  E(RB3LYP) =  -265.712797385     A.U. after    9 cycles
 SCF Done:  E(RB3LYP) =  -265.712797870     A.U. after    7 cycles
 SCF Done:  E(RB3LYP) =  -265.712797928     A.U. after    6 cycles
 Optimization completed.
    -- Stationary point found.
 Normal termination of Gaussian 09 at Tue Aug 23 11:14:28 2022.

 ----------------------------------------------------------
 #P Geom=AllCheck Guess=TCheck SCRF=Check B3LYP/GTBas3 Freq
 ----------------------------------------------------------

 Structure from the checkpoint file:  "G4.Frag_872.chk"
 --------
 Frag_872
 --------
 Charge =  0 Multiplicity = 1

 SCF Done:  E(RB3LYP) =  -265.712797928     A.U. after    1 cycles

  Exact polarizability:  52.968   0.157  41.959  -0.243  -1.172  35.583
 Approx polarizability:  66.192   0.026  57.424   0.063  -1.214  51.855

                      1                      2                      3
                      A                      A                      A
 Frequencies --    124.5398               151.5385               207.0174
 Red. masses --      1.5738                 1.7691                 1.0361
 Frc consts  --      0.0144                 0.0239                 0.0262
 IR Inten    --     46.1138                17.4980                 4.4418

                      4                      5                      6
                      A                      A                      A
 Frequencies --    259.9915               303.1457               376.3023
 Red. masses --      1.3206                 2.1042                 2.7506
 Frc consts  --      0.0526                 0.1139                 0.2295
 IR Inten    --     17.1695                 7.7625                 1.3501

                      7                      8                      9
                      A                      A                      A
 Frequencies --    523.7256               563.4589               835.1440
 Red. masses --      3.1110                 3.6883                 2.0408
 Frc consts  --      0.5027                 0.6899                 0.8387
 IR Inten    --     11.3260                 7.1066                33.3096

                     10                     11                     12
                      A                      A                      A
 Frequencies --    870.0441               933.8048               972.2722
 Red. masses --      1.7232                 2.7995                 2.0220
 Frc consts  --      0.7685                 1.4383                 1.1262
 IR Inten    --     94.5590                12.1901                42.4798

                     13                     14                     15
                      A                      A                      A
 Frequencies --   1011.2882              1107.9075              1166.1954
 Red. masses --      1.7348                 2.0064                 1.9061
 Frc consts  --      1.0453                 1.4510                 1.5274
 IR Inten    --     14.9585                39.2013                57.5021

                     16                     17                     18
                      A                      A                      A
 Frequencies --   1243.1714              1262.2509              1318.8417
 Red. masses --      1.4030                 1.5807                 1.1213
 Frc consts  --      1.2775                 1.4839                 1.1491
 IR Inten    --     24.5395                36.8510                 1.1100

                     19                     20                     21
                      A                      A                      A
 Frequencies --   1389.2034              1398.3377              1429.5768
 Red. masses --      1.2525                 1.1923                 1.6917
 Frc consts  --      1.4242                 1.3737                 2.0370
 IR Inten    --      1.5194                31.2006                35.1944

                     22                     23                     24
                      A                      A                      A
 Frequencies --   1484.0385              1495.3668              1637.4084
 Red. masses --      1.0464                 1.0559                 1.0941
 Frc consts  --      1.3578                 1.3911                 1.7284
 IR Inten    --      2.5418                 1.1287                54.3289

                     25                     26                     27
                      A                      A                      A
 Frequencies --   1651.9545              2932.9522              3048.7191
 Red. masses --      1.0721                 1.0819                 1.0352
 Frc consts  --      1.7238                 5.4836                 5.6693
 IR Inten    --      7.8317                86.7009                13.3541

                     28                     29                     30
                      A                      A                      A
 Frequencies --   3121.8414              3136.4554              3432.6324
 Red. masses --      1.1007                 1.1027                 1.0474
 Frc consts  --      6.3203                 6.3912                 7.2714
 IR Inten    --     21.0376                17.9110                 1.2681

                     31                     32                     33
                      A                      A                      A
 Frequencies --   3495.9366              3514.9435              3575.6012
 Red. masses --      1.0491                 1.0956                 1.0918
 Frc consts  --      7.5542                 7.9749                 8.2240
 IR Inten    --      0.9166                 0.3919                 0.8881

 - Thermochemistry -
 -------------------
 Temperature   298.150 Kelvin.  Pressure   1.00000 Atm.
 Atom     1 has atomic number  6 and mass  12.00000

 Molecular mass:    76.06366 amu.
 Principal axes and moments of inertia in atomic units:
                           1         2         3
     Eigenvalues --   214.85193 462.20257 622.46964
           X            0.99977   0.02103  -0.00509
           Y           -0.02101   0.99977   0.00492
           Z            0.00519  -0.00481   0.99997
 This molecule is an asymmetric top.
 Rotational symmetry number  1.
 Rotational temperatures (Kelvin)      0.40313     0.18739     0.13915
 Rotational constants (GHZ):           8.39993     3.90465     2.89932
 Zero-point vibrational energy     298920.5 (Joules/Mol)
                                   71.44372 (Kcal/Mol)
 Warning -- explicit consideration of   8 degrees of freedom as
           vibrations may cause significant error
 Vibrational temperatures:    179.18   218.03   297.85   374.07   436.16
          (Kelvin)            541.41   753.52   810.69  1201.58  1251.80
                             1343.54  1398.88  1455.02  1594.03  1677.89
                             1788.64  1816.10  1897.52  1998.75  2011.89
                             2056.84  2135.20  2151.50  2355.86  2376.79
                             4219.86  4386.42  4491.63  4512.65  4938.79
                             5029.87  5057.21  5144.49

 Zero-point correction=                           0.113853 (Hartree/Particle)
 Thermal correction to Energy=                    0.120546
 Thermal correction to Enthalpy=                  0.121490
 Thermal correction to Gibbs Free Energy=         0.084212
 Sum of electronic and zero-point Energies=           -265.598945
 Sum of electronic and thermal Energies=              -265.592252
 Sum of electronic and thermal Enthalpies=            -265.591307
 Sum of electronic and thermal Free Energies=         -265.628586

                     E (Thermal)             CV                S
                      KCal/Mol        Cal/Mol-Kelvin    Cal/Mol-Kelvin
 Total                   75.644             22.773             78.459
 Electronic               0.000              0.000              0.000
 Translational            0.889              2.981             38.903
 Rotational               0.889              2.981             25.628
 Vibrational             73.866             16.811             13.929
 Vibration     1          0.610              1.928              3.029
 Vibration     2          0.619              1.901              2.653
 Vibration     3          0.641              1.830              2.070
 Vibration     4          0.668              1.746              1.662
 Vibration     5          0.695              1.668              1.399
 Vibration     6          0.747              1.521              1.054
 Vibration     7          0.879              1.197              0.601
 Vibration     8          0.919              1.110              0.517

 Optimization completed.
    -- Stationary point found.
 Normal termination of Gaussian 09 at Tue Aug 23 11:16:06 2022.

 -----------------------------------------------------------------
 #P Geom=AllCheck Guess=TCheck SCRF=Check CCSD(T,E4T,FrzG4)/GTBas1
 -----------------------------------------------------------------

 Structure from the checkpoint file:  "G4.Frag_872.chk"
 --------
 Frag_872
 --------
 Charge =  0 Multiplicity = 1

 SCF Done:  E(RHF) =  -264.074384472     A.U. after   12 cycles
 E2 =    -0.7713463777D+00 EUMP2 =    -0.26484573084993D+03
 CCSD(T)
 CCSD(T)= -0.26491503640D+03
 \MP4SDTQ=-264.9142134\MP4SDQ=-264.8925712\CCSD=-264.8933482\CCSD(T)=-2
 Normal termination of Gaussian 09 at Tue Aug 23 11:18:38 2022.

 ---------------------------------------------------------
 #P Geom=AllCheck Guess=TCheck SCRF=Check MP4=FrzG4/GTBas2
 ---------------------------------------------------------

 Structure from the checkpoint file:  "G4.Frag_872.chk"
 --------
 Frag_872
 --------
 Charge =  0 Multiplicity = 1

 SCF Done:  E(RHF) =  -264.084718904     A.U. after   12 cycles
 E2 =    -0.7853268568D+00 EUMP2 =    -0.26487004576063D+03
 Normal termination of Gaussian 09 at Tue Aug 23 11:22:11 2022.

 ---------------------------------------------------------
 #P Geom=AllCheck Guess=TCheck SCRF=Check MP4=FrzG4/GTBas3
 ---------------------------------------------------------

 Structure from the checkpoint file:  "G4.Frag_872.chk"
 --------
 Frag_872
 --------
 Charge =  0 Multiplicity = 1

 SCF Done:  E(RHF) =  -264.110817462     A.U. after   11 cycles
 E2 =    -0.9549892921D+00 EUMP2 =    -0.26506580675428D+03
 Normal termination of Gaussian 09 at Tue Aug 23 12:16:55 2022.

 -----------------------------------------------------------
 #P Geom=AllCheck Guess=TCheck SCRF=Check MP2=Full/GTLargeXP
 -----------------------------------------------------------

 Structure from the checkpoint file:  "G4.Frag_872.chk"
 --------
 Frag_872
 --------
 Charge =  0 Multiplicity = 1

 SCF Done:  E(RHF) =  -264.183438626     A.U. after   12 cycles
 E2 =    -0.1242434639D+01 EUMP2 =    -0.26542587326473D+03
 Normal termination of Gaussian 09 at Tue Aug 23 12:20:05 2022.
 SCF Done:  E(RHF) =  -264.204675169     A.U. after    9 cycles
 Normal termination of Gaussian 09 at Tue Aug 23 12:23:43 2022.

                         Standard orientation:
 ---------------------------------------------------------------------
 Center     Atomic      Atomic             Coordinates (Angstroms)
 Number     Number       Type             X           Y           Z
 ---------------------------------------------------------------------
      1          6           0       -1.682488   -0.736028   -0.049867
      2          6           0       -0.422456    0.027503    0.326779
      3          7           0       -0.468573    1.386878   -0.197075
      4          8           0        0.654310   -0.681903   -0.268135
      5          7           0        1.887476   -0.054438    0.124121
      6          1           0       -2.557367   -0.294038    0.436476
      7          1           0       -1.825698   -0.701039   -1.132932
      8          1           0       -1.600213   -1.778389    0.266564
      9          1           0       -0.271673    0.000051    1.420799
     10          1           0        0.289970    1.919363    0.218984
     11          1           0       -1.333407    1.834460    0.091165
     12          1           0        2.455459   -0.834244    0.453724
     13          1           0        2.305796    0.233122   -0.760495
 ---------------------------------------------------------------------

 SCF Done:  E(RHF) =  -264.209356596     A.U. after    8 cycles

 The electronic state is 1-A.
 Alpha  occ. eigenvalues --  -20.57661 -15.60282 -15.53650 -11.30190 -11.21181
 Alpha  occ. eigenvalues --   -1.40472  -1.17962  -1.08883  -0.97206  -0.80492
 Alpha  occ. eigenvalues --   -0.70632  -0.67262  -0.65297  -0.63338  -0.58824
 Alpha  occ. eigenvalues --   -0.53395  -0.52548  -0.49690  -0.45544  -0.43010
 Alpha  occ. eigenvalues --   -0.39558
 Alpha virt. eigenvalues --    0.04176   0.04574   0.05304   0.05555   0.07558
 Alpha virt. eigenvalues --    0.07932   0.08245   0.09644   0.10079   0.11216
 Alpha virt. eigenvalues --    0.11945   0.12600   0.13767   0.15171   0.17028

 Mulliken charges:
               1
     1  C   -0.518841
     2  C    0.234216
     3  N   -0.723176
     4  O   -0.303138
     5  N   -0.574272
     6  H    0.156533
     7  H    0.192155
     8  H    0.177460
     9  H    0.124599
    10  H    0.312013
    11  H    0.283866
    12  H    0.314681
    13  H    0.323905
 Sum of Mulliken charges =  -0.00000

 Dipole moment (field-independent basis, Debye):
    X=              0.3618    Y=              0.2265    Z=              1.2361  Tot=              1.3078
 Quadrupole moment (field-independent basis, Debye-Ang):
   XX=            -25.0651   YY=            -31.1649   ZZ=            -33.3250
   XY=             -1.7279   XZ=             -2.1367   YZ=              0.6002

 Normal termination of Gaussian 09 at Tue Aug 23 14:01:04 2022.
