 Gaussian 09, Revision E.01,
 Gaussian 09:  ES64L-G09RevE.01 30-Nov-2015

 -----
 #P G4
 -----

 --------
 Frag_983
 --------
 Symbolic Z-matrix:
 Charge =  0 Multiplicity = 1

 SCF Done:  E(RB3LYP) =  -244.577809689     A.U. after   15 cycles
 SCF Done:  E(RB3LYP) =  -244.606718424     A.U. after   13 cycles
 SCF Done:  E(RB3LYP) =  -244.611175140     A.U. after   12 cycles
 SCF Done:  E(RB3LYP) =  -244.611383490     A.U. after    9 cycles
 SCF Done:  E(RB3LYP) =  -244.611399826     A.U. after    9 cycles
 SCF Done:  E(RB3LYP) =  -244.611400265     A.U. after    8 cycles
 SCF Done:  E(RB3LYP) =  -244.611399931     A.U. after    8 cycles
 SCF Done:  E(RB3LYP) =  -244.611400731     A.U. after    7 cycles
 Optimization completed.
    -- Stationary point found.
 Normal termination of Gaussian 09 at Mon Aug 22 06:01:28 2022.

 ----------------------------------------------------------
 #P Geom=AllCheck Guess=TCheck SCRF=Check B3LYP/GTBas3 Freq
 ----------------------------------------------------------

 Structure from the checkpoint file:  "G4.Frag_983.chk"
 --------
 Frag_983
 --------
 Charge =  0 Multiplicity = 1

 SCF Done:  E(RB3LYP) =  -244.611400731     A.U. after    1 cycles

  Exact polarizability:  60.278  -6.594  50.173   0.000   0.000  31.575
 Approx polarizability:  80.783 -21.880  99.077   0.000  -0.000  46.210

                      1                      2                      3
                      A                      A                      A
 Frequencies --    123.3976               247.8095               253.7421
 Red. masses --      1.1155                 1.7296                 1.2613
 Frc consts  --      0.0100                 0.0626                 0.0478
 IR Inten    --      1.0023                11.9796                 2.5147

                      4                      5                      6
                      A                      A                      A
 Frequencies --    335.1700               472.7035               583.9202
 Red. masses --      2.8894                 2.8397                 2.6558
 Frc consts  --      0.1912                 0.3739                 0.5335
 IR Inten    --     13.1779                 0.3471                32.5535

                      7                      8                      9
                      A                      A                      A
 Frequencies --    642.4030               736.3735               915.2586
 Red. masses --      3.5646                 1.3550                 3.4346
 Frc consts  --      0.8667                 0.4329                 1.6952
 IR Inten    --      8.9011                23.7540                 3.5630

                     10                     11                     12
                      A                      A                      A
 Frequencies --   1027.6657              1092.4926              1130.7464
 Red. masses --      2.9880                 1.3957                 1.8326
 Frc consts  --      1.8592                 0.9815                 1.3805
 IR Inten    --     31.9422                 1.4700                 5.0081

                     13                     14                     15
                      A                      A                      A
 Frequencies --   1147.2200              1174.6525              1306.6682
 Red. masses --      1.4014                 1.6398                 2.4394
 Frc consts  --      1.0867                 1.3331                 2.4539
 IR Inten    --      0.0354                 4.1462                40.8211

                     16                     17                     18
                      A                      A                      A
 Frequencies --   1398.6192              1424.0315              1437.2821
 Red. masses --      2.2012                 1.2009                 1.3872
 Frc consts  --      2.5369                 1.4348                 1.6883
 IR Inten    --    157.7450                18.5446                24.0158

                     19                     20                     21
                      A                      A                      A
 Frequencies --   1469.2147              1474.5044              1478.1010
 Red. masses --      1.0450                 1.0951                 1.0674
 Frc consts  --      1.3290                 1.4028                 1.3739
 IR Inten    --      7.1155                24.0358                 0.1549

                     22                     23                     24
                      A                      A                      A
 Frequencies --   1485.4837              1638.7112              2993.7029
 Red. masses --      1.0430                 2.8972                 1.0370
 Frc consts  --      1.3560                 4.5839                 5.4760
 IR Inten    --      8.8659                63.6712                24.1352

                     25                     26                     27
                      A                      A                      A
 Frequencies --   3036.5593              3065.6300              3133.5643
 Red. masses --      1.0987                 1.0328                 1.0987
 Frc consts  --      5.9690                 5.7187                 6.3564
 IR Inten    --     23.7599                13.3592                24.2380

                     28                     29                     30
                      A                      A                      A
 Frequencies --   3144.4510              3197.0776              3451.4836
 Red. masses --      1.1048                 1.1039                 1.0746
 Frc consts  --      6.4359                 6.6481                 7.5426
 IR Inten    --      7.1174                 0.9618                 0.3476

 - Thermochemistry -
 -------------------
 Temperature   298.150 Kelvin.  Pressure   1.00000 Atm.
 Atom     1 has atomic number  6 and mass  12.00000

 Molecular mass:    73.06400 amu.
 Principal axes and moments of inertia in atomic units:
                           1         2         3
     Eigenvalues --   173.31982 421.75023 572.49747
           X            0.99982   0.01894  -0.00000
           Y           -0.01894   0.99982   0.00000
           Z            0.00000  -0.00000   1.00000
 This molecule is an asymmetric top.
 Rotational symmetry number  1.
 Rotational temperatures (Kelvin)      0.49973     0.20537     0.15129
 Rotational constants (GHZ):          10.41278     4.27917     3.15240
 Zero-point vibrational energy     269271.3 (Joules/Mol)
                                   64.35738 (Kcal/Mol)
 Warning -- explicit consideration of   6 degrees of freedom as
           vibrations may cause significant error
 Vibrational temperatures:    177.54   356.54   365.08   482.23   680.11
          (Kelvin)            840.13   924.27  1059.48  1316.85  1478.58
                             1571.85  1626.89  1650.59  1690.06  1880.00
                             2012.30  2048.86  2067.93  2113.87  2121.48
                             2126.66  2137.28  2357.74  4307.27  4368.93
                             4410.75  4508.49  4524.16  4599.88  4965.91

 Zero-point correction=                           0.102560 (Hartree/Particle)
 Thermal correction to Energy=                    0.108310
 Thermal correction to Enthalpy=                  0.109254
 Thermal correction to Gibbs Free Energy=         0.074010
 Sum of electronic and zero-point Energies=           -244.508841
 Sum of electronic and thermal Energies=              -244.503091
 Sum of electronic and thermal Enthalpies=            -244.502146
 Sum of electronic and thermal Free Energies=         -244.537390

                     E (Thermal)             CV                S
                      KCal/Mol        Cal/Mol-Kelvin    Cal/Mol-Kelvin
 Total                   67.966             19.747             74.177
 Electronic               0.000              0.000              0.000
 Translational            0.889              2.981             38.783
 Rotational               0.889              2.981             25.240
 Vibrational             66.188             13.785             10.155
 Vibration     1          0.610              1.930              3.046
 Vibration     2          0.661              1.766              1.746
 Vibration     3          0.665              1.756              1.704
 Vibration     4          0.716              1.605              1.235
 Vibration     5          0.830              1.311              0.730
 Vibration     6          0.941              1.066              0.478

 Optimization completed.
    -- Stationary point found.
 Normal termination of Gaussian 09 at Mon Aug 22 06:02:55 2022.

 -----------------------------------------------------------------
 #P Geom=AllCheck Guess=TCheck SCRF=Check CCSD(T,E4T,FrzG4)/GTBas1
 -----------------------------------------------------------------

 Structure from the checkpoint file:  "G4.Frag_983.chk"
 --------
 Frag_983
 --------
 Charge =  0 Multiplicity = 1

 SCF Done:  E(RHF) =  -243.031363227     A.U. after   14 cycles
 E2 =    -0.7782113989D+00 EUMP2 =    -0.24380957462603D+03
 CCSD(T)
 CCSD(T)= -0.24387203100D+03
 D=-243.840557\CCSD(T)=-243.872031\RMSD=4.168e-09\PG=C01 [X(C2H7N3)]\\@
 Normal termination of Gaussian 09 at Mon Aug 22 06:04:51 2022.

 ---------------------------------------------------------
 #P Geom=AllCheck Guess=TCheck SCRF=Check MP4=FrzG4/GTBas2
 ---------------------------------------------------------

 Structure from the checkpoint file:  "G4.Frag_983.chk"
 --------
 Frag_983
 --------
 Charge =  0 Multiplicity = 1

 SCF Done:  E(RHF) =  -243.040534986     A.U. after   13 cycles
 E2 =    -0.7880986302D+00 EUMP2 =    -0.24382863361587D+03
 Normal termination of Gaussian 09 at Mon Aug 22 06:06:54 2022.

 ---------------------------------------------------------
 #P Geom=AllCheck Guess=TCheck SCRF=Check MP4=FrzG4/GTBas3
 ---------------------------------------------------------

 Structure from the checkpoint file:  "G4.Frag_983.chk"
 --------
 Frag_983
 --------
 Charge =  0 Multiplicity = 1

 SCF Done:  E(RHF) =  -243.062967866     A.U. after   13 cycles
 E2 =    -0.9392247207D+00 EUMP2 =    -0.24400219258721D+03
 Normal termination of Gaussian 09 at Mon Aug 22 06:46:30 2022.

 -----------------------------------------------------------
 #P Geom=AllCheck Guess=TCheck SCRF=Check MP2=Full/GTLargeXP
 -----------------------------------------------------------

 Structure from the checkpoint file:  "G4.Frag_983.chk"
 --------
 Frag_983
 --------
 Charge =  0 Multiplicity = 1

 SCF Done:  E(RHF) =  -243.125392794     A.U. after   14 cycles
 E2 =    -0.1215963064D+01 EUMP2 =    -0.24434135585880D+03
 Normal termination of Gaussian 09 at Mon Aug 22 06:49:17 2022.
 SCF Done:  E(RHF) =  -243.144460354     A.U. after    9 cycles
 Normal termination of Gaussian 09 at Mon Aug 22 06:52:38 2022.

                         Standard orientation:
 ---------------------------------------------------------------------
 Center     Atomic      Atomic             Coordinates (Angstroms)
 Number     Number       Type             X           Y           Z
 ---------------------------------------------------------------------
      1          6           0        1.878717   -0.126006   -0.000002
      2          7           0        0.587103   -0.782441    0.000004
      3          7           0       -0.379078    0.059730    0.000001
      4          6           0       -1.719835   -0.565870   -0.000002
      5          7           0       -0.250760    1.349090    0.000001
      6          1           0        1.999083    0.525225    0.877911
      7          1           0        2.645305   -0.902077    0.000003
      8          1           0        1.999081    0.525214   -0.877924
      9          1           0       -2.255578   -0.236868   -0.892883
     10          1           0       -1.591126   -1.645075    0.000002
     11          1           0       -2.255584   -0.236862    0.892875
     12          1           0       -1.195330    1.737049   -0.000001
 ---------------------------------------------------------------------

 SCF Done:  E(RHF) =  -243.148452048     A.U. after    8 cycles

 The electronic state is 1-A.
 Alpha  occ. eigenvalues --  -15.74426 -15.58228 -15.56213 -11.29087 -11.23556
 Alpha  occ. eigenvalues --   -1.43341  -1.18210  -1.05991  -0.94461  -0.78401
 Alpha  occ. eigenvalues --   -0.72405  -0.67972  -0.67198  -0.60349  -0.58488
 Alpha  occ. eigenvalues --   -0.54586  -0.51089  -0.45920  -0.43765  -0.32561
 Alpha virt. eigenvalues --    0.03214   0.04892   0.04937   0.05020   0.07025
 Alpha virt. eigenvalues --    0.07092   0.07461   0.09589   0.10834   0.11519
 Alpha virt. eigenvalues --    0.12527   0.12794   0.13988   0.15236   0.15566

 Mulliken charges:
               1
     1  C   -0.418774
     2  N   -0.331327
     3  N    0.463059
     4  C   -0.517804
     5  N   -0.694780
     6  H    0.182402
     7  H    0.187461
     8  H    0.182401
     9  H    0.210632
    10  H    0.244879
    11  H    0.210632
    12  H    0.281221
 Sum of Mulliken charges =  -0.00000

 Dipole moment (field-independent basis, Debye):
    X=             -2.7017    Y=             -0.6057    Z=             -0.0000  Tot=              2.7688
 Quadrupole moment (field-independent basis, Debye-Ang):
   XX=            -24.1460   YY=            -35.8406   ZZ=            -32.2439
   XY=             -0.3474   XZ=              0.0000   YZ=              0.0000

 Normal termination of Gaussian 09 at Mon Aug 22 08:25:48 2022.
