 Gaussian 09, Revision E.01,
 Gaussian 09:  ES64L-G09RevE.01 30-Nov-2015

 -----
 #P G4
 -----

 ---------
 Frag_1143
 ---------
 Symbolic Z-matrix:
 Charge =  0 Multiplicity = 1

 SCF Done:  E(RB3LYP) =  -423.468390879     A.U. after   12 cycles
 SCF Done:  E(RB3LYP) =  -423.474561903     A.U. after   10 cycles
 SCF Done:  E(RB3LYP) =  -423.475128321     A.U. after   10 cycles
 SCF Done:  E(RB3LYP) =  -423.475372570     A.U. after   10 cycles
 SCF Done:  E(RB3LYP) =  -423.475478816     A.U. after   10 cycles
 SCF Done:  E(RB3LYP) =  -423.475549912     A.U. after   10 cycles
 SCF Done:  E(RB3LYP) =  -423.475598981     A.U. after    9 cycles
 SCF Done:  E(RB3LYP) =  -423.475629643     A.U. after    9 cycles
 SCF Done:  E(RB3LYP) =  -423.475647600     A.U. after    9 cycles
 SCF Done:  E(RB3LYP) =  -423.475658788     A.U. after    9 cycles
 SCF Done:  E(RB3LYP) =  -423.476146427     A.U. after    7 cycles
 SCF Done:  E(RB3LYP) =  -423.476162447     A.U. after    6 cycles
 SCF Done:  E(RB3LYP) =  -423.476138472     A.U. after    7 cycles
 Optimization completed.
    -- Stationary point found.
 Normal termination of Gaussian 09 at Fri Aug 19 23:21:10 2022.

 ----------------------------------------------------------
 #P Geom=AllCheck Guess=TCheck SCRF=Check B3LYP/GTBas3 Freq
 ----------------------------------------------------------

 Structure from the checkpoint file:  "G4.Frag_1143.chk"
 ---------
 Frag_1143
 ---------
 Charge =  0 Multiplicity = 1

 SCF Done:  E(RB3LYP) =  -423.476138472     A.U. after    1 cycles

  Exact polarizability:  68.367  -0.001  64.854   0.002  -0.001  64.842
 Approx polarizability:  91.434   0.000  92.732  -0.003   0.001  92.709

                      1                      2                      3
                      A                      A                      A
 Frequencies --     96.5191               132.7515               150.4056
 Red. masses --      3.4323                 1.2926                 1.3219
 Frc consts  --      0.0188                 0.0134                 0.0176
 IR Inten    --      0.1528                44.4459                42.9013

                      4                      5                      6
                      A                      A                      A
 Frequencies --    205.2435               246.4407               248.3694
 Red. masses --      1.0613                 1.4818                 1.6346
 Frc consts  --      0.0263                 0.0530                 0.0594
 IR Inten    --      0.0571                 0.3918                 0.1494

                      7                      8                      9
                      A                      A                      A
 Frequencies --    264.2410               267.6984               340.2706
 Red. masses --      1.6146                 1.4688                 3.2351
 Frc consts  --      0.0664                 0.0620                 0.2207
 IR Inten    --      0.7898                 1.1247                 6.7941

                     10                     11                     12
                      A                      A                      A
 Frequencies --    347.2960               348.7882               440.2451
 Red. masses --      2.4415                 2.4645                 1.4156
 Frc consts  --      0.1735                 0.1766                 0.1616
 IR Inten    --      2.1068                 2.0639                73.8566

                     13                     14                     15
                      A                      A                      A
 Frequencies --    443.8778               445.4421               551.8973
 Red. masses --      2.7141                 1.7112                 2.8399
 Frc consts  --      0.3151                 0.2000                 0.5096
 IR Inten    --      7.0743                49.6105                 9.7727

                     16                     17                     18
                      A                      A                      A
 Frequencies --    559.0153               559.8432               727.8971
 Red. masses --      4.5738                 4.5655                 4.1502
 Frc consts  --      0.8421                 0.8431                 1.2956
 IR Inten    --      5.7347                 5.6179                 9.1586

                     19                     20                     21
                      A                      A                      A
 Frequencies --    847.1418               943.3651               944.1589
 Red. masses --      2.5860                 1.6439                 1.6403
 Frc consts  --      1.0934                 0.8619                 0.8615
 IR Inten    --      0.4107                 1.1827                 1.2539

                     22                     23                     24
                      A                      A                      A
 Frequencies --    961.8739              1008.8680              1009.2776
 Red. masses --      1.2003                 2.3555                 2.3620
 Frc consts  --      0.6543                 1.4125                 1.4176
 IR Inten    --      0.0523               106.6423               105.7883

                     25                     26                     27
                      A                      A                      A
 Frequencies --   1012.0537              1056.9136              1058.1558
 Red. masses --      2.7438                 1.6324                 1.6032
 Frc consts  --      1.6558                 1.0744                 1.0577
 IR Inten    --    179.7634                45.8807                42.1002

                     28                     29                     30
                      A                      A                      A
 Frequencies --   1248.5181              1249.5388              1262.1433
 Red. masses --      2.6901                 2.6801                 2.0308
 Frc consts  --      2.4707                 2.4655                 1.9061
 IR Inten    --     11.4070                11.4464                 0.2814

                     31                     32                     33
                      A                      A                      A
 Frequencies --   1354.2059              1354.8485              1389.6262
 Red. masses --      1.6563                 1.6465                 1.6487
 Frc consts  --      1.7896                 1.7807                 1.8758
 IR Inten    --    148.0793               148.4869                 0.2310

                     34                     35                     36
                      A                      A                      A
 Frequencies --   1391.3449              1392.5974              1434.1517
 Red. masses --      1.2826                 1.2773                 1.3437
 Frc consts  --      1.4629                 1.4594                 1.6284
 IR Inten    --      1.7260                 1.8435                14.7111

                     37                     38                     39
                      A                      A                      A
 Frequencies --   1476.1750              1494.3770              1496.3579
 Red. masses --      1.0487                 1.0462                 1.0459
 Frc consts  --      1.3464                 1.3765                 1.3798
 IR Inten    --      0.0929                 0.4171                 0.2280

                     40                     41                     42
                      A                      A                      A
 Frequencies --   1501.5767              1502.0948              1531.8419
 Red. masses --      1.0535                 1.0540                 1.0810
 Frc consts  --      1.3996                 1.4011                 1.4946
 IR Inten    --      3.0645                 3.1260                16.5977

                     43                     44                     45
                      A                      A                      A
 Frequencies --   3038.2988              3038.3635              3045.8001
 Red. masses --      1.0350                 1.0351                 1.0359
 Frc consts  --      5.6293                 5.6299                 5.6622
 IR Inten    --     22.6208                22.3641                20.9835

                     46                     47                     48
                      A                      A                      A
 Frequencies --   3106.5139              3106.5857              3112.4151
 Red. masses --      1.1007                 1.1006                 1.1000
 Frc consts  --      6.2584                 6.2583                 6.2782
 IR Inten    --      5.3646                 5.3123                56.3889

                     49                     50                     51
                      A                      A                      A
 Frequencies --   3120.4843              3123.9145              3124.3441
 Red. masses --      1.1024                 1.1015                 1.1015
 Frc consts  --      6.3246                 6.3332                 6.3350
 IR Inten    --      1.7452                30.6435                30.2056

                     52                     53                     54
                      A                      A                      A
 Frequencies --   3817.9856              3821.9455              3822.0509
 Red. masses --      1.0654                 1.0653                 1.0653
 Frc consts  --      9.1506                 9.1681                 9.1686
 IR Inten    --     70.8777                48.5616                48.4011

 - Thermochemistry -
 -------------------
 Temperature   298.150 Kelvin.  Pressure   1.00000 Atm.
 Atom     1 has atomic number  6 and mass  12.00000

 Molecular mass:   120.07864 amu.
 Principal axes and moments of inertia in atomic units:
                           1         2         3
     Eigenvalues --   723.207411014.057591014.10239
           X            1.00000   0.00002   0.00005
           Y            0.00000   0.92226  -0.38657
           Z           -0.00005   0.38657   0.92226
 This molecule is an asymmetric top.
 Rotational symmetry number  1.
 Warning -- assumption of classical behavior for rotation
           may cause significant error
 Rotational temperatures (Kelvin)      0.11976     0.08541     0.08541
 Rotational constants (GHZ):           2.49547     1.77972     1.77964
 Zero-point vibrational energy     452045.8 (Joules/Mol)
                                  108.04153 (Kcal/Mol)
 Warning -- explicit consideration of  17 degrees of freedom as
           vibrations may cause significant error
 Vibrational temperatures:    138.87   191.00   216.40   295.30   354.57
          (Kelvin)            357.35   380.18   385.16   489.57   499.68
                              501.83   633.41   638.64   640.89   794.06
                              804.30   805.49  1047.28  1218.85  1357.29
                             1358.43  1383.92  1451.53  1452.12  1456.12
                             1520.66  1522.45  1796.34  1797.81  1815.94
                             1948.40  1949.32  1999.36  2001.83  2003.63
                             2063.42  2123.88  2150.07  2152.92  2160.43
                             2161.18  2203.98  4371.43  4371.52  4382.22
                             4469.58  4469.68  4478.07  4489.68  4494.61
                             4495.23  5493.22  5498.92  5499.07

 Zero-point correction=                           0.172175 (Hartree/Particle)
 Thermal correction to Energy=                    0.182576
 Thermal correction to Enthalpy=                  0.183520
 Thermal correction to Gibbs Free Energy=         0.138201
 Sum of electronic and zero-point Energies=           -423.303963
 Sum of electronic and thermal Energies=              -423.293563
 Sum of electronic and thermal Enthalpies=            -423.292618
 Sum of electronic and thermal Free Energies=         -423.337937

                     E (Thermal)             CV                S
                      KCal/Mol        Cal/Mol-Kelvin    Cal/Mol-Kelvin
 Total                  114.568             38.861             95.382
 Electronic               0.000              0.000              0.000
 Translational            0.889              2.981             40.263
 Rotational               0.889              2.981             28.099
 Vibrational            112.791             32.899             27.019
 Vibration     1          0.603              1.952              3.523
 Vibration     2          0.613              1.921              2.906
 Vibration     3          0.618              1.902              2.667
 Vibration     4          0.640              1.832              2.086
 Vibration     5          0.661              1.769              1.756
 Vibration     6          0.662              1.765              1.742
 Vibration     7          0.671              1.738              1.634
 Vibration     8          0.673              1.732              1.611
 Vibration     9          0.720              1.595              1.211
 Vibration    10          0.725              1.581              1.178
 Vibration    11          0.726              1.578              1.172
 Vibration    12          0.800              1.382              0.826
 Vibration    13          0.803              1.374              0.815
 Vibration    14          0.805              1.371              0.810
 Vibration    15          0.907              1.136              0.540
 Vibration    16          0.915              1.120              0.526
 Vibration    17          0.915              1.118              0.524

 Normal termination of Gaussian 09 at Fri Aug 19 23:32:52 2022.

 -----------------------------------------------------------------
 #P Geom=AllCheck Guess=TCheck SCRF=Check CCSD(T,E4T,FrzG4)/GTBas1
 -----------------------------------------------------------------

 Structure from the checkpoint file:  "G4.Frag_1143.chk"
 ---------
 Frag_1143
 ---------
 Charge =  0 Multiplicity = 1

 SCF Done:  E(RHF) =  -420.913774478     A.U. after   11 cycles
 E2 =    -0.1201516756D+01 EUMP2 =    -0.42211529123349D+03
 CCSD(T)
 CCSD(T)= -0.42221529988D+03
 1803058\CCSD=-422.1805907\CCSD(T)=-422.2152999\RMSD=7.557e-09\PG=C01 [
 Normal termination of Gaussian 09 at Sat Aug 20 00:07:48 2022.

 ---------------------------------------------------------
 #P Geom=AllCheck Guess=TCheck SCRF=Check MP4=FrzG4/GTBas2
 ---------------------------------------------------------

 Structure from the checkpoint file:  "G4.Frag_1143.chk"
 ---------
 Frag_1143
 ---------
 Charge =  0 Multiplicity = 1

 SCF Done:  E(RHF) =  -420.925149573     A.U. after   11 cycles
 E2 =    -0.1222680656D+01 EUMP2 =    -0.42214783022908D+03
 Normal termination of Gaussian 09 at Sat Aug 20 00:58:56 2022.

 ---------------------------------------------------------
 #P Geom=AllCheck Guess=TCheck SCRF=Check MP4=FrzG4/GTBas3
 ---------------------------------------------------------

 Structure from the checkpoint file:  "G4.Frag_1143.chk"
 ---------
 Frag_1143
 ---------
 Charge =  0 Multiplicity = 1

 SCF Done:  E(RHF) =  -420.972578500     A.U. after   10 cycles
 E2 =    -0.1499838958D+01 EUMP2 =    -0.42247241745845D+03
 Normal termination of Gaussian 09 at Sat Aug 20 15:34:20 2022.

 -----------------------------------------------------------
 #P Geom=AllCheck Guess=TCheck SCRF=Check MP2=Full/GTLargeXP
 -----------------------------------------------------------

 Structure from the checkpoint file:  "G4.Frag_1143.chk"
 ---------
 Frag_1143
 ---------
 Charge =  0 Multiplicity = 1

 SCF Done:  E(RHF) =  -421.082294030     A.U. after   11 cycles
 E2 =    -0.1958242805D+01 EUMP2 =    -0.42304053683503D+03
 Normal termination of Gaussian 09 at Sat Aug 20 16:01:02 2022.
 SCF Done:  E(RHF) =  -421.116029695     A.U. after    8 cycles
 Normal termination of Gaussian 09 at Sat Aug 20 16:16:44 2022.

                         Standard orientation:
 ---------------------------------------------------------------------
 Center     Atomic      Atomic             Coordinates (Angstroms)
 Number     Number       Type             X           Y           Z
 ---------------------------------------------------------------------
      1          6           0       -1.283312   -0.935694    1.113835
      2          6           0       -0.781066    0.000048    0.000017
      3          6           0       -1.282841    1.432713    0.253256
      4          6           0       -1.283006   -0.496726   -1.367354
      5          6           0        0.768764   -0.000233    0.000035
      6          8           0        1.263215    0.517517    1.214923
      7          8           0        1.262966   -1.310999   -0.159378
      8          8           0        1.263772    0.792917   -1.055596
      9          1           0       -0.935024   -0.599729    2.094322
     10          1           0       -0.934967   -1.959746    0.955806
     11          1           0       -2.377898   -0.946615    1.127616
     12          1           0       -2.377441    1.450106    0.257131
     13          1           0       -0.935425    2.113275   -0.528870
     14          1           0       -0.933202    1.808413    1.218446
     15          1           0       -2.377587   -0.502731   -1.384287
     16          1           0       -0.933814    0.152033   -2.174888
     17          1           0       -0.935052   -1.514018   -1.566292
     18          1           0        1.863324   -0.155552    1.554532
     19          1           0        1.865493   -1.267599   -0.910113
     20          1           0        1.860735    1.426029   -0.641722
 ---------------------------------------------------------------------

 SCF Done:  E(RHF) =  -421.123508263     A.U. after    7 cycles

 The electronic state is 1-A.
 Alpha  occ. eigenvalues --  -20.57310 -20.57307 -20.57304 -11.39502 -11.23513
 Alpha  occ. eigenvalues --  -11.20438 -11.20435 -11.20431  -1.46453  -1.34890
 Alpha  occ. eigenvalues --   -1.34883  -1.09330  -0.92513  -0.92510  -0.89766
 Alpha  occ. eigenvalues --   -0.74977  -0.74409  -0.74400  -0.67297  -0.61309
 Alpha  occ. eigenvalues --   -0.61294  -0.59286  -0.57403  -0.57399  -0.53298
 Alpha  occ. eigenvalues --   -0.53295  -0.53191  -0.50492  -0.49718  -0.49701
 Alpha  occ. eigenvalues --   -0.45871  -0.45866  -0.43763
 Alpha virt. eigenvalues --    0.03170   0.03809   0.04399   0.04401   0.06359
 Alpha virt. eigenvalues --    0.06359   0.06647   0.07470   0.07470   0.09600
 Alpha virt. eigenvalues --    0.09601   0.10183   0.10553   0.12551   0.12552

 Mulliken charges:
               1
     1  C   -0.648526
     2  C    0.524475
     3  C   -0.648851
     4  C   -0.648563
     5  C    0.602079
     6  O   -0.661790
     7  O   -0.661880
     8  O   -0.661872
     9  H    0.174261
    10  H    0.189326
    11  H    0.165169
    12  H    0.165216
    13  H    0.174195
    14  H    0.189451
    15  H    0.165161
    16  H    0.189339
    17  H    0.174359
    18  H    0.406067
    19  H    0.406215
    20  H    0.406168
 Sum of Mulliken charges =  -0.00000

 Dipole moment (field-independent basis, Debye):
    X=              1.3034    Y=              0.0040    Z=              0.0044  Tot=              1.3035
 Quadrupole moment (field-independent basis, Debye-Ang):
   XX=            -44.1825   YY=            -51.8320   ZZ=            -51.8532
   XY=             -0.0044   XZ=              0.0086   YZ=             -0.0068

 Normal termination of Gaussian 09 at Sat Aug 20 23:10:19 2022.
