 Gaussian 09, Revision E.01,
 Gaussian 09:  ES64L-G09RevE.01 30-Nov-2015

 -----
 #P G4
 -----

 --------
 Frag_922
 --------
 Symbolic Z-matrix:
 Charge =  0 Multiplicity = 1

 SCF Done:  E(RB3LYP) =  -363.028992603     A.U. after   13 cycles
 SCF Done:  E(RB3LYP) =  -363.041317630     A.U. after   12 cycles
 SCF Done:  E(RB3LYP) =  -363.042978591     A.U. after   11 cycles
 SCF Done:  E(RB3LYP) =  -363.044725485     A.U. after   11 cycles
 SCF Done:  E(RB3LYP) =  -363.046292797     A.U. after   12 cycles
 SCF Done:  E(RB3LYP) =  -363.047194932     A.U. after   12 cycles
 SCF Done:  E(RB3LYP) =  -363.047456836     A.U. after   10 cycles
 SCF Done:  E(RB3LYP) =  -363.047487768     A.U. after    9 cycles
 SCF Done:  E(RB3LYP) =  -363.047503309     A.U. after    9 cycles
 SCF Done:  E(RB3LYP) =  -363.047509018     A.U. after    9 cycles
 SCF Done:  E(RB3LYP) =  -363.047515488     A.U. after    9 cycles
 SCF Done:  E(RB3LYP) =  -363.047517219     A.U. after    9 cycles
 SCF Done:  E(RB3LYP) =  -363.047517493     A.U. after    7 cycles
 Optimization completed.
    -- Stationary point found.
 Normal termination of Gaussian 09 at Fri Aug 26 09:13:17 2022.

 ----------------------------------------------------------
 #P Geom=AllCheck Guess=TCheck SCRF=Check B3LYP/GTBas3 Freq
 ----------------------------------------------------------

 Structure from the checkpoint file:  "G4.Frag_922.chk"
 --------
 Frag_922
 --------
 Charge =  0 Multiplicity = 1

 SCF Done:  E(RB3LYP) =  -363.047517493     A.U. after    1 cycles

  Exact polarizability:  67.648   5.060  66.423  -0.547   1.021  42.647
 Approx polarizability:  89.920   9.469 105.016   0.548   1.739  61.274

                      1                      2                      3
                      A                      A                      A
 Frequencies --     74.7401               100.3887               243.4615
 Red. masses --      1.6214                 1.9368                 2.4713
 Frc consts  --      0.0053                 0.0115                 0.0863
 IR Inten    --     14.2642                25.2232                12.9460

                      4                      5                      6
                      A                      A                      A
 Frequencies --    254.9361               307.3570               322.4210
 Red. masses --      1.1520                 3.1730                 1.0857
 Frc consts  --      0.0441                 0.1766                 0.0665
 IR Inten    --      4.0227                 5.7290               108.7532

                      7                      8                      9
                      A                      A                      A
 Frequencies --    373.1820               380.6008               409.7234
 Red. masses --      2.7348                 1.4865                 1.7468
 Frc consts  --      0.2244                 0.1269                 0.1728
 IR Inten    --      4.8625                18.0612                13.9908

                     10                     11                     12
                      A                      A                      A
 Frequencies --    480.7098               522.8512               543.5842
 Red. masses --      4.0501                 2.9057                 3.7773
 Frc consts  --      0.5514                 0.4680                 0.6576
 IR Inten    --      1.9634                 9.0911                22.1966

                     13                     14                     15
                      A                      A                      A
 Frequencies --    648.3289               710.9795               725.8853
 Red. masses --      2.4585                 1.1634                 3.5089
 Frc consts  --      0.6089                 0.3465                 1.0893
 IR Inten    --     83.9162                64.6717                 0.1249

                     16                     17                     18
                      A                      A                      A
 Frequencies --    784.5502               844.8529               920.3547
 Red. masses --      1.4720                 1.4726                 2.5207
 Frc consts  --      0.5338                 0.6193                 1.2580
 IR Inten    --     89.8828                65.3581                37.7650

                     19                     20                     21
                      A                      A                      A
 Frequencies --    950.4934               988.9451              1061.1858
 Red. masses --      2.0745                 1.5585                 1.5826
 Frc consts  --      1.1042                 0.8981                 1.0500
 IR Inten    --     38.9145                 6.7965                22.3856

                     22                     23                     24
                      A                      A                      A
 Frequencies --   1131.8456              1136.8023              1194.6951
 Red. masses --      1.5642                 2.6641                 3.5049
 Frc consts  --      1.1806                 2.0285                 2.9474
 IR Inten    --     75.6295               120.8200               109.8264

                     25                     26                     27
                      A                      A                      A
 Frequencies --   1260.4609              1341.5569              1397.9826
 Red. masses --      1.2308                 2.0922                 1.2814
 Frc consts  --      1.1521                 2.2186                 1.4756
 IR Inten    --     66.9875                26.4844                18.9982

                     28                     29                     30
                      A                      A                      A
 Frequencies --   1427.1698              1455.6794              1477.3095
 Red. masses --      1.3376                 1.4642                 1.0491
 Frc consts  --      1.6051                 1.8281                 1.3490
 IR Inten    --     13.9468                24.4242                 1.6025

                     31                     32                     33
                      A                      A                      A
 Frequencies --   1509.3375              1633.0933              1728.1956
 Red. masses --      1.1925                 1.1377                 5.7426
 Frc consts  --      1.6006                 1.7877                10.1052
 IR Inten    --     15.5289                55.6065                71.8427

                     34                     35                     36
                      A                      A                      A
 Frequencies --   3011.7867              3105.2656              3145.6476
 Red. masses --      1.0485                 1.0865                 1.1021
 Frc consts  --      5.6036                 6.1726                 6.4253
 IR Inten    --     30.7446                16.4864                 8.2783

                     37                     38                     39
                      A                      A                      A
 Frequencies --   3163.2451              3277.3475              3543.6229
 Red. masses --      1.0653                 1.1092                 1.0467
 Frc consts  --      6.2804                 7.0195                 7.7440
 IR Inten    --     11.6389                 2.5992                15.6372

                     40                     41                     42
                      A                      A                      A
 Frequencies --   3643.9303              3812.1863              3818.8636
 Red. masses --      1.0968                 1.0661                 1.0663
 Frc consts  --      8.5807                 9.1282                 9.1623
 IR Inten    --     17.8122                13.8742                17.5669

 - Thermochemistry -
 -------------------
 Temperature   298.150 Kelvin.  Pressure   1.00000 Atm.
 Atom     1 has atomic number  6 and mass  12.00000

 Molecular mass:   103.06333 amu.
 Principal axes and moments of inertia in atomic units:
                           1         2         3
     Eigenvalues --   530.30578 735.22253 904.54039
           X            0.99878   0.02983  -0.03925
           Y           -0.02960   0.99954   0.00629
           Z            0.03942  -0.00512   0.99921
 This molecule is an asymmetric top.
 Rotational symmetry number  1.
 Warning -- assumption of classical behavior for rotation
           may cause significant error
 Rotational temperatures (Kelvin)      0.16333     0.11781     0.09575
 Rotational constants (GHZ):           3.40321     2.45469     1.99520
 Zero-point vibrational energy     352094.2 (Joules/Mol)
                                   84.15254 (Kcal/Mol)
 Warning -- explicit consideration of  12 degrees of freedom as
           vibrations may cause significant error
 Vibrational temperatures:    107.53   144.44   350.29   366.80   442.22
          (Kelvin)            463.89   536.92   547.60   589.50   691.63
                              752.27   782.10   932.80  1022.94  1044.39
                             1128.79  1215.55  1324.18  1367.55  1422.87
                             1526.81  1628.47  1635.60  1718.90  1813.52
                             1930.20  2011.38  2053.38  2094.40  2125.52
                             2171.60  2349.65  2486.48  4333.28  4467.78
                             4525.88  4551.20  4715.37  5098.48  5242.80
                             5484.88  5494.49

 Zero-point correction=                           0.134106 (Hartree/Particle)
 Thermal correction to Energy=                    0.142617
 Thermal correction to Enthalpy=                  0.143561
 Thermal correction to Gibbs Free Energy=         0.101879
 Sum of electronic and zero-point Energies=           -362.913412
 Sum of electronic and thermal Energies=              -362.904901
 Sum of electronic and thermal Enthalpies=            -362.903957
 Sum of electronic and thermal Free Energies=         -362.945638

                     E (Thermal)             CV                S
                      KCal/Mol        Cal/Mol-Kelvin    Cal/Mol-Kelvin
 Total                   89.493             31.751             87.727
 Electronic               0.000              0.000              0.000
 Translational            0.889              2.981             39.808
 Rotational               0.889              2.981             27.358
 Vibrational             87.716             25.789             20.560
 Vibration     1          0.599              1.966              4.024
 Vibration     2          0.604              1.949              3.447
 Vibration     3          0.659              1.774              1.777
 Vibration     4          0.665              1.754              1.696
 Vibration     5          0.697              1.660              1.377
 Vibration     6          0.707              1.631              1.298
 Vibration     7          0.745              1.527              1.067
 Vibration     8          0.750              1.512              1.037
 Vibration     9          0.774              1.449              0.928
 Vibration    10          0.837              1.293              0.708
 Vibration    11          0.878              1.199              0.603
 Vibration    12          0.899              1.154              0.558

 Normal termination of Gaussian 09 at Fri Aug 26 09:14:04 2022.

 -----------------------------------------------------------------
 #P Geom=AllCheck Guess=TCheck SCRF=Check CCSD(T,E4T,FrzG4)/GTBas1
 -----------------------------------------------------------------

 Structure from the checkpoint file:  "G4.Frag_922.chk"
 --------
 Frag_922
 --------
 Charge =  0 Multiplicity = 1

 SCF Done:  E(RHF) =  -360.845873520     A.U. after   12 cycles
 E2 =    -0.1040267600D+01 EUMP2 =    -0.36188614111953D+03
 CCSD(T)
 CCSD(T)= -0.36197207048D+03
 SDTQ=-361.9723425\MP4SDQ=-361.9395307\CCSD=-361.9397034\CCSD(T)=-361.9
 Normal termination of Gaussian 09 at Fri Aug 26 09:18:18 2022.

 ---------------------------------------------------------
 #P Geom=AllCheck Guess=TCheck SCRF=Check MP4=FrzG4/GTBas2
 ---------------------------------------------------------

 Structure from the checkpoint file:  "G4.Frag_922.chk"
 --------
 Frag_922
 --------
 Charge =  0 Multiplicity = 1

 SCF Done:  E(RHF) =  -360.859553778     A.U. after   12 cycles
 E2 =    -0.1058687590D+01 EUMP2 =    -0.36191824136758D+03
 Normal termination of Gaussian 09 at Fri Aug 26 09:19:34 2022.

 ---------------------------------------------------------
 #P Geom=AllCheck Guess=TCheck SCRF=Check MP4=FrzG4/GTBas3
 ---------------------------------------------------------

 Structure from the checkpoint file:  "G4.Frag_922.chk"
 --------
 Frag_922
 --------
 Charge =  0 Multiplicity = 1

 SCF Done:  E(RHF) =  -360.898788065     A.U. after   11 cycles
 E2 =    -0.1282399582D+01 EUMP2 =    -0.36218118764630D+03
 Normal termination of Gaussian 09 at Fri Aug 26 09:29:08 2022.

 -----------------------------------------------------------
 #P Geom=AllCheck Guess=TCheck SCRF=Check MP2=Full/GTLargeXP
 -----------------------------------------------------------

 Structure from the checkpoint file:  "G4.Frag_922.chk"
 --------
 Frag_922
 --------
 Charge =  0 Multiplicity = 1

 SCF Done:  E(RHF) =  -360.996307971     A.U. after   12 cycles
 E2 =    -0.1679292310D+01 EUMP2 =    -0.36267560028094D+03
 Normal termination of Gaussian 09 at Fri Aug 26 09:32:56 2022.
 SCF Done:  E(RHF) =  -361.025280971     A.U. after    9 cycles
 Normal termination of Gaussian 09 at Fri Aug 26 09:36:32 2022.

                         Standard orientation:
 ---------------------------------------------------------------------
 Center     Atomic      Atomic             Coordinates (Angstroms)
 Number     Number       Type             X           Y           Z
 ---------------------------------------------------------------------
      1          6           0        1.616914    1.251536    0.050858
      2          6           0        0.952754    0.094811    0.002437
      3          7           0        1.531726   -1.173258    0.121630
      4          6           0       -0.571946    0.035938   -0.062260
      5          6           0       -1.170691   -0.314334    1.307076
      6          8           0       -0.869575   -0.989980   -1.004809
      7          8           0       -1.051957    1.279629   -0.512473
      8          1           0        2.699269    1.275510    0.121531
      9          1           0        1.086869    2.191032    0.026270
     10          1           0        2.532643   -1.173310   -0.018851
     11          1           0        1.072211   -1.858020   -0.464459
     12          1           0       -0.951257    0.475860    2.029254
     13          1           0       -2.261315   -0.426336    1.228006
     14          1           0       -0.751379   -1.252291    1.674837
     15          1           0       -1.814842   -1.169336   -0.965683
     16          1           0       -1.924213    1.424801   -0.132728
 ---------------------------------------------------------------------

 SCF Done:  E(RHF) =  -361.031561790     A.U. after    8 cycles

 The electronic state is 1-A.
 Alpha  occ. eigenvalues --  -20.56806 -20.56715 -15.55011 -11.35320 -11.26485
 Alpha  occ. eigenvalues --  -11.23242 -11.19324  -1.41837  -1.34249  -1.20584
 Alpha  occ. eigenvalues --   -1.02736  -0.98351  -0.87801  -0.75324  -0.71647
 Alpha  occ. eigenvalues --   -0.69896  -0.67338  -0.63102  -0.61204  -0.59988
 Alpha  occ. eigenvalues --   -0.56253  -0.55503  -0.53165  -0.49911  -0.48677
 Alpha  occ. eigenvalues --   -0.47646  -0.46367  -0.31529
 Alpha virt. eigenvalues --    0.02944   0.04334   0.04684   0.05016   0.06408
 Alpha virt. eigenvalues --    0.06859   0.07384   0.07541   0.07703   0.09760
 Alpha virt. eigenvalues --    0.10031   0.10244   0.11774   0.13032   0.13515

 Mulliken charges:
               1
     1  C   -0.521729
     2  C    0.209986
     3  N   -0.762626
     4  C    0.558271
     5  C   -0.590356
     6  O   -0.595178
     7  O   -0.604452
     8  H    0.159642
     9  H    0.205549
    10  H    0.305204
    11  H    0.343936
    12  H    0.197900
    13  H    0.155141
    14  H    0.209092
    15  H    0.362626
    16  H    0.366991
 Sum of Mulliken charges =  -0.00000

 Dipole moment (field-independent basis, Debye):
    X=             -2.0102    Y=             -1.0398    Z=              1.1958  Tot=              2.5597
 Quadrupole moment (field-independent basis, Debye-Ang):
   XX=            -32.3487   YY=            -43.4456   ZZ=            -47.9046
   XY=             -1.1494   XZ=             -2.1689   YZ=              2.7813

 Normal termination of Gaussian 09 at Fri Aug 26 09:48:07 2022.
