 Gaussian 09, Revision E.01,
 Gaussian 09:  ES64L-G09RevE.01 30-Nov-2015

 -----
 #P G4
 -----

 ---------
 Frag_1060
 ---------
 Symbolic Z-matrix:
 Charge =  0 Multiplicity = 1

 SCF Done:  E(RB3LYP) =  -206.531476667     A.U. after   12 cycles
 SCF Done:  E(RB3LYP) =  -206.536045894     A.U. after   10 cycles
 SCF Done:  E(RB3LYP) =  -206.536576842     A.U. after   10 cycles
 SCF Done:  E(RB3LYP) =  -206.536813858     A.U. after   10 cycles
 SCF Done:  E(RB3LYP) =  -206.536905158     A.U. after    9 cycles
 SCF Done:  E(RB3LYP) =  -206.536947844     A.U. after    9 cycles
 SCF Done:  E(RB3LYP) =  -206.536966265     A.U. after    9 cycles
 SCF Done:  E(RB3LYP) =  -206.536969734     A.U. after    8 cycles
 SCF Done:  E(RB3LYP) =  -206.536970236     A.U. after    7 cycles
 Optimization completed.
    -- Stationary point found.
 Normal termination of Gaussian 09 at Fri Aug 26 09:13:59 2022.

 ----------------------------------------------------------
 #P Geom=AllCheck Guess=TCheck SCRF=Check B3LYP/GTBas3 Freq
 ----------------------------------------------------------

 Structure from the checkpoint file:  "G4.Frag_1060.chk"
 ---------
 Frag_1060
 ---------
 Charge =  0 Multiplicity = 1

 SCF Done:  E(RB3LYP) =  -206.536970236     A.U. after    1 cycles

  Exact polarizability:  41.332  -1.483  35.342  -0.468   0.401  29.913
 Approx polarizability:  51.152  -2.392  48.706  -0.405   0.439  43.119

                      1                      2                      3
                      A                      A                      A
 Frequencies --    161.0360               217.2395               291.1389
 Red. masses --      2.7813                 1.0565                 1.0990
 Frc consts  --      0.0425                 0.0294                 0.0549
 IR Inten    --      3.8742                43.1294                47.4657

                      4                      5                      6
                      A                      A                      A
 Frequencies --    383.9999               554.9787               763.6329
 Red. masses --      2.6471                 2.6581                 1.8529
 Frc consts  --      0.2300                 0.4824                 0.6366
 IR Inten    --      0.9106                20.0861                28.4301

                      7                      8                      9
                      A                      A                      A
 Frequencies --    893.7182               924.2572               979.9840
 Red. masses --      1.3339                 1.9118                 1.5797
 Frc consts  --      0.6277                 0.9622                 0.8939
 IR Inten    --    152.6594                41.7582                75.7582

                     10                     11                     12
                      A                      A                      A
 Frequencies --   1072.8501              1110.2020              1183.2272
 Red. masses --      2.1054                 1.5117                 2.1692
 Frc consts  --      1.4278                 1.0978                 1.7893
 IR Inten    --     36.1813                29.7042                 1.2764

                     13                     14                     15
                      A                      A                      A
 Frequencies --   1241.5258              1290.1952              1343.9228
 Red. masses --      1.3409                 1.2626                 1.2227
 Frc consts  --      1.2178                 1.2383                 1.3012
 IR Inten    --      5.6004                 2.9096                 4.4261

                     16                     17                     18
                      A                      A                      A
 Frequencies --   1448.1505              1494.8574              1517.5793
 Red. masses --      1.3291                 1.1613                 1.1285
 Frc consts  --      1.6423                 1.5289                 1.5312
 IR Inten    --     23.1856                 4.3455                 2.0883

                     19                     20                     21
                      A                      A                      A
 Frequencies --   1644.8300              1667.7554              2843.2913
 Red. masses --      1.0890                 1.0876                 1.0732
 Frc consts  --      1.7358                 1.7824                 5.1118
 IR Inten    --     41.3218                 8.2053               147.4148

                     22                     23                     24
                      A                      A                      A
 Frequencies --   3038.1612              3417.0858              3459.4352
 Red. masses --      1.0854                 1.0556                 1.0738
 Frc consts  --      5.9026                 7.2623                 7.5718
 IR Inten    --     44.6542                15.8122                 5.4170

                     25                     26                     27
                      A                      A                      A
 Frequencies --   3480.0007              3557.5597              3558.3381
 Red. masses --      1.0494                 1.0873                 1.0903
 Frc consts  --      7.4874                 8.1077                 8.1341
 IR Inten    --      3.8889                 0.7001                 1.9740

 - Thermochemistry -
 -------------------
 Temperature   298.150 Kelvin.  Pressure   1.00000 Atm.
 Atom     1 has atomic number  7 and mass  14.00307

 Molecular mass:    61.06400 amu.
 Principal axes and moments of inertia in atomic units:
                           1         2         3
     Eigenvalues --   111.99802 332.94416 393.87931
           X            0.99992  -0.00131  -0.01266
           Y            0.00160   0.99973   0.02313
           Z            0.01263  -0.02315   0.99965
 This molecule is an asymmetric top.
 Rotational symmetry number  1.
 Rotational temperatures (Kelvin)      0.77335     0.26015     0.21990
 Rotational constants (GHZ):          16.11405     5.42055     4.58196
 Zero-point vibrational energy     260420.8 (Joules/Mol)
                                   62.24206 (Kcal/Mol)
 Warning -- explicit consideration of   5 degrees of freedom as
           vibrations may cause significant error
 Vibrational temperatures:    231.69   312.56   418.88   552.49   798.49
          (Kelvin)           1098.70  1285.86  1329.80  1409.98  1543.59
                             1597.33  1702.40  1786.28  1856.30  1933.60
                             2083.56  2150.76  2183.46  2366.54  2399.53
                             4090.86  4371.23  4916.42  4977.35  5006.94
                             5118.53  5119.65

 Zero-point correction=                           0.099189 (Hartree/Particle)
 Thermal correction to Energy=                    0.104483
 Thermal correction to Enthalpy=                  0.105427
 Thermal correction to Gibbs Free Energy=         0.071735
 Sum of electronic and zero-point Energies=           -206.437781
 Sum of electronic and thermal Energies=              -206.432487
 Sum of electronic and thermal Enthalpies=            -206.431543
 Sum of electronic and thermal Free Energies=         -206.465236

                     E (Thermal)             CV                S
                      KCal/Mol        Cal/Mol-Kelvin    Cal/Mol-Kelvin
 Total                   65.564             17.653             70.912
 Electronic               0.000              0.000              0.000
 Translational            0.889              2.981             38.248
 Rotational               0.889              2.981             24.200
 Vibrational             63.786             11.692              8.464
 Vibration     1          0.622              1.890              2.538
 Vibration     2          0.646              1.815              1.982
 Vibration     3          0.687              1.690              1.467
 Vibration     4          0.753              1.504              1.023
 Vibration     5          0.910              1.129              0.534

 Optimization completed.
    -- Stationary point found.
 Normal termination of Gaussian 09 at Fri Aug 26 09:14:15 2022.

 -----------------------------------------------------------------
 #P Geom=AllCheck Guess=TCheck SCRF=Check CCSD(T,E4T,FrzG4)/GTBas1
 -----------------------------------------------------------------

 Structure from the checkpoint file:  "G4.Frag_1060.chk"
 ---------
 Frag_1060
 ---------
 Charge =  0 Multiplicity = 1

 SCF Done:  E(RHF) =  -205.220445696     A.U. after   12 cycles
 E2 =    -0.6221047406D+00 EUMP2 =    -0.20584255043699D+03
 CCSD(T)
 CCSD(T)= -0.20590056398D+03
 5\MP4SDQ=-205.8829563\CCSD=-205.8840904\CCSD(T)=-205.900564\RMSD=2.671
 Normal termination of Gaussian 09 at Fri Aug 26 09:14:41 2022.

 ---------------------------------------------------------
 #P Geom=AllCheck Guess=TCheck SCRF=Check MP4=FrzG4/GTBas2
 ---------------------------------------------------------

 Structure from the checkpoint file:  "G4.Frag_1060.chk"
 ---------
 Frag_1060
 ---------
 Charge =  0 Multiplicity = 1

 SCF Done:  E(RHF) =  -205.230444445     A.U. after   12 cycles
 E2 =    -0.6340279658D+00 EUMP2 =    -0.20586447241129D+03
 Normal termination of Gaussian 09 at Fri Aug 26 09:14:50 2022.

 ---------------------------------------------------------
 #P Geom=AllCheck Guess=TCheck SCRF=Check MP4=FrzG4/GTBas3
 ---------------------------------------------------------

 Structure from the checkpoint file:  "G4.Frag_1060.chk"
 ---------
 Frag_1060
 ---------
 Charge =  0 Multiplicity = 1

 SCF Done:  E(RHF) =  -205.254831760     A.U. after   11 cycles
 E2 =    -0.7670249582D+00 EUMP2 =    -0.20602185671861D+03
 Normal termination of Gaussian 09 at Fri Aug 26 09:15:28 2022.

 -----------------------------------------------------------
 #P Geom=AllCheck Guess=TCheck SCRF=Check MP2=Full/GTLargeXP
 -----------------------------------------------------------

 Structure from the checkpoint file:  "G4.Frag_1060.chk"
 ---------
 Frag_1060
 ---------
 Charge =  0 Multiplicity = 1

 SCF Done:  E(RHF) =  -205.312160912     A.U. after   11 cycles
 E2 =    -0.9975563999D+00 EUMP2 =    -0.20630971731187D+03
 Normal termination of Gaussian 09 at Fri Aug 26 09:15:51 2022.
 SCF Done:  E(RHF) =  -205.328246467     A.U. after    9 cycles
 Normal termination of Gaussian 09 at Fri Aug 26 09:16:27 2022.

                         Standard orientation:
 ---------------------------------------------------------------------
 Center     Atomic      Atomic             Coordinates (Angstroms)
 Number     Number       Type             X           Y           Z
 ---------------------------------------------------------------------
      1          7           0       -1.478414   -0.536399   -0.218431
      2          6           0       -0.668667    0.586020    0.242801
      3          7           0        0.638045    0.525504   -0.396657
      4          7           0        1.394347   -0.557581    0.152994
      5          1           0       -2.315521   -0.600814    0.354317
      6          1           0       -0.939729   -1.379074   -0.030751
      7          1           0       -0.568712    0.623661    1.349992
      8          1           0       -1.137259    1.525980   -0.075455
      9          1           0        1.113793    1.414649   -0.260277
     10          1           0        2.069679   -0.848738   -0.545113
     11          1           0        1.911905   -0.272455    0.985137
 ---------------------------------------------------------------------

 SCF Done:  E(RHF) =  -205.331883793     A.U. after    8 cycles

 The electronic state is 1-A.
 Alpha  occ. eigenvalues --  -15.57334 -15.57231 -15.52754 -11.27325  -1.28013
 Alpha  occ. eigenvalues --   -1.16161  -1.03353  -0.83938  -0.70725  -0.67903
 Alpha  occ. eigenvalues --   -0.63474  -0.60628  -0.56521  -0.52213  -0.42445
 Alpha  occ. eigenvalues --   -0.40677  -0.37612
 Alpha virt. eigenvalues --    0.04201   0.05056   0.05178   0.05997   0.08133
 Alpha virt. eigenvalues --    0.09143   0.09581   0.10678   0.10813   0.12962
 Alpha virt. eigenvalues --    0.13528   0.14431   0.14856   0.19835   0.20063

 Mulliken charges:
               1
     1  N   -0.655853
     2  C   -0.083527
     3  N   -0.320314
     4  N   -0.646825
     5  H    0.271069
     6  H    0.305705
     7  H    0.096572
     8  H    0.155596
     9  H    0.271488
    10  H    0.326141
    11  H    0.279947
 Sum of Mulliken charges =  -0.00000

 Dipole moment (field-independent basis, Debye):
    X=              1.5770    Y=              1.0675    Z=              2.2826  Tot=              2.9726
 Quadrupole moment (field-independent basis, Debye-Ang):
   XX=            -21.0809   YY=            -24.1553   ZZ=            -28.4318
   XY=              0.3451   XZ=             -2.3984   YZ=              0.3213

 CCSD(T)/G3Bas1=-205.900564\MP2/GTBas2=-205.8644724\MP4/GTBas2=-205.921
 Normal termination of Gaussian 09 at Fri Aug 26 09:19:47 2022.
