 Gaussian 09, Revision E.01,
 Gaussian 09:  ES64L-G09RevE.01 30-Nov-2015

 -----
 #P G4
 -----

 --------
 Frag_611
 --------
 Symbolic Z-matrix:
 Charge =  0 Multiplicity = 1

 SCF Done:  E(RB3LYP) =  -250.713729718     A.U. after   13 cycles
 SCF Done:  E(RB3LYP) =  -250.715722342     A.U. after   10 cycles
 SCF Done:  E(RB3LYP) =  -250.715745461     A.U. after    8 cycles
 Optimization completed.
    -- Stationary point found.
 Normal termination of Gaussian 09 at Fri Aug 26 07:54:13 2022.

 ----------------------------------------------------------
 #P Geom=AllCheck Guess=TCheck SCRF=Check B3LYP/GTBas3 Freq
 ----------------------------------------------------------

 Structure from the checkpoint file:  "G4.Frag_611.chk"
 --------
 Frag_611
 --------
 Charge =  0 Multiplicity = 1

 SCF Done:  E(RB3LYP) =  -250.715745461     A.U. after    1 cycles

  Exact polarizability:  65.761   0.001  52.435   0.001   0.002  52.432
 Approx polarizability: 103.340   0.005  71.764   0.004   0.001  71.759

                      1                      2                      3
                      A                      A                      A
 Frequencies --    186.6826               188.3841               211.3067
 Red. masses --      3.4332                 3.5289                 1.0143
 Frc consts  --      0.0705                 0.0738                 0.0267
 IR Inten    --      4.0227                 4.0818                 0.0046

                      4                      5                      6
                      A                      A                      A
 Frequencies --    266.6016               267.9243               353.5562
 Red. masses --      1.0762                 1.0692                 2.2924
 Frc consts  --      0.0451                 0.0452                 0.1688
 IR Inten    --      0.1654                 0.1157                 0.2865

                      7                      8                      9
                      A                      A                      A
 Frequencies --    357.1546               373.8546               583.6095
 Red. masses --      2.2862                 2.5822                 5.4232
 Frc consts  --      0.1718                 0.2126                 1.0883
 IR Inten    --      0.2962                 0.5784                 0.0467

                     10                     11                     12
                      A                      A                      A
 Frequencies --    583.9606               689.6636               880.4698
 Red. masses --      5.4059                 4.0591                 2.2421
 Frc consts  --      1.0861                 1.1375                 1.0241
 IR Inten    --      0.0441                 1.2048                 0.4795

                     13                     14                     15
                      A                      A                      A
 Frequencies --    938.2665               940.8084               970.5823
 Red. masses --      1.7932                 1.7868                 1.1991
 Frc consts  --      0.9301                 0.9318                 0.6655
 IR Inten    --      0.8188                 0.7994                 0.0008

                     16                     17                     18
                      A                      A                      A
 Frequencies --   1052.8431              1053.5784              1228.2641
 Red. masses --      1.4034                 1.4074                 2.6800
 Frc consts  --      0.9166                 0.9205                 2.3821
 IR Inten    --      0.1207                 0.1220                 5.2541

                     19                     20                     21
                      A                      A                      A
 Frequencies --   1230.2227              1269.2165              1399.3093
 Red. masses --      2.6828                 2.5978                 1.2018
 Frc consts  --      2.3922                 2.4656                 1.3865
 IR Inten    --      5.2877                15.3877                 3.4281

                     22                     23                     24
                      A                      A                      A
 Frequencies --   1400.2566              1432.1117              1474.3859
 Red. masses --      1.2042                 1.2106                 1.0473
 Frc consts  --      1.3912                 1.4628                 1.3414
 IR Inten    --      3.3899                 0.7668                 0.0038

                     25                     26                     27
                      A                      A                      A
 Frequencies --   1485.8295              1486.0530              1498.9477
 Red. masses --      1.0438                 1.0440                 1.0505
 Frc consts  --      1.3578                 1.3584                 1.3906
 IR Inten    --      0.4223                 0.3126                 6.1385

                     28                     29                     30
                      A                      A                      A
 Frequencies --   1499.0257              1518.2095              2351.7523
 Red. masses --      1.0506                 1.0615                12.6858
 Frc consts  --      1.3909                 1.4416                41.3382
 IR Inten    --      5.9828                 9.1483                 8.9700

                     31                     32                     33
                      A                      A                      A
 Frequencies --   3041.3345              3041.6782              3047.0411
 Red. masses --      1.0343                 1.0344                 1.0353
 Frc consts  --      5.6365                 5.6384                 5.6631
 IR Inten    --     15.4883                15.3180                12.9792

                     34                     35                     36
                      A                      A                      A
 Frequencies --   3115.7909              3116.0016              3121.3549
 Red. masses --      1.1020                 1.1020                 1.1012
 Frc consts  --      6.3035                 6.3044                 6.3213
 IR Inten    --      3.5877                 3.2858                39.9474

                     37                     38                     39
                      A                      A                      A
 Frequencies --   3123.8643              3127.0865              3127.8037
 Red. masses --      1.1033                 1.1026                 1.1027
 Frc consts  --      6.3437                 6.3526                 6.3558
 IR Inten    --      0.4398                26.7729                25.9055

 - Thermochemistry -
 -------------------
 Temperature   298.150 Kelvin.  Pressure   1.00000 Atm.
 Atom     1 has atomic number  6 and mass  12.00000

 Molecular mass:    83.07350 amu.
 Principal axes and moments of inertia in atomic units:
                           1         2         3
     Eigenvalues --   401.68833 657.35996 657.38283
           X            1.00000  -0.00003  -0.00002
           Y            0.00003   0.99980   0.02006
           Z            0.00002  -0.02006   0.99980
 This molecule is an asymmetric top.
 Rotational symmetry number  1.
 Rotational temperatures (Kelvin)      0.21562     0.13176     0.13176
 Rotational constants (GHZ):           4.49289     2.74544     2.74534
 Zero-point vibrational energy     341143.8 (Joules/Mol)
                                   81.53532 (Kcal/Mol)
 Warning -- explicit consideration of  10 degrees of freedom as
           vibrations may cause significant error
 Vibrational temperatures:    268.59   271.04   304.02   383.58   385.48
          (Kelvin)            508.69   513.87   537.89   839.68   840.19
                              992.27  1266.80  1349.95  1353.61  1396.45
                             1514.80  1515.86  1767.20  1770.01  1826.12
                             2013.29  2014.65  2060.49  2121.31  2137.77
                             2138.10  2156.65  2156.76  2184.36  3383.64
                             4375.80  4376.29  4384.01  4482.92  4483.23
                             4490.93  4494.54  4499.17  4500.21

 Zero-point correction=                           0.129935 (Hartree/Particle)
 Thermal correction to Energy=                    0.137245
 Thermal correction to Enthalpy=                  0.138189
 Thermal correction to Gibbs Free Energy=         0.099665
 Sum of electronic and zero-point Energies=           -250.585811
 Sum of electronic and thermal Energies=              -250.578500
 Sum of electronic and thermal Enthalpies=            -250.577556
 Sum of electronic and thermal Free Energies=         -250.616081

                     E (Thermal)             CV                S
                      KCal/Mol        Cal/Mol-Kelvin    Cal/Mol-Kelvin
 Total                   86.123             26.389             81.082
 Electronic               0.000              0.000              0.000
 Translational            0.889              2.981             39.165
 Rotational               0.889              2.981             26.654
 Vibrational             84.345             20.427             15.263
 Vibration     1          0.632              1.858              2.261
 Vibration     2          0.633              1.856              2.244
 Vibration     3          0.643              1.824              2.032
 Vibration     4          0.672              1.734              1.618
 Vibration     5          0.673              1.732              1.610
 Vibration     6          0.730              1.568              1.150
 Vibration     7          0.732              1.561              1.134
 Vibration     8          0.745              1.526              1.064
 Vibration     9          0.940              1.067              0.479
 Vibration    10          0.941              1.066              0.478

 Optimization completed.
    -- Stationary point found.
 Normal termination of Gaussian 09 at Fri Aug 26 07:54:49 2022.

 -----------------------------------------------------------------
 #P Geom=AllCheck Guess=TCheck SCRF=Check CCSD(T,E4T,FrzG4)/GTBas1
 -----------------------------------------------------------------

 Structure from the checkpoint file:  "G4.Frag_611.chk"
 --------
 Frag_611
 --------
 Charge =  0 Multiplicity = 1

 SCF Done:  E(RHF) =  -249.031171699     A.U. after   11 cycles
 E2 =    -0.8094437463D+00 EUMP2 =    -0.24984061544545D+03
 CCSD(T)
 CCSD(T)= -0.24992271684D+03
 \CCSD(T)=-249.9227168\RMSD=8.273e-09\PG=C01 [X(C5H9N1)]\\@
 Normal termination of Gaussian 09 at Fri Aug 26 07:56:35 2022.

 ---------------------------------------------------------
 #P Geom=AllCheck Guess=TCheck SCRF=Check MP4=FrzG4/GTBas2
 ---------------------------------------------------------

 Structure from the checkpoint file:  "G4.Frag_611.chk"
 --------
 Frag_611
 --------
 Charge =  0 Multiplicity = 1

 SCF Done:  E(RHF) =  -249.036162286     A.U. after   10 cycles
 E2 =    -0.8176026261D+00 EUMP2 =    -0.24985376491206D+03
 Normal termination of Gaussian 09 at Fri Aug 26 07:57:13 2022.

 ---------------------------------------------------------
 #P Geom=AllCheck Guess=TCheck SCRF=Check MP4=FrzG4/GTBas3
 ---------------------------------------------------------

 Structure from the checkpoint file:  "G4.Frag_611.chk"
 --------
 Frag_611
 --------
 Charge =  0 Multiplicity = 1

 SCF Done:  E(RHF) =  -249.059426131     A.U. after   10 cycles
 E2 =    -0.9862237733D+00 EUMP2 =    -0.25004564990406D+03
 Normal termination of Gaussian 09 at Fri Aug 26 08:00:46 2022.

 -----------------------------------------------------------
 #P Geom=AllCheck Guess=TCheck SCRF=Check MP2=Full/GTLargeXP
 -----------------------------------------------------------

 Structure from the checkpoint file:  "G4.Frag_611.chk"
 --------
 Frag_611
 --------
 Charge =  0 Multiplicity = 1

 SCF Done:  E(RHF) =  -249.113524674     A.U. after   10 cycles
 E2 =    -0.1300978390D+01 EUMP2 =    -0.25041450306416D+03
 Normal termination of Gaussian 09 at Fri Aug 26 08:02:46 2022.
 SCF Done:  E(RHF) =  -249.132612234     A.U. after    8 cycles
 Normal termination of Gaussian 09 at Fri Aug 26 08:04:49 2022.

                         Standard orientation:
 ---------------------------------------------------------------------
 Center     Atomic      Atomic             Coordinates (Angstroms)
 Number     Number       Type             X           Y           Z
 ---------------------------------------------------------------------
      1          6           0        0.771515   -1.414651   -0.370672
      2          6           0        0.277034   -0.000054   -0.000012
      3          6           0        0.770954    1.028582   -1.039748
      4          6           0        0.770819    0.386420    1.410568
      5          6           0       -1.196859   -0.000188   -0.000023
      6          7           0       -2.352905   -0.000264   -0.000166
      7          1           0        0.419675   -2.157065    0.350298
      8          1           0        0.419234   -1.708278   -1.362870
      9          1           0        1.865904   -1.429466   -0.374839
     10          1           0        0.418756    2.034565   -0.797501
     11          1           0        1.865264    1.039815   -1.051188
     12          1           0        0.418612    0.775358   -2.042966
     13          1           0        1.865135    0.390969    1.426032
     14          1           0        0.418720   -0.326471    2.160581
     15          1           0        0.418258    1.381766    1.692931
 ---------------------------------------------------------------------

 SCF Done:  E(RHF) =  -249.136390666     A.U. after    7 cycles

 The electronic state is 1-A.
 Alpha  occ. eigenvalues --  -15.56168 -11.29238 -11.26429 -11.24105 -11.24103
 Alpha  occ. eigenvalues --  -11.24101  -1.21573  -1.12579  -0.95918  -0.95917
 Alpha  occ. eigenvalues --   -0.85418  -0.68442  -0.62843  -0.62842  -0.57267
 Alpha  occ. eigenvalues --   -0.57077  -0.57076  -0.54032  -0.52265  -0.51062
 Alpha  occ. eigenvalues --   -0.51058  -0.44915  -0.44913
 Alpha virt. eigenvalues --    0.03062   0.03892   0.03892   0.04720   0.06322
 Alpha virt. eigenvalues --    0.06323   0.07239   0.07533   0.07533   0.09386
 Alpha virt. eigenvalues --    0.09509   0.09775   0.09775   0.12289   0.13308

 Mulliken charges:
               1
     1  C   -0.570231
     2  C    0.395936
     3  C   -0.570200
     4  C   -0.570212
     5  C    0.134628
     6  N   -0.441139
     7  H    0.182627
     8  H    0.182643
     9  H    0.175148
    10  H    0.182636
    11  H    0.175129
    12  H    0.182638
    13  H    0.175128
    14  H    0.182623
    15  H    0.182644
 Sum of Mulliken charges =  -0.00000

 Dipole moment (field-independent basis, Debye):
    X=              4.4216    Y=              0.0004    Z=              0.0002  Tot=              4.4216
 Quadrupole moment (field-independent basis, Debye-Ang):
   XX=            -48.7262   YY=            -37.1458   ZZ=            -37.1479
   XY=             -0.0009   XZ=             -0.0009   YZ=              0.0003

 Normal termination of Gaussian 09 at Fri Aug 26 08:11:54 2022.
