 Gaussian 09, Revision E.01,
 Gaussian 09:  ES64L-G09RevE.01 30-Nov-2015

 -----
 #P G4
 -----

 --------
 Frag_643
 --------
 Symbolic Z-matrix:
 Charge =  0 Multiplicity = 1

 SCF Done:  E(RB3LYP) =  -300.435690673     A.U. after   15 cycles
 SCF Done:  E(RB3LYP) =  -300.453969423     A.U. after   13 cycles
 SCF Done:  E(RB3LYP) =  -300.454293668     A.U. after   12 cycles
 SCF Done:  E(RB3LYP) =  -300.454683906     A.U. after   12 cycles
 SCF Done:  E(RB3LYP) =  -300.455785608     A.U. after   12 cycles
 SCF Done:  E(RB3LYP) =  -300.458444806     A.U. after   12 cycles
 SCF Done:  E(RB3LYP) =  -300.459727768     A.U. after   12 cycles
 SCF Done:  E(RB3LYP) =  -300.460247152     A.U. after   11 cycles
 SCF Done:  E(RB3LYP) =  -300.460399562     A.U. after   11 cycles
 SCF Done:  E(RB3LYP) =  -300.460454130     A.U. after   11 cycles
 SCF Done:  E(RB3LYP) =  -300.460522633     A.U. after   11 cycles
 SCF Done:  E(RB3LYP) =  -300.460525476     A.U. after    8 cycles
 SCF Done:  E(RB3LYP) =  -300.460525864     A.U. after    7 cycles
 Optimization completed.
    -- Stationary point found.
 Normal termination of Gaussian 09 at Fri Aug 26 09:38:02 2022.

 ----------------------------------------------------------
 #P Geom=AllCheck Guess=TCheck SCRF=Check B3LYP/GTBas3 Freq
 ----------------------------------------------------------

 Structure from the checkpoint file:  "G4.Frag_643.chk"
 --------
 Frag_643
 --------
 Charge =  0 Multiplicity = 1

 SCF Done:  E(RB3LYP) =  -300.460525864     A.U. after    1 cycles

  Exact polarizability:  39.652  -0.638  35.608  -0.092   0.533  22.326
 Approx polarizability:  50.722  -0.371  58.891   0.911   1.093  32.585

                      1                      2                      3
                      A                      A                      A
 Frequencies --    165.6989               205.4874               312.6921
 Red. masses --      1.7002                 2.1089                 3.1027
 Frc consts  --      0.0275                 0.0525                 0.1787
 IR Inten    --     30.0088                34.3688                 1.2125

                      4                      5                      6
                      A                      A                      A
 Frequencies --    412.3290               509.9175               556.3863
 Red. masses --      1.2601                 2.1090                 2.0603
 Frc consts  --      0.1262                 0.3231                 0.3758
 IR Inten    --     98.1190                46.7399                35.1882

                      7                      8                      9
                      A                      A                      A
 Frequencies --    681.6816               761.2994               856.1314
 Red. masses --      3.5935                 6.6720                 1.7215
 Frc consts  --      0.9839                 2.2783                 0.7434
 IR Inten    --     23.0928                19.2002               148.2438

                     10                     11                     12
                      A                      A                      A
 Frequencies --    987.8618              1138.9935              1215.0697
 Red. masses --      4.1890                 2.6224                 2.0835
 Frc consts  --      2.4086                 2.0044                 1.8123
 IR Inten    --      5.2292                47.1548                 7.9467

                     13                     14                     15
                      A                      A                      A
 Frequencies --   1310.7635              1336.5642              1500.3106
 Red. masses --      1.9014                 1.1819                 1.4549
 Frc consts  --      1.9248                 1.2439                 1.9296
 IR Inten    --    380.1478                 8.8087                51.9761

                     16                     17                     18
                      A                      A                      A
 Frequencies --   1687.6538              1904.7257              3477.8200
 Red. masses --      1.1076                 9.3209                 1.0488
 Frc consts  --      1.8587                19.9238                 7.4743
 IR Inten    --     14.9028               324.7956                 2.2063

                     19                     20                     21
                      A                      A                      A
 Frequencies --   3497.4650              3585.3378              3795.6598
 Red. masses --      1.0752                 1.0947                 1.0653
 Frc consts  --      7.7491                 8.2909                 9.0426
 IR Inten    --     11.8052                 3.7869                27.7227

 - Thermochemistry -
 -------------------
 Temperature   298.150 Kelvin.  Pressure   1.00000 Atm.
 Atom     1 has atomic number  7 and mass  14.00307

 Molecular mass:    76.02728 amu.
 Principal axes and moments of inertia in atomic units:
                           1         2         3
     Eigenvalues --   168.38118 433.80274 591.22166
           X            0.99994  -0.00581  -0.00943
           Y            0.00582   0.99998   0.00147
           Z            0.00942  -0.00152   0.99995
 This molecule is an asymmetric top.
 Rotational symmetry number  1.
 Rotational temperatures (Kelvin)      0.51439     0.19966     0.14650
 Rotational constants (GHZ):          10.71819     4.16028     3.05256
 Zero-point vibrational energy     178840.8 (Joules/Mol)
                                   42.74398 (Kcal/Mol)
 Warning -- explicit consideration of   6 degrees of freedom as
           vibrations may cause significant error
 Vibrational temperatures:    238.40   295.65   449.89   593.25   733.66
          (Kelvin)            800.51   980.79  1095.34  1231.78  1421.31
                             1638.76  1748.21  1885.89  1923.02  2158.61
                             2428.15  2740.47  5003.80  5032.07  5158.50
                             5461.10

 Zero-point correction=                           0.068117 (Hartree/Particle)
 Thermal correction to Energy=                    0.073601
 Thermal correction to Enthalpy=                  0.074545
 Thermal correction to Gibbs Free Energy=         0.039782
 Sum of electronic and zero-point Energies=           -300.392409
 Sum of electronic and thermal Energies=              -300.386925
 Sum of electronic and thermal Enthalpies=            -300.385981
 Sum of electronic and thermal Free Energies=         -300.420744

                     E (Thermal)             CV                S
                      KCal/Mol        Cal/Mol-Kelvin    Cal/Mol-Kelvin
 Total                   46.185             18.508             73.166
 Electronic               0.000              0.000              0.000
 Translational            0.889              2.981             38.901
 Rotational               0.889              2.981             25.271
 Vibrational             44.408             12.546              8.993
 Vibration     1          0.624              1.885              2.484
 Vibration     2          0.640              1.832              2.083
 Vibration     3          0.701              1.649              1.348
 Vibration     4          0.776              1.443              0.918
 Vibration     5          0.865              1.228              0.634
 Vibration     6          0.912              1.126              0.531

 Normal termination of Gaussian 09 at Fri Aug 26 09:38:18 2022.

 -----------------------------------------------------------------
 #P Geom=AllCheck Guess=TCheck SCRF=Check CCSD(T,E4T,FrzG4)/GTBas1
 -----------------------------------------------------------------

 Structure from the checkpoint file:  "G4.Frag_643.chk"
 --------
 Frag_643
 --------
 Charge =  0 Multiplicity = 1

 SCF Done:  E(RHF) =  -298.785260132     A.U. after   14 cycles
 E2 =    -0.8012229562D+00 EUMP2 =    -0.29958648308868D+03
 CCSD(T)
 CCSD(T)= -0.29963378884D+03
 \CCSD=-299.6103214\CCSD(T)=-299.6337888\RMSD=2.845e-09\PG=C01 [X(C1H4N
 Normal termination of Gaussian 09 at Fri Aug 26 09:39:07 2022.

 ---------------------------------------------------------
 #P Geom=AllCheck Guess=TCheck SCRF=Check MP4=FrzG4/GTBas2
 ---------------------------------------------------------

 Structure from the checkpoint file:  "G4.Frag_643.chk"
 --------
 Frag_643
 --------
 Charge =  0 Multiplicity = 1

 SCF Done:  E(RHF) =  -298.796430765     A.U. after   12 cycles
 E2 =    -0.8155431589D+00 EUMP2 =    -0.29961197392380D+03
 Normal termination of Gaussian 09 at Fri Aug 26 09:39:20 2022.

 ---------------------------------------------------------
 #P Geom=AllCheck Guess=TCheck SCRF=Check MP4=FrzG4/GTBas3
 ---------------------------------------------------------

 Structure from the checkpoint file:  "G4.Frag_643.chk"
 --------
 Frag_643
 --------
 Charge =  0 Multiplicity = 1

 SCF Done:  E(RHF) =  -298.827563123     A.U. after   12 cycles
 E2 =    -0.9785571078D+00 EUMP2 =    -0.29980612023091D+03
 Normal termination of Gaussian 09 at Fri Aug 26 09:40:20 2022.

 -----------------------------------------------------------
 #P Geom=AllCheck Guess=TCheck SCRF=Check MP2=Full/GTLargeXP
 -----------------------------------------------------------

 Structure from the checkpoint file:  "G4.Frag_643.chk"
 --------
 Frag_643
 --------
 Charge =  0 Multiplicity = 1

 SCF Done:  E(RHF) =  -298.914422913     A.U. after   12 cycles
 E2 =    -0.1274402824D+01 EUMP2 =    -0.30018882573711D+03
 Normal termination of Gaussian 09 at Fri Aug 26 09:40:58 2022.
 SCF Done:  E(RHF) =  -298.938656899     A.U. after    9 cycles
 Normal termination of Gaussian 09 at Fri Aug 26 09:41:37 2022.

                         Standard orientation:
 ---------------------------------------------------------------------
 Center     Atomic      Atomic             Coordinates (Angstroms)
 Number     Number       Type             X           Y           Z
 ---------------------------------------------------------------------
      1          7           0       -1.849753    0.073826   -0.034884
      2          7           0       -0.624988   -0.610371   -0.059824
      3          6           0        0.533071    0.165474   -0.008475
      4          8           0        0.586610    1.359161   -0.013009
      5          8           0        1.659365   -0.604444    0.035566
      6          1           0       -2.207736    0.158888    0.912505
      7          1           0       -2.517973   -0.436579   -0.599718
      8          1           0       -0.575864   -1.486788    0.449565
      9          1           0        1.458532   -1.510284   -0.229008
 ---------------------------------------------------------------------

 SCF Done:  E(RHF) =  -298.943906682     A.U. after    8 cycles

 The electronic state is 1-A.
 Alpha  occ. eigenvalues --  -20.61172 -20.53026 -15.62823 -15.60204 -11.40713
 Alpha  occ. eigenvalues --   -1.46692  -1.36578  -1.31062  -1.08375  -0.83825
 Alpha  occ. eigenvalues --   -0.78353  -0.72753  -0.70848  -0.64240  -0.63549
 Alpha  occ. eigenvalues --   -0.58883  -0.49953  -0.46829  -0.45142  -0.42954
 Alpha virt. eigenvalues --    0.02682   0.04435   0.05461   0.06613   0.08203
 Alpha virt. eigenvalues --    0.08814   0.09301   0.10745   0.11022   0.13108
 Alpha virt. eigenvalues --    0.14433   0.16005   0.16638   0.17380   0.18159

 Mulliken charges:
               1
     1  N   -0.565728
     2  N   -0.401507
     3  C    0.704710
     4  O   -0.532196
     5  O   -0.517750
     6  H    0.304744
     7  H    0.323695
     8  H    0.306570
     9  H    0.377463
 Sum of Mulliken charges =  -0.00000

 Dipole moment (field-independent basis, Debye):
    X=             -2.8189    Y=             -5.4791    Z=              0.8945  Tot=              6.2263
 Quadrupole moment (field-independent basis, Debye-Ang):
   XX=            -26.9513   YY=            -29.2972   ZZ=            -27.7727
   XY=             -0.8205   XZ=             -2.1991   YZ=              0.4290

 Normal termination of Gaussian 09 at Fri Aug 26 09:45:24 2022.
