 Gaussian 09, Revision E.01,
 Gaussian 09:  ES64L-G09RevE.01 30-Nov-2015

 -----
 #P G4
 -----

 --------
 Frag_984
 --------
 Symbolic Z-matrix:
 Charge =  0 Multiplicity = 1

 SCF Done:  E(RB3LYP) =  -282.660930524     A.U. after   16 cycles
 SCF Done:  E(RB3LYP) =  -282.688301121     A.U. after   13 cycles
 SCF Done:  E(RB3LYP) =  -282.695563621     A.U. after   13 cycles
 SCF Done:  E(RB3LYP) =  -282.696161354     A.U. after   12 cycles
 SCF Done:  E(RB3LYP) =  -282.696828785     A.U. after   12 cycles
 SCF Done:  E(RB3LYP) =  -282.697287472     A.U. after   12 cycles
 SCF Done:  E(RB3LYP) =  -282.697460304     A.U. after   11 cycles
 SCF Done:  E(RB3LYP) =  -282.697495094     A.U. after   11 cycles
 SCF Done:  E(RB3LYP) =  -282.697501413     A.U. after    9 cycles
 SCF Done:  E(RB3LYP) =  -282.697502720     A.U. after    8 cycles
 Optimization completed.
    -- Stationary point found.
 Normal termination of Gaussian 09 at Fri Aug 26 05:28:59 2022.

 ----------------------------------------------------------
 #P Geom=AllCheck Guess=TCheck SCRF=Check B3LYP/GTBas3 Freq
 ----------------------------------------------------------

 Structure from the checkpoint file:  "G4.Frag_984.chk"
 --------
 Frag_984
 --------
 Charge =  0 Multiplicity = 1

 SCF Done:  E(RB3LYP) =  -282.697502720     A.U. after    1 cycles

  Exact polarizability:  60.922  -4.106  69.301   1.756   2.972  37.218
 Approx polarizability:  83.765  -4.151 132.790   6.420  17.247  62.659

                      1                      2                      3
                      A                      A                      A
 Frequencies --     73.6312               184.3794               313.0842
 Red. masses --      4.0362                 1.0537                 3.1297
 Frc consts  --      0.0129                 0.0211                 0.1808
 IR Inten    --      0.6019                 0.3436                 5.0396

                      4                      5                      6
                      A                      A                      A
 Frequencies --    340.9465               391.2359               558.1338
 Red. masses --      3.4086                 2.5170                 2.5200
 Frc consts  --      0.2334                 0.2270                 0.4625
 IR Inten    --      2.4654                 2.5936                 3.3201

                      7                      8                      9
                      A                      A                      A
 Frequencies --    576.4909               644.6829               686.9375
 Red. masses --      3.1267                 2.2277                 1.0871
 Frc consts  --      0.6122                 0.5455                 0.3022
 IR Inten    --     20.4975                 5.7588                97.3885

                     10                     11                     12
                      A                      A                      A
 Frequencies --    792.2477               805.8538               883.0779
 Red. masses --      3.4014                 1.4897                 1.3805
 Frc consts  --      1.2579                 0.5700                 0.6343
 IR Inten    --     12.3779                 1.2978                14.7353

                     13                     14                     15
                      A                      A                      A
 Frequencies --    940.1721               949.4402              1025.2574
 Red. masses --      1.8365                 1.3334                 1.4570
 Frc consts  --      0.9564                 0.7082                 0.9023
 IR Inten    --      2.4985                33.2261                 9.9557

                     16                     17                     18
                      A                      A                      A
 Frequencies --   1076.6005              1222.3585              1248.7966
 Red. masses --      1.4990                 3.6046                 2.7065
 Frc consts  --      1.0236                 3.1732                 2.4868
 IR Inten    --      2.0710                19.9467                25.2053

                     19                     20                     21
                      A                      A                      A
 Frequencies --   1355.5392              1403.4801              1438.5379
 Red. masses --      1.4702                 1.2003                 1.1950
 Frc consts  --      1.5916                 1.3930                 1.4570
 IR Inten    --    146.4539                 7.0855                 2.1469

                     22                     23                     24
                      A                      A                      A
 Frequencies --   1466.3696              1485.6662              1522.1595
 Red. masses --      1.0581                 1.0541                 2.1488
 Frc consts  --      1.3404                 1.3707                 2.9334
 IR Inten    --      4.2783                17.5946               153.5832

                     25                     26                     27
                      A                      A                      A
 Frequencies --   1609.9673              1735.2946              3047.9106
 Red. masses --      2.6698                 5.8916                 1.0379
 Frc consts  --      4.0772                10.4527                 5.6806
 IR Inten    --     47.1811                13.0571                 9.5104

                     28                     29                     30
                      A                      A                      A
 Frequencies --   3114.7970              3143.3718              3173.5474
 Red. masses --      1.0963                 1.1029                 1.0618
 Frc consts  --      6.2664                 6.4205                 6.3003
 IR Inten    --      7.7858                 7.5237                 0.3805

                     31                     32                     33
                      A                      A                      A
 Frequencies --   3261.4657              3412.9307              3477.4385
 Red. masses --      1.1162                 1.0715                 1.0733
 Frc consts  --      6.9952                 7.3532                 7.6468
 IR Inten    --      1.6003                 2.8812                 2.7122

 - Thermochemistry -
 -------------------
 Temperature   298.150 Kelvin.  Pressure   1.00000 Atm.
 Atom     1 has atomic number  6 and mass  12.00000

 Molecular mass:    85.06400 amu.
 Principal axes and moments of inertia in atomic units:
                           1         2         3
     Eigenvalues --   339.64823 513.48585 754.93789
           X            0.99986   0.01499  -0.00759
           Y           -0.01518   0.99956  -0.02555
           Z            0.00721   0.02566   0.99964
 This molecule is an asymmetric top.
 Rotational symmetry number  1.
 Rotational temperatures (Kelvin)      0.25501     0.16868     0.11473
 Rotational constants (GHZ):           5.31356     3.51469     2.39058
 Zero-point vibrational energy     283286.5 (Joules/Mol)
                                   67.70710 (Kcal/Mol)
 Warning -- explicit consideration of   7 degrees of freedom as
           vibrations may cause significant error
 Vibrational temperatures:    105.94   265.28   450.46   490.55   562.90
          (Kelvin)            803.03   829.44   927.55   988.35  1139.87
                             1159.44  1270.55  1352.70  1366.03  1475.11
                             1548.99  1758.70  1796.74  1950.32  2019.29
                             2069.73  2109.78  2137.54  2190.05  2316.38
                             2496.70  4385.26  4481.49  4522.61  4566.02
                             4692.52  4910.44  5003.25

 Zero-point correction=                           0.107898 (Hartree/Particle)
 Thermal correction to Energy=                    0.114248
 Thermal correction to Enthalpy=                  0.115192
 Thermal correction to Gibbs Free Energy=         0.077966
 Sum of electronic and zero-point Energies=           -282.589605
 Sum of electronic and thermal Energies=              -282.583255
 Sum of electronic and thermal Enthalpies=            -282.582311
 Sum of electronic and thermal Free Energies=         -282.619537

                     E (Thermal)             CV                S
                      KCal/Mol        Cal/Mol-Kelvin    Cal/Mol-Kelvin
 Total                   71.692             22.882             78.349
 Electronic               0.000              0.000              0.000
 Translational            0.889              2.981             39.236
 Rotational               0.889              2.981             26.379
 Vibrational             69.914             16.921             12.734
 Vibration     1          0.599              1.966              4.054
 Vibration     2          0.631              1.861              2.284
 Vibration     3          0.701              1.649              1.346
 Vibration     4          0.720              1.594              1.208
 Vibration     5          0.759              1.489              0.995
 Vibration     6          0.914              1.122              0.528
 Vibration     7          0.933              1.082              0.492

 Normal termination of Gaussian 09 at Fri Aug 26 05:29:30 2022.

 -----------------------------------------------------------------
 #P Geom=AllCheck Guess=TCheck SCRF=Check CCSD(T,E4T,FrzG4)/GTBas1
 -----------------------------------------------------------------

 Structure from the checkpoint file:  "G4.Frag_984.chk"
 --------
 Frag_984
 --------
 Charge =  0 Multiplicity = 1

 SCF Done:  E(RHF) =  -280.876327538     A.U. after   15 cycles
 E2 =    -0.8998948107D+00 EUMP2 =    -0.28177622234903D+03
 CCSD(T)
 CCSD(T)= -0.28185110734D+03
 .8540758\MP4SDQ=-281.8129437\CCSD=-281.812445\CCSD(T)=-281.8511073\RMS
 Normal termination of Gaussian 09 at Fri Aug 26 05:31:20 2022.

 ---------------------------------------------------------
 #P Geom=AllCheck Guess=TCheck SCRF=Check MP4=FrzG4/GTBas2
 ---------------------------------------------------------

 Structure from the checkpoint file:  "G4.Frag_984.chk"
 --------
 Frag_984
 --------
 Charge =  0 Multiplicity = 1

 SCF Done:  E(RHF) =  -280.886433202     A.U. after   14 cycles
 E2 =    -0.9118662445D+00 EUMP2 =    -0.28179829944653D+03
 Normal termination of Gaussian 09 at Fri Aug 26 05:32:01 2022.

 ---------------------------------------------------------
 #P Geom=AllCheck Guess=TCheck SCRF=Check MP4=FrzG4/GTBas3
 ---------------------------------------------------------

 Structure from the checkpoint file:  "G4.Frag_984.chk"
 --------
 Frag_984
 --------
 Charge =  0 Multiplicity = 1

 SCF Done:  E(RHF) =  -280.913878895     A.U. after   13 cycles
 E2 =    -0.1078472205D+01 EUMP2 =    -0.28199235110019D+03
 Normal termination of Gaussian 09 at Fri Aug 26 05:34:56 2022.

 -----------------------------------------------------------
 #P Geom=AllCheck Guess=TCheck SCRF=Check MP2=Full/GTLargeXP
 -----------------------------------------------------------

 Structure from the checkpoint file:  "G4.Frag_984.chk"
 --------
 Frag_984
 --------
 Charge =  0 Multiplicity = 1

 SCF Done:  E(RHF) =  -280.983705813     A.U. after   13 cycles
 E2 =    -0.1404838425D+01 EUMP2 =    -0.28238854423812D+03
 Normal termination of Gaussian 09 at Fri Aug 26 05:36:48 2022.
 SCF Done:  E(RHF) =  -281.005792163     A.U. after    9 cycles
 Normal termination of Gaussian 09 at Fri Aug 26 05:38:32 2022.

                         Standard orientation:
 ---------------------------------------------------------------------
 Center     Atomic      Atomic             Coordinates (Angstroms)
 Number     Number       Type             X           Y           Z
 ---------------------------------------------------------------------
      1          6           0       -1.154313    1.335892   -0.387065
      2          6           0       -0.680634    0.149793   -0.025104
      3          6           0       -1.482900   -1.056006    0.345521
      4          7           0        0.779557   -0.046617   -0.004717
      5          7           0        1.149410   -1.166597   -0.513639
      6          7           0        1.573807    0.848958    0.479573
      7          1           0       -2.222468    1.512433   -0.409598
      8          1           0       -0.504324    2.147871   -0.688525
      9          1           0       -2.546838   -0.810593    0.343519
     10          1           0       -1.203610   -1.420723    1.339750
     11          1           0       -1.291271   -1.868582   -0.358745
     12          1           0        2.171562   -1.172315   -0.425813
     13          1           0        0.984612    1.583626    0.870778
 ---------------------------------------------------------------------

 SCF Done:  E(RHF) =  -281.010180389     A.U. after    8 cycles

 The electronic state is 1-A.
 Alpha  occ. eigenvalues --  -15.75884 -15.57301 -15.57128 -11.31068 -11.25759
 Alpha  occ. eigenvalues --  -11.24300  -1.43932  -1.17639  -1.12001  -0.96874
 Alpha  occ. eigenvalues --   -0.92539  -0.77331  -0.72391  -0.68445  -0.65802
 Alpha  occ. eigenvalues --   -0.60247  -0.58689  -0.57377  -0.55500  -0.47255
 Alpha  occ. eigenvalues --   -0.46495  -0.39530  -0.33577
 Alpha virt. eigenvalues --    0.03128   0.04077   0.04686   0.05297   0.06802
 Alpha virt. eigenvalues --    0.06934   0.07358   0.07933   0.08703   0.09525
 Alpha virt. eigenvalues --    0.10279   0.11008   0.11628   0.12761   0.13303

 Mulliken charges:
               1
     1  C   -0.452332
     2  C    0.171675
     3  C   -0.528881
     4  N    0.467108
     5  N   -0.605304
     6  N   -0.689102
     7  H    0.204344
     8  H    0.223703
     9  H    0.173259
    10  H    0.192244
    11  H    0.233548
    12  H    0.311185
    13  H    0.298553
 Sum of Mulliken charges =  -0.00000

 Dipole moment (field-independent basis, Debye):
    X=             -2.9985    Y=              1.1084    Z=              0.5126  Tot=              3.2376
 Quadrupole moment (field-independent basis, Debye-Ang):
   XX=            -37.3713   YY=            -36.0129   ZZ=            -39.2596
   XY=             -2.2675   XZ=             -0.9099   YZ=             -1.6322

 Normal termination of Gaussian 09 at Fri Aug 26 05:45:19 2022.
