 Gaussian 09, Revision E.01,
 Gaussian 09:  ES64L-G09RevE.01 30-Nov-2015

 -----
 #P G4
 -----

 ---------
 Frag_1037
 ---------
 Symbolic Z-matrix:
 Charge =  0 Multiplicity = 1

 SCF Done:  E(RB3LYP) =  -304.980708801     A.U. after   14 cycles
 SCF Done:  E(RB3LYP) =  -304.991671324     A.U. after   12 cycles
 SCF Done:  E(RB3LYP) =  -304.993755624     A.U. after   11 cycles
 SCF Done:  E(RB3LYP) =  -304.994487368     A.U. after   11 cycles
 SCF Done:  E(RB3LYP) =  -304.993353083     A.U. after   13 cycles
 SCF Done:  E(RB3LYP) =  -304.994805273     A.U. after    9 cycles
 SCF Done:  E(RB3LYP) =  -304.994937112     A.U. after    9 cycles
 SCF Done:  E(RB3LYP) =  -304.994959548     A.U. after    9 cycles
 SCF Done:  E(RB3LYP) =  -304.994961690     A.U. after    7 cycles
 SCF Done:  E(RB3LYP) =  -304.994961853     A.U. after    7 cycles
 Optimization completed.
    -- Stationary point found.
 Normal termination of Gaussian 09 at Mon Aug 22 23:01:28 2022.

 ----------------------------------------------------------
 #P Geom=AllCheck Guess=TCheck SCRF=Check B3LYP/GTBas3 Freq
 ----------------------------------------------------------

 Structure from the checkpoint file:  "G4.Frag_1037.chk"
 ---------
 Frag_1037
 ---------
 Charge =  0 Multiplicity = 1

 SCF Done:  E(RB3LYP) =  -304.994961853     A.U. after    1 cycles

  Exact polarizability:  64.097  -2.229  53.903  -0.610  -0.543  49.243
 Approx polarizability:  85.163  -3.430  76.183   0.083   1.590  75.523

                      1                      2                      3
                      A                      A                      A
 Frequencies --    160.6701               198.8294               228.3085
 Red. masses --      1.3761                 1.5321                 1.1539
 Frc consts  --      0.0209                 0.0357                 0.0354
 IR Inten    --     18.4265                23.4597                 8.8159

                      4                      5                      6
                      A                      A                      A
 Frequencies --    274.5845               287.8296               345.8611
 Red. masses --      2.6050                 1.0980                 2.2658
 Frc consts  --      0.1157                 0.0536                 0.1597
 IR Inten    --     20.1046                 2.9311                 2.9378

                      7                      8                      9
                      A                      A                      A
 Frequencies --    379.7077               419.3660               457.0090
 Red. masses --      2.9658                 2.4169                 1.5442
 Frc consts  --      0.2519                 0.2504                 0.1900
 IR Inten    --     28.3671                 7.4055                46.7696

                     10                     11                     12
                      A                      A                      A
 Frequencies --    528.7612               608.2741               700.6816
 Red. masses --      2.1864                 2.6855                 5.3348
 Frc consts  --      0.3602                 0.5854                 1.5432
 IR Inten    --     31.7193                21.8414                35.2656

                     13                     14                     15
                      A                      A                      A
 Frequencies --    780.3239               835.5134               920.5802
 Red. masses --      4.7852                 3.1993                 1.5123
 Frc consts  --      1.7167                 1.3159                 0.7551
 IR Inten    --     38.8109                54.3210                 4.8831

                     16                     17                     18
                      A                      A                      A
 Frequencies --    957.9506               992.6019              1071.2389
 Red. masses --      1.8447                 1.3421                 1.2984
 Frc consts  --      0.9974                 0.7791                 0.8779
 IR Inten    --     30.3742                 1.5074                23.0973

                     19                     20                     21
                      A                      A                      A
 Frequencies --   1086.3525              1135.1583              1184.3960
 Red. masses --      1.3966                 1.6432                 2.0637
 Frc consts  --      0.9711                 1.2476                 1.7057
 IR Inten    --     26.0472                79.1952                 8.0339

                     22                     23                     24
                      A                      A                      A
 Frequencies --   1261.4591              1331.0579              1389.2646
 Red. masses --      3.1778                 1.6442                 1.4116
 Frc consts  --      2.9793                 1.7163                 1.6052
 IR Inten    --     55.2312                44.3983                23.5108

                     25                     26                     27
                      A                      A                      A
 Frequencies --   1401.2825              1419.0510              1475.6252
 Red. masses --      1.2559                 1.1527                 1.0586
 Frc consts  --      1.4530                 1.3676                 1.3581
 IR Inten    --     11.1584                51.8470                 0.7553

                     28                     29                     30
                      A                      A                      A
 Frequencies --   1475.8402              1497.1252              1505.8525
 Red. masses --      1.0494                 1.0653                 1.0506
 Frc consts  --      1.3468                 1.4068                 1.4036
 IR Inten    --      1.0769                 0.4959                 4.3620

                     31                     32                     33
                      A                      A                      A
 Frequencies --   1625.9230              1673.1086              3027.0874
 Red. masses --      1.0568                 1.0564                 1.0392
 Frc consts  --      1.6460                 1.7423                 5.6106
 IR Inten    --     14.8330                37.9657                29.9041

                     34                     35                     36
                      A                      A                      A
 Frequencies --   3041.3854              3088.7618              3113.0969
 Red. masses --      1.0349                 1.0942                 1.1006
 Frc consts  --      5.6401                 6.1508                 6.2847
 IR Inten    --     11.1630                34.9626                25.3814

                     37                     38                     39
                      A                      A                      A
 Frequencies --   3119.6301              3126.6074              3195.3920
 Red. masses --      1.1028                 1.1024                 1.0366
 Frc consts  --      6.3235                 6.3497                 6.2360
 IR Inten    --      4.7754                40.8547               115.9241

                     40                     41                     42
                      A                      A                      A
 Frequencies --   3223.1054              3528.9313              3768.5822
 Red. masses --      1.0928                 1.0795                 1.0652
 Frc consts  --      6.6886                 7.9207                 8.9134
 IR Inten    --     18.1086                43.4818                 5.0434

 - Thermochemistry -
 -------------------
 Temperature   298.150 Kelvin.  Pressure   1.00000 Atm.
 Atom     1 has atomic number  6 and mass  12.00000

 Molecular mass:    90.07931 amu.
 Principal axes and moments of inertia in atomic units:
                           1         2         3
     Eigenvalues --   389.16821 633.98736 656.59276
           X            0.99903  -0.03462  -0.02730
           Y            0.02561   0.95970  -0.27986
           Z            0.03588   0.27889   0.95965
 This molecule is an asymmetric top.
 Rotational symmetry number  1.
 Rotational temperatures (Kelvin)      0.22256     0.13662     0.13191
 Rotational constants (GHZ):           4.63743     2.84665     2.74865
 Zero-point vibrational energy     369898.3 (Joules/Mol)
                                   88.40782 (Kcal/Mol)
 Warning -- explicit consideration of  11 degrees of freedom as
           vibrations may cause significant error
 Vibrational temperatures:    231.17   286.07   328.48   395.07   414.12
          (Kelvin)            497.62   546.31   603.37   657.53   760.77
                              875.17  1008.12  1122.71  1202.12  1324.51
                             1378.28  1428.13  1541.27  1563.02  1633.24
                             1704.08  1814.96  1915.09  1998.84  2016.13
                             2041.70  2123.09  2123.40  2154.03  2166.58
                             2339.34  2407.23  4355.30  4375.87  4444.03
                             4479.05  4488.45  4498.49  4597.45  4637.32
                             5077.34  5422.14

 Zero-point correction=                           0.140887 (Hartree/Particle)
 Thermal correction to Energy=                    0.148478
 Thermal correction to Enthalpy=                  0.149422
 Thermal correction to Gibbs Free Energy=         0.110464
 Sum of electronic and zero-point Energies=           -304.854075
 Sum of electronic and thermal Energies=              -304.846484
 Sum of electronic and thermal Enthalpies=            -304.845540
 Sum of electronic and thermal Free Energies=         -304.884498

                     E (Thermal)             CV                S
                      KCal/Mol        Cal/Mol-Kelvin    Cal/Mol-Kelvin
 Total                   93.171             28.450             81.994
 Electronic               0.000              0.000              0.000
 Translational            0.889              2.981             39.407
 Rotational               0.889              2.981             26.585
 Vibrational             91.394             22.488             16.003
 Vibration     1          0.622              1.891              2.542
 Vibration     2          0.637              1.842              2.144
 Vibration     3          0.651              1.798              1.892
 Vibration     4          0.677              1.720              1.567
 Vibration     5          0.685              1.696              1.487
 Vibration     6          0.724              1.584              1.185
 Vibration     7          0.750              1.513              1.040
 Vibration     8          0.782              1.428              0.894
 Vibration     9          0.815              1.345              0.775
 Vibration    10          0.884              1.186              0.590
 Vibration    11          0.967              1.014              0.436

 Optimization completed.
    -- Stationary point found.
 Normal termination of Gaussian 09 at Mon Aug 22 23:04:39 2022.

 -----------------------------------------------------------------
 #P Geom=AllCheck Guess=TCheck SCRF=Check CCSD(T,E4T,FrzG4)/GTBas1
 -----------------------------------------------------------------

 Structure from the checkpoint file:  "G4.Frag_1037.chk"
 ---------
 Frag_1037
 ---------
 Charge =  0 Multiplicity = 1

 SCF Done:  E(RHF) =  -303.067413550     A.U. after   14 cycles
 E2 =    -0.9127427345D+00 EUMP2 =    -0.30398015628492D+03
 CCSD(T)
 CCSD(T)= -0.30406365253D+03
 4SDTQ=-304.0630411\MP4SDQ=-304.0350931\CCSD=-304.0358624\CCSD(T)=-304.
 Normal termination of Gaussian 09 at Mon Aug 22 23:11:36 2022.

 ---------------------------------------------------------
 #P Geom=AllCheck Guess=TCheck SCRF=Check MP4=FrzG4/GTBas2
 ---------------------------------------------------------

 Structure from the checkpoint file:  "G4.Frag_1037.chk"
 ---------
 Frag_1037
 ---------
 Charge =  0 Multiplicity = 1

 SCF Done:  E(RHF) =  -303.080834178     A.U. after   13 cycles
 E2 =    -0.9297735742D+00 EUMP2 =    -0.30401060775233D+03
 Normal termination of Gaussian 09 at Mon Aug 22 23:21:23 2022.

 ---------------------------------------------------------
 #P Geom=AllCheck Guess=TCheck SCRF=Check MP4=FrzG4/GTBas3
 ---------------------------------------------------------

 Structure from the checkpoint file:  "G4.Frag_1037.chk"
 ---------
 Frag_1037
 ---------
 Charge =  0 Multiplicity = 1

 SCF Done:  E(RHF) =  -303.110428857     A.U. after   12 cycles
 E2 =    -0.1128891872D+01 EUMP2 =    -0.30423932072934D+03
 Normal termination of Gaussian 09 at Tue Aug 23 03:00:50 2022.

 -----------------------------------------------------------
 #P Geom=AllCheck Guess=TCheck SCRF=Check MP2=Full/GTLargeXP
 -----------------------------------------------------------

 Structure from the checkpoint file:  "G4.Frag_1037.chk"
 ---------
 Frag_1037
 ---------
 Charge =  0 Multiplicity = 1

 SCF Done:  E(RHF) =  -303.193063964     A.U. after   12 cycles
 E2 =    -0.1471165327D+01 EUMP2 =    -0.30466422929094D+03
 Normal termination of Gaussian 09 at Tue Aug 23 03:08:19 2022.
 SCF Done:  E(RHF) =  -303.216869647     A.U. after   10 cycles
 Normal termination of Gaussian 09 at Tue Aug 23 03:16:18 2022.

                         Standard orientation:
 ---------------------------------------------------------------------
 Center     Atomic      Atomic             Coordinates (Angstroms)
 Number     Number       Type             X           Y           Z
 ---------------------------------------------------------------------
      1          6           0        1.677678   -0.689720   -0.479311
      2          6           0        0.377837   -0.019011   -0.036295
      3          6           0        0.481198    1.514745   -0.198351
      4          8           0        0.218674   -0.174162    1.433653
      5          7           0       -0.679244   -0.670059   -0.734065
      6          7           0       -1.901527   -0.110635   -0.158786
      7          1           0        2.520482   -0.321335    0.111482
      8          1           0        1.869180   -0.492168   -1.537551
      9          1           0        1.594858   -1.773716   -0.354060
     10          1           0        0.599987    1.763560   -1.256255
     11          1           0       -0.411685    2.028121    0.178850
     12          1           0        1.330014    1.919072    0.360596
     13          1           0        0.211964   -1.130712    1.567346
     14          1           0       -1.771791   -0.021447    0.866013
     15          1           0       -2.655541   -0.764457   -0.354444
     16          1           0       -2.191739    0.815158   -0.517511
 ---------------------------------------------------------------------

 SCF Done:  E(RHF) =  -303.222197399     A.U. after   10 cycles

 The electronic state is 1-A.
 Alpha  occ. eigenvalues --  -20.53454 -15.67686 -15.49223 -11.28584 -11.20208
 Alpha  occ. eigenvalues --  -11.19402  -1.34711  -1.29105  -1.07616  -0.95858
 Alpha  occ. eigenvalues --   -0.92285  -0.76543  -0.73530  -0.73035  -0.66792
 Alpha  occ. eigenvalues --   -0.59556  -0.59374  -0.54783  -0.52008  -0.51742
 Alpha  occ. eigenvalues --   -0.50586  -0.48361  -0.44064  -0.39746  -0.31246
 Alpha virt. eigenvalues --    0.02671   0.04215   0.04687   0.05761   0.06654
 Alpha virt. eigenvalues --    0.07226   0.07557   0.07923   0.09017   0.10079
 Alpha virt. eigenvalues --    0.10464   0.11199   0.11585   0.13633   0.14883

 Mulliken charges:
               1
     1  C   -0.554007
     2  C    0.499439
     3  C   -0.535361
     4  O   -0.670295
     5  N   -0.667313
     6  N   -0.488824
     7  H    0.171851
     8  H    0.175804
     9  H    0.169080
    10  H    0.179985
    11  H    0.118342
    12  H    0.172789
    13  H    0.362895
    14  H    0.369786
    15  H    0.361223
    16  H    0.334606
 Sum of Mulliken charges =  -0.00000

 Dipole moment (field-independent basis, Debye):
    X=             -3.6630    Y=              0.9346    Z=              0.7595  Tot=              3.8559
 Quadrupole moment (field-independent basis, Debye-Ang):
   XX=            -26.4231   YY=            -38.9362   ZZ=            -44.0806
   XY=             -1.3133   XZ=             -1.6310   YZ=             -4.5115

 Normal termination of Gaussian 09 at Tue Aug 23 07:14:44 2022.
