 Gaussian 09, Revision E.01,
 Gaussian 09:  ES64L-G09RevE.01 30-Nov-2015

 -----
 #P G4
 -----

 --------
 Frag_442
 --------
 Symbolic Z-matrix:
 Charge =  0 Multiplicity = 1

 SCF Done:  E(RB3LYP) =  -276.414827775     A.U. after   12 cycles
 SCF Done:  E(RB3LYP) =  -276.417840671     A.U. after   10 cycles
 SCF Done:  E(RB3LYP) =  -276.417917821     A.U. after    8 cycles
 SCF Done:  E(RB3LYP) =  -276.417938422     A.U. after    8 cycles
 SCF Done:  E(RB3LYP) =  -276.417939631     A.U. after    6 cycles
 SCF Done:  E(RB3LYP) =  -276.417939675     A.U. after    5 cycles
 Optimization completed.
    -- Stationary point found.
 Normal termination of Gaussian 09 at Fri Aug 19 23:42:42 2022.

 ----------------------------------------------------------
 #P Geom=AllCheck Guess=TCheck SCRF=Check B3LYP/GTBas3 Freq
 ----------------------------------------------------------

 Structure from the checkpoint file:  "G4.Frag_442.chk"
 --------
 Frag_442
 --------
 Charge =  0 Multiplicity = 1

 SCF Done:  E(RB3LYP) =  -276.417939675     A.U. after    1 cycles

  Exact polarizability:  82.303   0.000  76.824  -0.105  -0.000  72.037
 Approx polarizability: 109.337   0.000 106.044  -0.614  -0.000 106.451

                      1                      2                      3
                      A                      A                      A
 Frequencies --     39.4999               180.7444               226.9383
 Red. masses --      2.0911                 1.0174                 1.3697
 Frc consts  --      0.0019                 0.0196                 0.0416
 IR Inten    --      0.0001                 0.0014                 0.0095

                      4                      5                      6
                      A                      A                      A
 Frequencies --    227.2566               251.3107               251.3157
 Red. masses --      1.0570                 1.2633                 1.0625
 Frc consts  --      0.0322                 0.0470                 0.0395
 IR Inten    --      0.0141                 0.0949                 0.0125

                      7                      8                      9
                      A                      A                      A
 Frequencies --    289.5099               293.6065               350.0033
 Red. masses --      1.9628                 1.7907                 2.2363
 Frc consts  --      0.0969                 0.0910                 0.1614
 IR Inten    --      0.0040                 0.0002                 0.0029

                     10                     11                     12
                      A                      A                      A
 Frequencies --    371.4526               385.4533               436.6837
 Red. masses --      2.1503                 1.9847                 2.0754
 Frc consts  --      0.1748                 0.1737                 0.2332
 IR Inten    --      0.0372                 0.0288                 0.0626

                     13                     14                     15
                      A                      A                      A
 Frequencies --    451.5817               517.2541               682.0558
 Red. masses --      2.5897                 2.2499                 2.8077
 Frc consts  --      0.3112                 0.3547                 0.7695
 IR Inten    --      0.0155                 0.6899                 0.2910

                     16                     17                     18
                      A                      A                      A
 Frequencies --    830.9428               921.3147               921.7665
 Red. masses --      2.3899                 2.0263                 1.2043
 Frc consts  --      0.9722                 1.0134                 0.6029
 IR Inten    --      1.0410                 0.0883                 0.7666

                     19                     20                     21
                      A                      A                      A
 Frequencies --    930.3259               931.5238               953.7833
 Red. masses --      1.6824                 1.8237                 1.2014
 Frc consts  --      0.8579                 0.9324                 0.6439
 IR Inten    --      0.1054                 0.5053                 0.0579

                     22                     23                     24
                      A                      A                      A
 Frequencies --    967.5480              1012.7468              1030.1223
 Red. masses --      1.4337                 1.3126                 1.4571
 Frc consts  --      0.7908                 0.7932                 0.9110
 IR Inten    --      0.1183                 1.0497                 0.3294

                     25                     26                     27
                      A                      A                      A
 Frequencies --   1106.6511              1125.1976              1186.5210
 Red. masses --      1.4285                 2.0901                 1.9301
 Frc consts  --      1.0308                 1.5591                 1.6010
 IR Inten    --      5.2599                 2.2855                 8.3138

                     28                     29                     30
                      A                      A                      A
 Frequencies --   1233.4392              1243.4997              1270.6385
 Red. masses --      2.2542                 2.6209                 2.6886
 Frc consts  --      2.0206                 2.3878                 2.5575
 IR Inten    --      7.4491                 2.9452                 1.9708

                     31                     32                     33
                      A                      A                      A
 Frequencies --   1350.9417              1359.3087              1394.5685
 Red. masses --      1.3614                 1.4040                 1.2606
 Frc consts  --      1.4638                 1.5284                 1.4445
 IR Inten    --      1.4933                 1.2508                 0.0566

                     34                     35                     36
                      A                      A                      A
 Frequencies --   1396.7814              1402.8764              1417.1739
 Red. masses --      1.2489                 1.2230                 1.2335
 Frc consts  --      1.4356                 1.4181                 1.4596
 IR Inten    --      5.3810                 6.5717                11.1014

                     37                     38                     39
                      A                      A                      A
 Frequencies --   1436.0900              1475.2860              1483.2911
 Red. masses --      1.2157                 1.0497                 1.0493
 Frc consts  --      1.4772                 1.3461                 1.3602
 IR Inten    --      1.6984                 0.4085                 0.5729

                     40                     41                     42
                      A                      A                      A
 Frequencies --   1485.0858              1488.3159              1502.3189
 Red. masses --      1.0441                 1.0432                 1.0466
 Frc consts  --      1.3567                 1.3614                 1.3917
 IR Inten    --      0.0435                 0.0097                 9.1492

                     43                     44                     45
                      A                      A                      A
 Frequencies --   1503.1477              1508.2729              1510.5062
 Red. masses --      1.0434                 1.0544                 1.0645
 Frc consts  --      1.3890                 1.4133                 1.4310
 IR Inten    --      3.2810                 2.0100                 1.6762

                     46                     47                     48
                      A                      A                      A
 Frequencies --   1517.3521              1523.8950              2988.3612
 Red. masses --      1.0512                 1.0569                 1.0824
 Frc consts  --      1.4259                 1.4460                 5.6951
 IR Inten    --     10.9372                 1.4594                23.2353

                     49                     50                     51
                      A                      A                      A
 Frequencies --   3024.3398              3027.6359              3032.7201
 Red. masses --      1.0357                 1.0357                 1.0365
 Frc consts  --      5.5813                 5.5936                 5.6167
 IR Inten    --     15.6668                32.3637                24.0378

                     52                     53                     54
                      A                      A                      A
 Frequencies --   3032.7537              3040.4580              3087.5941
 Red. masses --      1.0370                 1.0377                 1.1012
 Frc consts  --      5.6195                 5.6518                 6.1852
 IR Inten    --     24.3177                 8.4399                 0.0348

                     55                     56                     57
                      A                      A                      A
 Frequencies --   3089.5146              3090.0631              3095.5146
 Red. masses --      1.1010                 1.1008                 1.0998
 Frc consts  --      6.1920                 6.1930                 6.2089
 IR Inten    --      1.5500                 2.3256                96.0343

                     58                     59                     60
                      A                      A                      A
 Frequencies --   3097.9551              3098.5282              3104.0973
 Red. masses --      1.0999                 1.1018                 1.1000
 Frc consts  --      6.2196                 6.2326                 6.2449
 IR Inten    --     44.9279                 0.1271                83.3963

                     61                     62                     63
                      A                      A                      A
 Frequencies --   3108.5402              3117.2552              3118.0925
 Red. masses --      1.1004                 1.0988                 1.0986
 Frc consts  --      6.2649                 6.2911                 6.2933
 IR Inten    --     35.0137                49.5662                 9.1581

 - Thermochemistry -
 -------------------
 Temperature   298.150 Kelvin.  Pressure   1.00000 Atm.
 Atom     1 has atomic number  6 and mass  12.00000

 Molecular mass:   100.12520 amu.
 Principal axes and moments of inertia in atomic units:
                           1         2         3
     Eigenvalues --   604.23660 840.309891009.65331
           X            0.99998   0.00000   0.00602
           Y           -0.00000   1.00000  -0.00000
           Z           -0.00602   0.00000   0.99998
 This molecule is an asymmetric top.
 Rotational symmetry number  1.
 Warning -- assumption of classical behavior for rotation
           may cause significant error
 Rotational temperatures (Kelvin)      0.14334     0.10307     0.08579
 Rotational constants (GHZ):           2.98681     2.14771     1.78749
 Zero-point vibrational energy     565410.9 (Joules/Mol)
                                  135.13645 (Kcal/Mol)
 Warning -- explicit consideration of  14 degrees of freedom as
           vibrations may cause significant error
 Vibrational temperatures:     56.83   260.05   326.51   326.97   361.58
          (Kelvin)            361.59   416.54   422.43   503.58   534.44
                              554.58   628.29   649.72   744.21   981.33
                             1195.54  1325.56  1326.21  1338.53  1340.25
                             1372.28  1392.08  1457.11  1482.11  1592.22
                             1618.91  1707.14  1774.64  1789.12  1828.16
                             1943.70  1955.74  2006.47  2009.65  2018.42
                             2038.99  2066.21  2122.60  2134.12  2136.70
                             2141.35  2161.50  2162.69  2170.07  2173.28
                             2183.13  2192.54  4299.58  4351.34  4356.09
                             4363.40  4363.45  4374.54  4442.35  4445.12
                             4445.91  4453.75  4457.26  4458.09  4466.10
                             4472.49  4485.03  4486.23

 Zero-point correction=                           0.215354 (Hartree/Particle)
 Thermal correction to Energy=                    0.225026
 Thermal correction to Enthalpy=                  0.225970
 Thermal correction to Gibbs Free Energy=         0.181949
 Sum of electronic and zero-point Energies=           -276.202586
 Sum of electronic and thermal Energies=              -276.192914
 Sum of electronic and thermal Enthalpies=            -276.191970
 Sum of electronic and thermal Free Energies=         -276.235991

                     E (Thermal)             CV                S
                      KCal/Mol        Cal/Mol-Kelvin    Cal/Mol-Kelvin
 Total                  141.206             36.539             92.650
 Electronic               0.000              0.000              0.000
 Translational            0.889              2.981             39.722
 Rotational               0.889              2.981             27.730
 Vibrational            139.428             30.578             25.199
 Vibration     1          0.594              1.981              5.284
 Vibration     2          0.630              1.866              2.321
 Vibration     3          0.651              1.800              1.903
 Vibration     4          0.651              1.799              1.901
 Vibration     5          0.663              1.761              1.721
 Vibration     6          0.663              1.761              1.721
 Vibration     7          0.686              1.693              1.477
 Vibration     8          0.688              1.686              1.453
 Vibration     9          0.727              1.575              1.166
 Vibration    10          0.743              1.531              1.074
 Vibration    11          0.754              1.501              1.018
 Vibration    12          0.797              1.390              0.837
 Vibration    13          0.810              1.357              0.791
 Vibration    14          0.872              1.212              0.616

 Optimization completed.
    -- Stationary point found.
 Normal termination of Gaussian 09 at Fri Aug 19 23:54:31 2022.

 -----------------------------------------------------------------
 #P Geom=AllCheck Guess=TCheck SCRF=Check CCSD(T,E4T,FrzG4)/GTBas1
 -----------------------------------------------------------------

 Structure from the checkpoint file:  "G4.Frag_442.chk"
 --------
 Frag_442
 --------
 Charge =  0 Multiplicity = 1

 SCF Done:  E(RHF) =  -274.392528994     A.U. after   10 cycles
 E2 =    -0.9339881351D+00 EUMP2 =    -0.27532651712892D+03
 CCSD(T)
 CCSD(T)= -0.27544533170D+03
 275.4141334\CCSD(T)=-275.4453317\RMSD=5.855e-09\PG=C01 [X(C7H16)]\\@
 Normal termination of Gaussian 09 at Sat Aug 20 00:21:10 2022.

 ---------------------------------------------------------
 #P Geom=AllCheck Guess=TCheck SCRF=Check MP4=FrzG4/GTBas2
 ---------------------------------------------------------

 Structure from the checkpoint file:  "G4.Frag_442.chk"
 --------
 Frag_442
 --------
 Charge =  0 Multiplicity = 1

 SCF Done:  E(RHF) =  -274.395100445     A.U. after   10 cycles
 E2 =    -0.9439249931D+00 EUMP2 =    -0.27533902543824D+03
 Normal termination of Gaussian 09 at Sat Aug 20 00:57:46 2022.

 ---------------------------------------------------------
 #P Geom=AllCheck Guess=TCheck SCRF=Check MP4=FrzG4/GTBas3
 ---------------------------------------------------------

 Structure from the checkpoint file:  "G4.Frag_442.chk"
 --------
 Frag_442
 --------
 Charge =  0 Multiplicity = 1

 SCF Done:  E(RHF) =  -274.429183872     A.U. after    8 cycles
 E2 =    -0.1175654242D+01 EUMP2 =    -0.27560483811437D+03
 Normal termination of Gaussian 09 at Sat Aug 20 09:58:14 2022.

 -----------------------------------------------------------
 #P Geom=AllCheck Guess=TCheck SCRF=Check MP2=Full/GTLargeXP
 -----------------------------------------------------------

 Structure from the checkpoint file:  "G4.Frag_442.chk"
 --------
 Frag_442
 --------
 Charge =  0 Multiplicity = 1

 SCF Done:  E(RHF) =  -274.482697247     A.U. after   10 cycles
 E2 =    -0.1546995813D+01 EUMP2 =    -0.27602969306034D+03
 Normal termination of Gaussian 09 at Sat Aug 20 10:18:57 2022.
 SCF Done:  E(RHF) =  -274.504629182     A.U. after    8 cycles
 Normal termination of Gaussian 09 at Sat Aug 20 10:34:09 2022.

                         Standard orientation:
 ---------------------------------------------------------------------
 Center     Atomic      Atomic             Coordinates (Angstroms)
 Number     Number       Type             X           Y           Z
 ---------------------------------------------------------------------
      1          6           0        1.638742    1.252311   -0.016359
      2          6           0        0.856249   -0.000002   -0.448086
      3          6           0        1.638750   -1.252312   -0.016363
      4          6           0       -0.645155   -0.000002    0.000533
      5          6           0       -1.357011   -1.244551   -0.569051
      6          6           0       -0.796223   -0.000052    1.533839
      7          6           0       -1.356976    1.244605   -0.568965
      8          1           0        1.179351    2.178207   -0.370883
      9          1           0        2.655573    1.216575   -0.421408
     10          1           0        1.728901    1.316420    1.073529
     11          1           0        0.831983    0.000001   -1.548019
     12          1           0        2.655588   -1.216556   -0.421393
     13          1           0        1.728889   -1.316435    1.073527
     14          1           0        1.179378   -2.178209   -0.370909
     15          1           0       -1.226853   -1.314032   -1.655246
     16          1           0       -2.432559   -1.195730   -0.367317
     17          1           0       -0.986056   -2.172842   -0.126050
     18          1           0       -1.856310   -0.000055    1.810970
     19          1           0       -0.341407   -0.885169    1.989068
     20          1           0       -0.341396    0.885028    1.989127
     21          1           0       -2.432522    1.195812   -0.367216
     22          1           0       -1.226834    1.314146   -1.655158
     23          1           0       -0.985979    2.172857   -0.125916
 ---------------------------------------------------------------------

 SCF Done:  E(RHF) =  -274.509261918     A.U. after    7 cycles

 The electronic state is 1-A.
 Alpha  occ. eigenvalues --  -11.23078 -11.22252 -11.20638 -11.20636 -11.20604
 Alpha  occ. eigenvalues --  -11.20596 -11.20594  -1.11061  -1.01885  -0.93662
 Alpha  occ. eigenvalues --   -0.92598  -0.90835  -0.82116  -0.71180  -0.63433
 Alpha  occ. eigenvalues --   -0.61388  -0.59682  -0.58749  -0.55947  -0.54571
 Alpha  occ. eigenvalues --   -0.52604  -0.52318  -0.51290  -0.50442  -0.48607
 Alpha  occ. eigenvalues --   -0.47879  -0.44220  -0.43692  -0.42885
 Alpha virt. eigenvalues --    0.03113   0.04033   0.04119   0.04273   0.05637
 Alpha virt. eigenvalues --    0.05972   0.06733   0.06787   0.06966   0.08959
 Alpha virt. eigenvalues --    0.09069   0.09238   0.09657   0.09831   0.09925

 Mulliken charges:
               1
     1  C   -0.591736
     2  C   -0.007233
     3  C   -0.591740
     4  C    0.418297
     5  C   -0.614063
     6  C   -0.617920
     7  C   -0.614063
     8  H    0.165101
     9  H    0.165732
    10  H    0.162251
    11  H    0.145129
    12  H    0.165732
    13  H    0.162253
    14  H    0.165100
    15  H    0.162839
    16  H    0.165805
    17  H    0.165750
    18  H    0.167940
    19  H    0.165215
    20  H    0.165214
    21  H    0.165805
    22  H    0.162838
    23  H    0.165751
 Sum of Mulliken charges =  -0.00000

 Dipole moment (field-independent basis, Debye):
    X=              0.0150    Y=              0.0000    Z=             -0.0670  Tot=              0.0687
 Quadrupole moment (field-independent basis, Debye-Ang):
   XX=            -49.4715   YY=            -49.6860   ZZ=            -49.0747
   XY=              0.0000   XZ=             -0.2996   YZ=             -0.0000

 Normal termination of Gaussian 09 at Sat Aug 20 17:02:09 2022.
