 Gaussian 09, Revision E.01,
 Gaussian 09:  ES64L-G09RevE.01 30-Nov-2015

 -----
 #P G4
 -----

 ---------
 Frag_1055
 ---------
 Symbolic Z-matrix:
 Charge =  0 Multiplicity = 1

 SCF Done:  E(RB3LYP) =  -321.074212304     A.U. after   12 cycles
 SCF Done:  E(RB3LYP) =  -321.081434017     A.U. after   11 cycles
 SCF Done:  E(RB3LYP) =  -321.082044069     A.U. after   10 cycles
 SCF Done:  E(RB3LYP) =  -321.082216970     A.U. after   10 cycles
 SCF Done:  E(RB3LYP) =  -321.082393207     A.U. after   10 cycles
 SCF Done:  E(RB3LYP) =  -321.082470162     A.U. after   10 cycles
 SCF Done:  E(RB3LYP) =  -321.082520501     A.U. after    9 cycles
 SCF Done:  E(RB3LYP) =  -321.082542766     A.U. after   10 cycles
 SCF Done:  E(RB3LYP) =  -321.082546313     A.U. after    8 cycles
 SCF Done:  E(RB3LYP) =  -321.082547593     A.U. after    7 cycles
 SCF Done:  E(RB3LYP) =  -321.082547862     A.U. after    7 cycles
 Optimization completed.
    -- Stationary point found.
 Normal termination of Gaussian 09 at Fri Aug 26 14:22:26 2022.

 ----------------------------------------------------------
 #P Geom=AllCheck Guess=TCheck SCRF=Check B3LYP/GTBas3 Freq
 ----------------------------------------------------------

 Structure from the checkpoint file:  "G4.Frag_1055.chk"
 ---------
 Frag_1055
 ---------
 Charge =  0 Multiplicity = 1

 SCF Done:  E(RB3LYP) =  -321.082547862     A.U. after    1 cycles

  Exact polarizability:  56.674   0.574  48.937  -0.541   1.226  44.402
 Approx polarizability:  73.266  -0.914  69.354  -0.980   0.120  64.860

                      1                      2                      3
                      A                      A                      A
 Frequencies --    118.6196               221.7342               260.4778
 Red. masses --      3.4119                 1.8894                 1.2095
 Frc consts  --      0.0283                 0.0547                 0.0484
 IR Inten    --      2.0899                15.6679                75.3460

                      4                      5                      6
                      A                      A                      A
 Frequencies --    272.7210               303.3754               322.5613
 Red. masses --      1.0543                 1.9997                 1.3526
 Frc consts  --      0.0462                 0.1084                 0.0829
 IR Inten    --     37.8698                28.7183                16.3526

                      7                      8                      9
                      A                      A                      A
 Frequencies --    380.1838               415.6122               474.5599
 Red. masses --      1.3325                 2.9864                 2.6023
 Frc consts  --      0.1135                 0.3039                 0.3453
 IR Inten    --     23.0993                 3.2871                19.3313

                     10                     11                     12
                      A                      A                      A
 Frequencies --    563.7313               627.9061               786.3796
 Red. masses --      3.7594                 3.0956                 1.7118
 Frc consts  --      0.7039                 0.7191                 0.6237
 IR Inten    --     10.9462                13.6960               124.0796

                     13                     14                     15
                      A                      A                      A
 Frequencies --    817.8869               930.1732              1020.8125
 Red. masses --      3.0643                 2.1170                 1.8245
 Frc consts  --      1.2077                 1.0792                 1.1202
 IR Inten    --     19.6917                88.4134                43.7235

                     16                     17                     18
                      A                      A                      A
 Frequencies --   1050.1107              1061.2690              1130.8591
 Red. masses --      1.6090                 4.3982                 2.5568
 Frc consts  --      1.0454                 2.9186                 1.9264
 IR Inten    --     46.5408               204.0081                21.9505

                     19                     20                     21
                      A                      A                      A
 Frequencies --   1146.7302              1234.5007              1280.5003
 Red. masses --      1.3102                 1.4662                 2.0120
 Frc consts  --      1.0151                 1.3165                 1.9437
 IR Inten    --      6.3283                28.3765                31.7640

                     22                     23                     24
                      A                      A                      A
 Frequencies --   1307.4453              1349.8876              1379.4646
 Red. masses --      1.5078                 1.3350                 1.3448
 Frc consts  --      1.5186                 1.4333                 1.5078
 IR Inten    --     17.7937                12.8387                 8.7855

                     25                     26                     27
                      A                      A                      A
 Frequencies --   1431.6518              1460.0100              1490.8119
 Red. masses --      1.1760                 1.3415                 1.0561
 Frc consts  --      1.4201                 1.6848                 1.3829
 IR Inten    --      5.3283                37.9516                 7.5397

                     28                     29                     30
                      A                      A                      A
 Frequencies --   1507.8170              1646.1599              1661.9744
 Red. masses --      1.0643                 1.1013                 1.0931
 Frc consts  --      1.4256                 1.7583                 1.7789
 IR Inten    --      7.6878                26.7044                21.7993

                     31                     32                     33
                      A                      A                      A
 Frequencies --   2946.6283              3045.5114              3070.1966
 Red. masses --      1.0573                 1.0861                 1.0769
 Frc consts  --      5.4090                 5.9353                 5.9806
 IR Inten    --     64.8714                37.7243                33.9672

                     34                     35                     36
                      A                      A                      A
 Frequencies --   3128.0523              3376.1519              3500.8361
 Red. masses --      1.0995                 1.0560                 1.0481
 Frc consts  --      6.3388                 7.0921                 7.5684
 IR Inten    --     13.6948                13.6900                 0.2770

                     37                     38                     39
                      A                      A                      A
 Frequencies --   3537.3116              3592.2744              3831.2419
 Red. masses --      1.0839                 1.0939                 1.0658
 Frc consts  --      7.9908                 8.3166                 9.2175
 IR Inten    --      0.2159                 1.6080                18.2362

 - Thermochemistry -
 -------------------
 Temperature   298.150 Kelvin.  Pressure   1.00000 Atm.
 Atom     1 has atomic number  6 and mass  12.00000

 Molecular mass:    91.07456 amu.
 Principal axes and moments of inertia in atomic units:
                           1         2         3
     Eigenvalues --   372.80118 613.52882 716.50794
           X            0.99858   0.05280   0.00704
           Y           -0.05319   0.99539   0.07982
           Z           -0.00280  -0.08009   0.99678
 This molecule is an asymmetric top.
 Rotational symmetry number  1.
 Rotational temperatures (Kelvin)      0.23233     0.14117     0.12088
 Rotational constants (GHZ):           4.84103     2.94158     2.51880
 Zero-point vibrational energy     345027.7 (Joules/Mol)
                                   82.46360 (Kcal/Mol)
 Warning -- explicit consideration of  10 degrees of freedom as
           vibrations may cause significant error
 Vibrational temperatures:    170.67   319.03   374.77   392.38   436.49
          (Kelvin)            464.09   547.00   597.97   682.79   811.08
                              903.42  1131.42  1176.76  1338.31  1468.72
                             1510.87  1526.93  1627.05  1649.89  1776.17
                             1842.35  1881.12  1942.18  1984.74  2059.83
                             2100.63  2144.94  2169.41  2368.45  2391.21
                             4239.54  4381.81  4417.32  4500.56  4857.52
                             5036.92  5089.40  5168.48  5512.30

 Zero-point correction=                           0.131414 (Hartree/Particle)
 Thermal correction to Energy=                    0.138825
 Thermal correction to Enthalpy=                  0.139770
 Thermal correction to Gibbs Free Energy=         0.100949
 Sum of electronic and zero-point Energies=           -320.951134
 Sum of electronic and thermal Energies=              -320.943722
 Sum of electronic and thermal Enthalpies=            -320.942778
 Sum of electronic and thermal Free Energies=         -320.981598

                     E (Thermal)             CV                S
                      KCal/Mol        Cal/Mol-Kelvin    Cal/Mol-Kelvin
 Total                   87.114             27.199             81.704
 Electronic               0.000              0.000              0.000
 Translational            0.889              2.981             39.439
 Rotational               0.889              2.981             26.597
 Vibrational             85.337             21.237             15.668
 Vibration     1          0.609              1.934              3.123
 Vibration     2          0.648              1.808              1.945
 Vibration     3          0.669              1.745              1.659
 Vibration     4          0.676              1.724              1.579
 Vibration     5          0.695              1.667              1.398
 Vibration     6          0.708              1.630              1.297
 Vibration     7          0.750              1.512              1.038
 Vibration     8          0.779              1.436              0.907
 Vibration     9          0.831              1.306              0.725
 Vibration    10          0.920              1.110              0.516

 Optimization completed.
    -- Stationary point found.
 Normal termination of Gaussian 09 at Fri Aug 26 14:23:01 2022.

 -----------------------------------------------------------------
 #P Geom=AllCheck Guess=TCheck SCRF=Check CCSD(T,E4T,FrzG4)/GTBas1
 -----------------------------------------------------------------

 Structure from the checkpoint file:  "G4.Frag_1055.chk"
 ---------
 Frag_1055
 ---------
 Charge =  0 Multiplicity = 1

 SCF Done:  E(RHF) =  -319.115051774     A.U. after   12 cycles
 E2 =    -0.9344967615D+00 EUMP2 =    -0.32004954853571D+03
 CCSD(T)
 CCSD(T)= -0.32012754369D+03
 1012001\CCSD(T)=-320.1275437\RMSD=4.519e-09\PG=C01 [X(C2H9N3O1)]\\@
 Normal termination of Gaussian 09 at Fri Aug 26 14:25:19 2022.

 ---------------------------------------------------------
 #P Geom=AllCheck Guess=TCheck SCRF=Check MP4=FrzG4/GTBas2
 ---------------------------------------------------------

 Structure from the checkpoint file:  "G4.Frag_1055.chk"
 ---------
 Frag_1055
 ---------
 Charge =  0 Multiplicity = 1

 SCF Done:  E(RHF) =  -319.127944822     A.U. after   11 cycles
 E2 =    -0.9521227708D+00 EUMP2 =    -0.32008006759315D+03
 Normal termination of Gaussian 09 at Fri Aug 26 14:26:09 2022.

 ---------------------------------------------------------
 #P Geom=AllCheck Guess=TCheck SCRF=Check MP4=FrzG4/GTBas3
 ---------------------------------------------------------

 Structure from the checkpoint file:  "G4.Frag_1055.chk"
 ---------
 Frag_1055
 ---------
 Charge =  0 Multiplicity = 1

 SCF Done:  E(RHF) =  -319.163137947     A.U. after   11 cycles
 E2 =    -0.1152970306D+01 EUMP2 =    -0.32031610825309D+03
 Normal termination of Gaussian 09 at Fri Aug 26 14:30:27 2022.

 -----------------------------------------------------------
 #P Geom=AllCheck Guess=TCheck SCRF=Check MP2=Full/GTLargeXP
 -----------------------------------------------------------

 Structure from the checkpoint file:  "G4.Frag_1055.chk"
 ---------
 Frag_1055
 ---------
 Charge =  0 Multiplicity = 1

 SCF Done:  E(RHF) =  -319.250977801     A.U. after   11 cycles
 E2 =    -0.1500051020D+01 EUMP2 =    -0.32075102882028D+03
 Normal termination of Gaussian 09 at Fri Aug 26 14:32:31 2022.
 SCF Done:  E(RHF) =  -319.275875163     A.U. after    9 cycles
 Normal termination of Gaussian 09 at Fri Aug 26 14:34:43 2022.

                         Standard orientation:
 ---------------------------------------------------------------------
 Center     Atomic      Atomic             Coordinates (Angstroms)
 Number     Number       Type             X           Y           Z
 ---------------------------------------------------------------------
      1          6           0        0.993560    1.149075    0.682677
      2          7           0        0.680593    0.225814   -0.402065
      3          7           0        1.573618   -0.879587   -0.487213
      4          6           0       -0.671305   -0.293291   -0.374354
      5          7           0       -0.984984   -1.008737    0.857937
      6          8           0       -1.512887    0.826692   -0.601583
      7          1           0        1.049731    0.652005    1.667875
      8          1           0        0.233820    1.933031    0.717286
      9          1           0        1.963854    1.614693    0.484019
     10          1           0        1.716342   -1.283061    0.443607
     11          1           0        2.467796   -0.518200   -0.805303
     12          1           0       -0.729747   -1.022865   -1.190527
     13          1           0       -1.746152   -1.664928    0.724115
     14          1           0       -1.253496   -0.357583    1.589578
     15          1           0       -2.417162    0.536238   -0.448536
 ---------------------------------------------------------------------

 SCF Done:  E(RHF) =  -319.281490257     A.U. after    8 cycles

 The electronic state is 1-A.
 Alpha  occ. eigenvalues --  -20.55951 -15.56868 -15.56340 -15.55069 -11.33324
 Alpha  occ. eigenvalues --  -11.23908  -1.38405  -1.27955  -1.17199  -1.05091
 Alpha  occ. eigenvalues --   -0.93707  -0.80330  -0.72718  -0.70238  -0.65786
 Alpha  occ. eigenvalues --   -0.63590  -0.61480  -0.58560  -0.56373  -0.56120
 Alpha  occ. eigenvalues --   -0.51808  -0.47208  -0.41830  -0.41203  -0.37238
 Alpha virt. eigenvalues --    0.03431   0.03969   0.05263   0.05505   0.06739
 Alpha virt. eigenvalues --    0.07336   0.07507   0.08979   0.09611   0.11683
 Alpha virt. eigenvalues --    0.11997   0.12162   0.12791   0.13702   0.14796

 Mulliken charges:
               1
     1  C   -0.524762
     2  N    0.051984
     3  N   -0.695212
     4  C    0.236005
     5  N   -0.775029
     6  O   -0.582102
     7  H    0.144244
     8  H    0.211029
     9  H    0.167159
    10  H    0.300008
    11  H    0.309692
    12  H    0.176262
    13  H    0.304862
    14  H    0.309831
    15  H    0.366029
 Sum of Mulliken charges =  -0.00000

 Dipole moment (field-independent basis, Debye):
    X=             -1.1827    Y=             -0.5104    Z=              1.9763  Tot=              2.3590
 Quadrupole moment (field-independent basis, Debye-Ang):
   XX=            -27.2464   YY=            -40.9146   ZZ=            -39.7114
   XY=              3.7027   XZ=             -0.3919   YZ=              1.6531

 Normal termination of Gaussian 09 at Fri Aug 26 14:42:41 2022.
