 Gaussian 09, Revision E.01,
 Gaussian 09:  ES64L-G09RevE.01 30-Nov-2015

 -----
 #P G4
 -----

 --------
 Frag_456
 --------
 Symbolic Z-matrix:
 Charge =  0 Multiplicity = 1

 SCF Done:  E(RB3LYP) =  -323.744369608     A.U. after   13 cycles
 SCF Done:  E(RB3LYP) =  -323.767248978     A.U. after   11 cycles
 SCF Done:  E(RB3LYP) =  -323.767788373     A.U. after   10 cycles
 SCF Done:  E(RB3LYP) =  -323.767881798     A.U. after   10 cycles
 SCF Done:  E(RB3LYP) =  -323.768034160     A.U. after   10 cycles
 SCF Done:  E(RB3LYP) =  -323.768259138     A.U. after   11 cycles
 SCF Done:  E(RB3LYP) =  -323.768604194     A.U. after   11 cycles
 SCF Done:  E(RB3LYP) =  -323.768787613     A.U. after   10 cycles
 SCF Done:  E(RB3LYP) =  -323.768831182     A.U. after   10 cycles
 SCF Done:  E(RB3LYP) =  -323.768854516     A.U. after   10 cycles
 SCF Done:  E(RB3LYP) =  -323.768946082     A.U. after    7 cycles
 SCF Done:  E(RB3LYP) =  -323.768946380     A.U. after    7 cycles
 SCF Done:  E(RB3LYP) =  -323.768946536     A.U. after    7 cycles
 Optimization completed.
    -- Stationary point found.
 Normal termination of Gaussian 09 at Tue Aug 30 09:27:47 2022.

 ----------------------------------------------------------
 #P Geom=AllCheck Guess=TCheck SCRF=Check B3LYP/GTBas3 Freq
 ----------------------------------------------------------

 Structure from the checkpoint file:  "G4.Frag_456.chk"
 --------
 Frag_456
 --------
 Charge =  0 Multiplicity = 1

 SCF Done:  E(RB3LYP) =  -323.768946536     A.U. after    1 cycles

  Exact polarizability:  53.871   1.377  52.782   0.282   0.481  34.321
 Approx polarizability:  75.279   6.020  76.653   0.241   0.890  49.925

                      1                      2                      3
                      A                      A                      A
 Frequencies --     66.9437               100.2060               148.4759
 Red. masses --      1.8430                 1.3231                 1.5373
 Frc consts  --      0.0049                 0.0078                 0.0200
 IR Inten    --      9.3262                 0.9903                 0.7371

                      4                      5                      6
                      A                      A                      A
 Frequencies --    185.9753               316.9393               370.9121
 Red. masses --      1.9341                 2.7452                 1.5206
 Frc consts  --      0.0394                 0.1625                 0.1233
 IR Inten    --      0.4270                22.0064                56.8569

                      7                      8                      9
                      A                      A                      A
 Frequencies --    412.2137               552.1021               599.3252
 Red. masses --      1.9579                 4.0336                 6.1305
 Frc consts  --      0.1960                 0.7244                 1.2974
 IR Inten    --     14.5982                 0.8587                 4.7087

                     10                     11                     12
                      A                      A                      A
 Frequencies --    764.7641               793.7325              1027.9108
 Red. masses --     10.7845                 5.7442                 2.4356
 Frc consts  --      3.7163                 2.1322                 1.5162
 IR Inten    --     16.1077                10.4700                15.5483

                     13                     14                     15
                      A                      A                      A
 Frequencies --   1085.9580              1130.2676              1154.1144
 Red. masses --      1.4074                 1.2441                 1.7270
 Frc consts  --      0.9779                 0.9364                 1.3553
 IR Inten    --     13.7690                 3.7557                38.1604

                     16                     17                     18
                      A                      A                      A
 Frequencies --   1175.6689              1273.3249              1298.8439
 Red. masses --      1.4285                 1.6972                 5.5280
 Frc consts  --      1.1633                 1.6213                 5.4946
 IR Inten    --      3.9121               199.0678                44.2045

                     19                     20                     21
                      A                      A                      A
 Frequencies --   1402.4940              1435.3373              1476.3305
 Red. masses --      2.7754                 1.1406                 1.2057
 Frc consts  --      3.2164                 1.3845                 1.5483
 IR Inten    --    254.7989                 8.9612                40.3163

                     22                     23                     24
                      A                      A                      A
 Frequencies --   1498.7564              1502.2344              1510.9238
 Red. masses --      1.0459                 1.0510                 1.0521
 Frc consts  --      1.3843                 1.3974                 1.4151
 IR Inten    --     13.6384                 5.1615                10.9197

                     25                     26                     27
                      A                      A                      A
 Frequencies --   1529.9776              1842.8230              2986.9763
 Red. masses --      1.1891                 9.6615                 1.0474
 Frc consts  --      1.6399                19.3313                 5.5056
 IR Inten    --     44.3554               423.6478                52.2820

                     28                     29                     30
                      A                      A                      A
 Frequencies --   3012.8852              3054.7223              3064.2468
 Red. masses --      1.0420                 1.0934                 1.1010
 Frc consts  --      5.5731                 6.0113                 6.0912
 IR Inten    --     53.5824                29.8278                30.2610

                     31                     32                     33
                      A                      A                      A
 Frequencies --   3113.7913              3173.9446              3833.6007
 Red. masses --      1.0957                 1.0951                 1.0649
 Frc consts  --      6.2594                 6.5000                 9.2206
 IR Inten    --     11.6938                 0.6443                30.4810

 - Thermochemistry -
 -------------------
 Temperature   298.150 Kelvin.  Pressure   1.00000 Atm.
 Atom     1 has atomic number  6 and mass  12.00000

 Molecular mass:    89.04768 amu.
 Principal axes and moments of inertia in atomic units:
                           1         2         3
     Eigenvalues --   353.57283 503.51950 833.17774
           X            0.99922  -0.03947   0.00038
           Y            0.03947   0.99922  -0.00100
           Z           -0.00034   0.00101   1.00000
 This molecule is an asymmetric top.
 Rotational symmetry number  1.
 Rotational temperatures (Kelvin)      0.24497     0.17202     0.10396
 Rotational constants (GHZ):           5.10430     3.58425     2.16609
 Zero-point vibrational energy     280504.7 (Joules/Mol)
                                   67.04223 (Kcal/Mol)
 Warning -- explicit consideration of   9 degrees of freedom as
           vibrations may cause significant error
 Vibrational temperatures:     96.32   144.17   213.62   267.58   456.00
          (Kelvin)            533.66   593.08   794.35   862.29  1100.32
                             1142.00  1478.93  1562.45  1626.20  1660.51
                             1691.52  1832.03  1868.74  2017.87  2065.13
                             2124.11  2156.37  2161.38  2173.88  2201.29
                             2651.41  4297.59  4334.86  4395.06  4408.76
                             4480.05  4566.59  5515.69

 Zero-point correction=                           0.106839 (Hartree/Particle)
 Thermal correction to Energy=                    0.114171
 Thermal correction to Enthalpy=                  0.115115
 Thermal correction to Gibbs Free Energy=         0.075330
 Sum of electronic and zero-point Energies=           -323.662108
 Sum of electronic and thermal Energies=              -323.654775
 Sum of electronic and thermal Enthalpies=            -323.653831
 Sum of electronic and thermal Free Energies=         -323.693616

                     E (Thermal)             CV                S
                      KCal/Mol        Cal/Mol-Kelvin    Cal/Mol-Kelvin
 Total                   71.644             24.056             83.735
 Electronic               0.000              0.000              0.000
 Translational            0.889              2.981             39.372
 Rotational               0.889              2.981             26.498
 Vibrational             69.866             18.094             17.865
 Vibration     1          0.598              1.970              4.241
 Vibration     2          0.604              1.949              3.450
 Vibration     3          0.618              1.904              2.692
 Vibration     4          0.632              1.859              2.268
 Vibration     5          0.704              1.641              1.326
 Vibration     6          0.743              1.532              1.076
 Vibration     7          0.776              1.444              0.919
 Vibration     8          0.907              1.135              0.540
 Vibration     9          0.957              1.033              0.451

 Optimization completed.
    -- Stationary point found.
 Normal termination of Gaussian 09 at Tue Aug 30 09:28:17 2022.

 -----------------------------------------------------------------
 #P Geom=AllCheck Guess=TCheck SCRF=Check CCSD(T,E4T,FrzG4)/GTBas1
 -----------------------------------------------------------------

 Structure from the checkpoint file:  "G4.Frag_456.chk"
 --------
 Frag_456
 --------
 Charge =  0 Multiplicity = 1

 SCF Done:  E(RHF) =  -321.858290928     A.U. after   13 cycles
 E2 =    -0.9023412513D+00 EUMP2 =    -0.32276063217941D+03
 CCSD(T)
 CCSD(T)= -0.32282797365D+03
 MP4SDTQ=-322.8314234\MP4SDQ=-322.8005188\CCSD=-322.799348\CCSD(T)=-322
 Normal termination of Gaussian 09 at Tue Aug 30 09:30:13 2022.

 ---------------------------------------------------------
 #P Geom=AllCheck Guess=TCheck SCRF=Check MP4=FrzG4/GTBas2
 ---------------------------------------------------------

 Structure from the checkpoint file:  "G4.Frag_456.chk"
 --------
 Frag_456
 --------
 Charge =  0 Multiplicity = 1

 SCF Done:  E(RHF) =  -321.866708540     A.U. after   12 cycles
 E2 =    -0.9154701325D+00 EUMP2 =    -0.32278217867287D+03
 Normal termination of Gaussian 09 at Tue Aug 30 09:30:54 2022.

 ---------------------------------------------------------
 #P Geom=AllCheck Guess=TCheck SCRF=Check MP4=FrzG4/GTBas3
 ---------------------------------------------------------

 Structure from the checkpoint file:  "G4.Frag_456.chk"
 --------
 Frag_456
 --------
 Charge =  0 Multiplicity = 1

 SCF Done:  E(RHF) =  -321.899003967     A.U. after   12 cycles
 E2 =    -0.1112312820D+01 EUMP2 =    -0.32301131678674D+03
 Normal termination of Gaussian 09 at Tue Aug 30 09:34:17 2022.

 -----------------------------------------------------------
 #P Geom=AllCheck Guess=TCheck SCRF=Check MP2=Full/GTLargeXP
 -----------------------------------------------------------

 Structure from the checkpoint file:  "G4.Frag_456.chk"
 --------
 Frag_456
 --------
 Charge =  0 Multiplicity = 1

 SCF Done:  E(RHF) =  -321.983963245     A.U. after   12 cycles
 E2 =    -0.1454186663D+01 EUMP2 =    -0.32343814990750D+03
 Normal termination of Gaussian 09 at Tue Aug 30 09:35:55 2022.
 SCF Done:  E(RHF) =  -322.009565674     A.U. after    9 cycles
 Normal termination of Gaussian 09 at Tue Aug 30 09:37:38 2022.

                         Standard orientation:
 ---------------------------------------------------------------------
 Center     Atomic      Atomic             Coordinates (Angstroms)
 Number     Number       Type             X           Y           Z
 ---------------------------------------------------------------------
      1          6           0        1.420755   -1.164877    0.044817
      2          7           0        0.567724    0.009578   -0.052931
      3          6           0        1.210833    1.309464   -0.020964
      4          6           0       -0.797637   -0.170437   -0.012434
      5          8           0       -1.343944   -1.245726   -0.030113
      6          8           0       -1.543593    0.967854    0.034644
      7          1           0        2.144553   -1.183037   -0.778288
      8          1           0        0.786231   -2.047282   -0.011983
      9          1           0        1.973943   -1.179432    0.993163
     10          1           0        1.234062    1.758670    0.983585
     11          1           0        2.245446    1.199205   -0.354214
     12          1           0        0.735237    2.011629   -0.715859
     13          1           0       -0.996941    1.751270    0.149347
 ---------------------------------------------------------------------

 SCF Done:  E(RHF) =  -322.015076614     A.U. after    8 cycles

 The electronic state is 1-A.
 Alpha  occ. eigenvalues --  -20.60602 -20.51522 -15.59776 -11.40177 -11.29042
 Alpha  occ. eigenvalues --  -11.26417  -1.45940  -1.35329  -1.25659  -0.99238
 Alpha  occ. eigenvalues --   -0.94901  -0.81781  -0.75089  -0.68032  -0.67632
 Alpha  occ. eigenvalues --   -0.62036  -0.60691  -0.59631  -0.57929  -0.56887
 Alpha  occ. eigenvalues --   -0.54336  -0.48711  -0.45279  -0.38920
 Alpha virt. eigenvalues --    0.02620   0.03750   0.04392   0.05020   0.06511
 Alpha virt. eigenvalues --    0.06934   0.07399   0.07727   0.07857   0.09866
 Alpha virt. eigenvalues --    0.13150   0.13235   0.14715   0.15328   0.15558

 Mulliken charges:
               1
     1  C   -0.474017
     2  N   -0.061988
     3  C   -0.492115
     4  C    0.640515
     5  O   -0.618606
     6  O   -0.513838
     7  H    0.164154
     8  H    0.253080
     9  H    0.165590
    10  H    0.177269
    11  H    0.206350
    12  H    0.183375
    13  H    0.370230
 Sum of Mulliken charges =  -0.00000

 Dipole moment (field-independent basis, Debye):
    X=              4.6124    Y=              3.3867    Z=              0.2525  Tot=              5.7278
 Quadrupole moment (field-independent basis, Debye-Ang):
   XX=            -40.9379   YY=            -34.3928   ZZ=            -36.2564
   XY=             -3.2638   XZ=             -0.2671   YZ=              0.1447

 Normal termination of Gaussian 09 at Tue Aug 30 09:44:21 2022.
