 Gaussian 09, Revision E.01,
 Gaussian 09:  ES64L-G09RevE.01 30-Nov-2015

 -----
 #P G4
 -----

 --------
 Frag_534
 --------
 Symbolic Z-matrix:
 Charge =  0 Multiplicity = 1

 SCF Done:  E(RB3LYP) =  -264.484756524     A.U. after   13 cycles
 SCF Done:  E(RB3LYP) =  -264.503462195     A.U. after   12 cycles
 SCF Done:  E(RB3LYP) =  -264.505990162     A.U. after   12 cycles
 SCF Done:  E(RB3LYP) =  -264.506854683     A.U. after   11 cycles
 SCF Done:  E(RB3LYP) =  -264.507480194     A.U. after   12 cycles
 SCF Done:  E(RB3LYP) =  -264.507969061     A.U. after   12 cycles
 SCF Done:  E(RB3LYP) =  -264.508313707     A.U. after   11 cycles
 SCF Done:  E(RB3LYP) =  -264.508609370     A.U. after   11 cycles
 SCF Done:  E(RB3LYP) =  -264.508835438     A.U. after   10 cycles
 SCF Done:  E(RB3LYP) =  -264.509084902     A.U. after   11 cycles
 SCF Done:  E(RB3LYP) =  -264.509475448     A.U. after    9 cycles
 SCF Done:  E(RB3LYP) =  -264.509477402     A.U. after    8 cycles
 SCF Done:  E(RB3LYP) =  -264.509477550     A.U. after    7 cycles
 Optimization completed.
    -- Stationary point found.
 Normal termination of Gaussian 09 at Sun Aug 21 07:44:29 2022.

 ----------------------------------------------------------
 #P Geom=AllCheck Guess=TCheck SCRF=Check B3LYP/GTBas3 Freq
 ----------------------------------------------------------

 Structure from the checkpoint file:  "G4.Frag_534.chk"
 --------
 Frag_534
 --------
 Charge =  0 Multiplicity = 1

 SCF Done:  E(RB3LYP) =  -264.509477550     A.U. after    1 cycles

  Exact polarizability:  50.294   0.847  42.780  -0.001  -0.000  29.787
 Approx polarizability:  62.487   0.558  70.219  -0.001  -0.003  43.725

                      1                      2                      3
                      A                      A                      A
 Frequencies --    129.3542               170.6974               182.5279
 Red. masses --      1.1064                 1.9602                 1.4310
 Frc consts  --      0.0109                 0.0337                 0.0281
 IR Inten    --      0.0000                17.6953                19.1051

                      4                      5                      6
                      A                      A                      A
 Frequencies --    323.8794               422.2892               556.9761
 Red. masses --      3.2365                 3.3159                 2.4222
 Frc consts  --      0.2000                 0.3484                 0.4427
 IR Inten    --      2.9334                 2.6266                 0.6860

                      7                      8                      9
                      A                      A                      A
 Frequencies --    618.7479               843.1775               941.8264
 Red. masses --      4.0427                 3.7917                 4.7417
 Frc consts  --      0.9119                 1.5883                 2.4781
 IR Inten    --     31.1382                54.4950                13.6567

                     10                     11                     12
                      A                      A                      A
 Frequencies --    955.2245               992.9564              1078.5701
 Red. masses --      1.3184                 2.0196                 1.5969
 Frc consts  --      0.7088                 1.1732                 1.0945
 IR Inten    --     75.5980                14.7822                 3.4371

                     13                     14                     15
                      A                      A                      A
 Frequencies --   1079.2091              1233.1052              1332.0470
 Red. masses --      1.4746                 1.5367                 1.1184
 Frc consts  --      1.0119                 1.3767                 1.1692
 IR Inten    --      1.4001                94.0533                 1.3845

                     16                     17                     18
                      A                      A                      A
 Frequencies --   1332.1799              1406.3430              1476.4661
 Red. masses --      1.8054                 1.4051                 1.0550
 Frc consts  --      1.8878                 1.6373                 1.3551
 IR Inten    --    199.6233                43.0086                 4.0392

                     19                     20                     21
                      A                      A                      A
 Frequencies --   1477.3373              1652.1630              1774.3579
 Red. masses --      1.0443                 1.0856                 7.9661
 Frc consts  --      1.3429                 1.7460                14.7768
 IR Inten    --      6.8536                15.0190               145.4041

                     22                     23                     24
                      A                      A                      A
 Frequencies --   3050.5031              3108.0991              3169.1878
 Red. masses --      1.0378                 1.0993                 1.1004
 Frc consts  --      5.6902                 6.2567                 6.5119
 IR Inten    --      9.2440                10.7427                 5.3544

                     25                     26                     27
                      A                      A                      A
 Frequencies --   3447.3709              3460.7050              3533.0144
 Red. masses --      1.0477                 1.0708                 1.0960
 Frc consts  --      7.3358                 7.5560                 8.0600
 IR Inten    --      0.9858                10.3508                 2.8735

 - Thermochemistry -
 -------------------
 Temperature   298.150 Kelvin.  Pressure   1.00000 Atm.
 Atom     1 has atomic number  6 and mass  12.00000

 Molecular mass:    74.04801 amu.
 Principal axes and moments of inertia in atomic units:
                           1         2         3
     Eigenvalues --   183.46650 440.73672 603.49006
           X            0.99921   0.03982  -0.00000
           Y           -0.03982   0.99921   0.00000
           Z            0.00000  -0.00000   1.00000
 This molecule is an asymmetric top.
 Rotational symmetry number  1.
 Rotational temperatures (Kelvin)      0.47210     0.19652     0.14352
 Rotational constants (GHZ):           9.83690     4.09483     2.99051
 Zero-point vibrational energy     237747.7 (Joules/Mol)
                                   56.82307 (Kcal/Mol)
 Warning -- explicit consideration of   7 degrees of freedom as
           vibrations may cause significant error
 Vibrational temperatures:    186.11   245.60   262.62   465.99   607.58
          (Kelvin)            801.36   890.24  1213.14  1355.08  1374.35
                             1428.64  1551.82  1552.74  1774.16  1916.52
                             1916.71  2023.41  2124.30  2125.56  2377.09
                             2552.90  4388.99  4471.86  4559.75  4959.99
                             4979.18  5083.21

 Zero-point correction=                           0.090553 (Hartree/Particle)
 Thermal correction to Energy=                    0.096582
 Thermal correction to Enthalpy=                  0.097527
 Thermal correction to Gibbs Free Energy=         0.061512
 Sum of electronic and zero-point Energies=           -264.418924
 Sum of electronic and thermal Energies=              -264.412895
 Sum of electronic and thermal Enthalpies=            -264.411951
 Sum of electronic and thermal Free Energies=         -264.447965

                     E (Thermal)             CV                S
                      KCal/Mol        Cal/Mol-Kelvin    Cal/Mol-Kelvin
 Total                   60.606             20.021             75.799
 Electronic               0.000              0.000              0.000
 Translational            0.889              2.981             38.822
 Rotational               0.889              2.981             25.393
 Vibrational             58.829             14.059             11.583
 Vibration     1          0.612              1.924              2.956
 Vibration     2          0.626              1.879              2.428
 Vibration     3          0.630              1.864              2.302
 Vibration     4          0.708              1.628              1.290
 Vibration     5          0.785              1.422              0.884
 Vibration     6          0.912              1.124              0.530
 Vibration     7          0.979              0.992              0.419

 Optimization completed.
    -- Stationary point found.
 Normal termination of Gaussian 09 at Sun Aug 21 07:45:41 2022.

 -----------------------------------------------------------------
 #P Geom=AllCheck Guess=TCheck SCRF=Check CCSD(T,E4T,FrzG4)/GTBas1
 -----------------------------------------------------------------

 Structure from the checkpoint file:  "G4.Frag_534.chk"
 --------
 Frag_534
 --------
 Charge =  0 Multiplicity = 1

 SCF Done:  E(RHF) =  -262.915040348     A.U. after   13 cycles
 E2 =    -0.7622929781D+00 EUMP2 =    -0.26367733332572D+03
 CCSD(T)
 CCSD(T)= -0.26374046859D+03
 15033\MP4SDQ=-263.7154906\CCSD=-263.7153693\CCSD(T)=-263.7404686\RMSD=
 Normal termination of Gaussian 09 at Sun Aug 21 07:47:21 2022.

 ---------------------------------------------------------
 #P Geom=AllCheck Guess=TCheck SCRF=Check MP4=FrzG4/GTBas2
 ---------------------------------------------------------

 Structure from the checkpoint file:  "G4.Frag_534.chk"
 --------
 Frag_534
 --------
 Charge =  0 Multiplicity = 1

 SCF Done:  E(RHF) =  -262.923736102     A.U. after   12 cycles
 E2 =    -0.7740791279D+00 EUMP2 =    -0.26369781522957D+03
 Normal termination of Gaussian 09 at Sun Aug 21 07:49:14 2022.

 ---------------------------------------------------------
 #P Geom=AllCheck Guess=TCheck SCRF=Check MP4=FrzG4/GTBas3
 ---------------------------------------------------------

 Structure from the checkpoint file:  "G4.Frag_534.chk"
 --------
 Frag_534
 --------
 Charge =  0 Multiplicity = 1

 SCF Done:  E(RHF) =  -262.948175090     A.U. after   12 cycles
 E2 =    -0.9299440640D+00 EUMP2 =    -0.26387811915414D+03
 Normal termination of Gaussian 09 at Sun Aug 21 08:24:26 2022.

 -----------------------------------------------------------
 #P Geom=AllCheck Guess=TCheck SCRF=Check MP2=Full/GTLargeXP
 -----------------------------------------------------------

 Structure from the checkpoint file:  "G4.Frag_534.chk"
 --------
 Frag_534
 --------
 Charge =  0 Multiplicity = 1

 SCF Done:  E(RHF) =  -263.018575638     A.U. after   12 cycles
 E2 =    -0.1212621159D+01 EUMP2 =    -0.26423119679697D+03
 Normal termination of Gaussian 09 at Sun Aug 21 08:26:37 2022.
 SCF Done:  E(RHF) =  -263.039618216     A.U. after    9 cycles
 Normal termination of Gaussian 09 at Sun Aug 21 08:29:29 2022.

                         Standard orientation:
 ---------------------------------------------------------------------
 Center     Atomic      Atomic             Coordinates (Angstroms)
 Number     Number       Type             X           Y           Z
 ---------------------------------------------------------------------
      1          6           0       -1.774791   -0.569059   -0.000075
      2          6           0       -0.481477    0.192213    0.000085
      3          7           0       -0.400917    1.449430    0.000034
      4          8           0        0.561484   -0.720581    0.000135
      5          7           0        1.847755   -0.082419   -0.000062
      6          1           0       -1.839687   -1.213976    0.881819
      7          1           0       -2.604260    0.136610   -0.001107
      8          1           0       -1.838691   -1.215290   -0.881099
      9          1           0        0.583878    1.725638   -0.000027
     10          1           0        2.308491   -0.488348    0.813271
     11          1           0        2.308132   -0.487977   -0.813798
 ---------------------------------------------------------------------

 SCF Done:  E(RHF) =  -263.044027957     A.U. after    8 cycles

 The electronic state is 1-A.
 Alpha  occ. eigenvalues --  -20.62058 -15.63016 -15.52585 -11.33246 -11.22828
 Alpha  occ. eigenvalues --   -1.44828  -1.20280  -1.11818  -0.98574  -0.76452
 Alpha  occ. eigenvalues --   -0.72258  -0.70333  -0.67119  -0.59997  -0.55887
 Alpha  occ. eigenvalues --   -0.54680  -0.52634  -0.45627  -0.43495  -0.40413
 Alpha virt. eigenvalues --    0.03706   0.04192   0.05797   0.05923   0.07529
 Alpha virt. eigenvalues --    0.07904   0.07943   0.10003   0.10805   0.10958
 Alpha virt. eigenvalues --    0.13312   0.13533   0.14821   0.15504   0.15847

 Mulliken charges:
               1
     1  C   -0.486346
     2  C    0.409056
     3  N   -0.672869
     4  O   -0.267625
     5  N   -0.539458
     6  H    0.192508
     7  H    0.213252
     8  H    0.192540
     9  H    0.316034
    10  H    0.321459
    11  H    0.321451
 Sum of Mulliken charges =  -0.00000

 Dipole moment (field-independent basis, Debye):
    X=              2.0850    Y=             -2.5554    Z=             -0.0008  Tot=              3.2981
 Quadrupole moment (field-independent basis, Debye-Ang):
   XX=            -23.3836   YY=            -35.4555   ZZ=            -29.3184
   XY=              1.3531   XZ=             -0.0010   YZ=             -0.0004

 Normal termination of Gaussian 09 at Sun Aug 21 09:48:15 2022.
