 Gaussian 09, Revision E.01,
 Gaussian 09:  ES64L-G09RevE.01 30-Nov-2015

 -----
 #P G4
 -----

 --------
 Frag_728
 --------
 Symbolic Z-matrix:
 Charge =  0 Multiplicity = 1

 SCF Done:  E(RB3LYP) =  -304.292187656     A.U. after   14 cycles
 SCF Done:  E(RB3LYP) =  -304.310687136     A.U. after   12 cycles
 SCF Done:  E(RB3LYP) =  -304.311578123     A.U. after   11 cycles
 SCF Done:  E(RB3LYP) =  -304.311336022     A.U. after   12 cycles
 SCF Done:  E(RB3LYP) =  -304.311711352     A.U. after    8 cycles
 SCF Done:  E(RB3LYP) =  -304.311971168     A.U. after   11 cycles
 SCF Done:  E(RB3LYP) =  -304.312543738     A.U. after   12 cycles
 SCF Done:  E(RB3LYP) =  -304.314485309     A.U. after   14 cycles
 SCF Done:  E(RB3LYP) =  -304.266215281     A.U. after   13 cycles
 SCF Done:  E(RB3LYP) =  -304.315809375     A.U. after   10 cycles
 SCF Done:  E(RB3LYP) =  -304.320008486     A.U. after   11 cycles
 SCF Done:  E(RB3LYP) =  -304.320016237     A.U. after    9 cycles
 SCF Done:  E(RB3LYP) =  -304.320016971     A.U. after    8 cycles
 Optimization completed.
    -- Stationary point found.
 Normal termination of Gaussian 09 at Fri Aug 26 09:54:33 2022.

 ----------------------------------------------------------
 #P Geom=AllCheck Guess=TCheck SCRF=Check B3LYP/GTBas3 Freq
 ----------------------------------------------------------

 Structure from the checkpoint file:  "G4.Frag_728.chk"
 --------
 Frag_728
 --------
 Charge =  0 Multiplicity = 1

 SCF Done:  E(RB3LYP) =  -304.320016971     A.U. after    1 cycles

  Exact polarizability:  37.404   0.466  35.721  -0.001   0.000  22.989
 Approx polarizability:  49.000   2.760  58.452  -0.000   0.000  33.055

                      1                      2                      3
                      A                      A                      A
 Frequencies --     89.3888               285.0369               337.5865
 Red. masses --      3.0428                 6.0566                 1.0919
 Frc consts  --      0.0143                 0.2899                 0.0733
 IR Inten    --      7.9534                 9.0241                67.3222

                      4                      5                      6
                      A                      A                      A
 Frequencies --    472.1559               508.1579               651.3499
 Red. masses --      5.7144                 1.5524                 4.8848
 Frc consts  --      0.7506                 0.2362                 1.2210
 IR Inten    --     24.7648                 5.7892                16.8063

                      7                      8                      9
                      A                      A                      A
 Frequencies --    662.4891               859.5119              1041.2804
 Red. masses --      1.4909                 3.3741                 2.1522
 Frc consts  --      0.3855                 1.4686                 1.3749
 IR Inten    --    116.2284                38.0196                 1.1243

                     10                     11                     12
                      A                      A                      A
 Frequencies --   1125.5911              1181.7299              1245.0216
 Red. masses --      4.9895                 2.1668                 1.0811
 Frc consts  --      3.7245                 1.7828                 0.9874
 IR Inten    --    216.8355               125.1747                 0.1848

                     13                     14                     15
                      A                      A                      A
 Frequencies --   1303.9793              1370.5018              1476.1847
 Red. masses --      1.3312                 1.8508                 1.5619
 Frc consts  --      1.3336                 2.0482                 2.0053
 IR Inten    --     20.4080               135.1564                18.6217

                     16                     17                     18
                      A                      A                      A
 Frequencies --   1497.6354              1830.5775              2997.0177
 Red. masses --      1.0954                 9.8456                 1.0573
 Frc consts  --      1.4475                19.4389                 5.5951
 IR Inten    --      5.9297               254.8965                31.0388

                     19                     20                     21
                      A                      A                      A
 Frequencies --   3017.4636              3726.0524              3749.1368
 Red. masses --      1.1026                 1.0651                 1.0641
 Frc consts  --      5.9147                 8.7122                 8.8126
 IR Inten    --     23.3013                71.7366                58.9023

 - Thermochemistry -
 -------------------
 Temperature   298.150 Kelvin.  Pressure   1.00000 Atm.
 Atom     1 has atomic number  8 and mass  15.99491

 Molecular mass:    76.01604 amu.
 Principal axes and moments of inertia in atomic units:
                           1         2         3
     Eigenvalues --   168.06945 443.56457 600.43324
           X            0.99998  -0.00579  -0.00001
           Y            0.00579   0.99998   0.00001
           Z            0.00001  -0.00001   1.00000
 This molecule is an asymmetric top.
 Rotational symmetry number  1.
 Rotational temperatures (Kelvin)      0.51535     0.19527     0.14425
 Rotational constants (GHZ):          10.73807     4.06872     3.00573
 Zero-point vibrational energy     176017.6 (Joules/Mol)
                                   42.06922 (Kcal/Mol)
 Warning -- explicit consideration of   5 degrees of freedom as
           vibrations may cause significant error
 Vibrational temperatures:    128.61   410.10   485.71   679.33   731.13
          (Kelvin)            937.15   953.17  1236.64  1498.17  1619.47
                             1700.24  1791.31  1876.13  1971.84  2123.90
                             2154.76  2633.79  4312.03  4341.45  5360.95
                             5394.16

 Zero-point correction=                           0.067042 (Hartree/Particle)
 Thermal correction to Energy=                    0.072350
 Thermal correction to Enthalpy=                  0.073294
 Thermal correction to Gibbs Free Energy=         0.038536
 Sum of electronic and zero-point Energies=           -304.252975
 Sum of electronic and thermal Energies=              -304.247667
 Sum of electronic and thermal Enthalpies=            -304.246723
 Sum of electronic and thermal Free Energies=         -304.281481

                     E (Thermal)             CV                S
                      KCal/Mol        Cal/Mol-Kelvin    Cal/Mol-Kelvin
 Total                   45.400             17.580             73.154
 Electronic               0.000              0.000              0.000
 Translational            0.889              2.981             38.901
 Rotational               0.889              2.981             25.307
 Vibrational             43.623             11.618              8.946
 Vibration     1          0.602              1.957              3.673
 Vibration     2          0.683              1.701              1.503
 Vibration     3          0.718              1.600              1.224
 Vibration     4          0.829              1.312              0.732
 Vibration     5          0.863              1.232              0.638

 Optimization completed.
    -- Stationary point found.
 Normal termination of Gaussian 09 at Fri Aug 26 09:54:50 2022.

 -----------------------------------------------------------------
 #P Geom=AllCheck Guess=TCheck SCRF=Check CCSD(T,E4T,FrzG4)/GTBas1
 -----------------------------------------------------------------

 Structure from the checkpoint file:  "G4.Frag_728.chk"
 --------
 Frag_728
 --------
 Charge =  0 Multiplicity = 1

 SCF Done:  E(RHF) =  -302.654460546     A.U. after   13 cycles
 E2 =    -0.7852001561D+00 EUMP2 =    -0.30343966070196D+03
 CCSD(T)
 CCSD(T)= -0.30348576890D+03
 9087\CCSD=-303.4631385\CCSD(T)=-303.4857689\RMSD=5.826e-09\PG=C01 [X(C
 Normal termination of Gaussian 09 at Fri Aug 26 09:55:38 2022.

 ---------------------------------------------------------
 #P Geom=AllCheck Guess=TCheck SCRF=Check MP4=FrzG4/GTBas2
 ---------------------------------------------------------

 Structure from the checkpoint file:  "G4.Frag_728.chk"
 --------
 Frag_728
 --------
 Charge =  0 Multiplicity = 1

 SCF Done:  E(RHF) =  -302.665173931     A.U. after   12 cycles
 E2 =    -0.7984746880D+00 EUMP2 =    -0.30346364861863D+03
 Normal termination of Gaussian 09 at Fri Aug 26 09:55:52 2022.

 ---------------------------------------------------------
 #P Geom=AllCheck Guess=TCheck SCRF=Check MP4=FrzG4/GTBas3
 ---------------------------------------------------------

 Structure from the checkpoint file:  "G4.Frag_728.chk"
 --------
 Frag_728
 --------
 Charge =  0 Multiplicity = 1

 SCF Done:  E(RHF) =  -302.693924479     A.U. after   11 cycles
 E2 =    -0.9676624755D+00 EUMP2 =    -0.30366158695453D+03
 Normal termination of Gaussian 09 at Fri Aug 26 09:56:52 2022.

 -----------------------------------------------------------
 #P Geom=AllCheck Guess=TCheck SCRF=Check MP2=Full/GTLargeXP
 -----------------------------------------------------------

 Structure from the checkpoint file:  "G4.Frag_728.chk"
 --------
 Frag_728
 --------
 Charge =  0 Multiplicity = 1

 SCF Done:  E(RHF) =  -302.782119765     A.U. after   12 cycles
 E2 =    -0.1263530852D+01 EUMP2 =    -0.30404565061768D+03
 Normal termination of Gaussian 09 at Fri Aug 26 09:57:30 2022.
 SCF Done:  E(RHF) =  -302.807137478     A.U. after    9 cycles
 Normal termination of Gaussian 09 at Fri Aug 26 09:58:11 2022.

                         Standard orientation:
 ---------------------------------------------------------------------
 Center     Atomic      Atomic             Coordinates (Angstroms)
 Number     Number       Type             X           Y           Z
 ---------------------------------------------------------------------
      1          8           0       -0.496187    1.303441   -0.000065
      2          6           0       -0.514221    0.096372   -0.000005
      3          8           0       -1.636727   -0.639581    0.000067
      4          6           0        0.743247   -0.748578   -0.000111
      5          8           0        1.885234    0.057886    0.000129
      6          1           0       -2.382318   -0.020163    0.000211
      7          1           0        0.713004   -1.406255    0.881761
      8          1           0        0.712986   -1.405750   -0.882377
      9          1           0        1.563614    0.971427    0.000045
 ---------------------------------------------------------------------

 SCF Done:  E(RHF) =  -302.812524850     A.U. after    8 cycles

 The electronic state is 1-A.
 Alpha  occ. eigenvalues --  -20.63306 -20.57070 -20.56675 -11.40507 -11.30832
 Alpha  occ. eigenvalues --   -1.49001  -1.39601  -1.36997  -1.00689  -0.83881
 Alpha  occ. eigenvalues --   -0.74789  -0.72957  -0.68651  -0.65074  -0.61582
 Alpha  occ. eigenvalues --   -0.61571  -0.54573  -0.50836  -0.47906  -0.46603
 Alpha virt. eigenvalues --    0.03608   0.04481   0.05396   0.05865   0.07442
 Alpha virt. eigenvalues --    0.07586   0.08090   0.11582   0.13073   0.13713
 Alpha virt. eigenvalues --    0.14451   0.14534   0.15423   0.16380   0.17032

 Mulliken charges:
               1
     1  O   -0.613833
     2  C    0.602183
     3  O   -0.513154
     4  C   -0.093871
     5  O   -0.579042
     6  H    0.409060
     7  H    0.192400
     8  H    0.192360
     9  H    0.403897
 Sum of Mulliken charges =  -0.00000

 Dipole moment (field-independent basis, Debye):
    X=             -2.1035    Y=             -1.2355    Z=             -0.0001  Tot=              2.4395
 Quadrupole moment (field-independent basis, Debye-Ang):
   XX=            -29.2916   YY=            -31.0901   ZZ=            -28.3878
   XY=             -0.1578   XZ=             -0.0016   YZ=              0.0004

 Normal termination of Gaussian 09 at Fri Aug 26 10:02:00 2022.
