 Gaussian 09, Revision E.01,
 Gaussian 09:  ES64L-G09RevE.01 30-Nov-2015

 -----
 #P G4
 -----

 ---------
 Frag_1068
 ---------
 Symbolic Z-matrix:
 Charge =  0 Multiplicity = 1

 SCF Done:  E(RB3LYP) =  -281.729859385     A.U. after   12 cycles
 SCF Done:  E(RB3LYP) =  -281.735007607     A.U. after   11 cycles
 SCF Done:  E(RB3LYP) =  -281.735678812     A.U. after   10 cycles
 SCF Done:  E(RB3LYP) =  -281.736004775     A.U. after   10 cycles
 SCF Done:  E(RB3LYP) =  -281.736158720     A.U. after   10 cycles
 SCF Done:  E(RB3LYP) =  -281.736204063     A.U. after   10 cycles
 SCF Done:  E(RB3LYP) =  -281.736224804     A.U. after    9 cycles
 SCF Done:  E(RB3LYP) =  -281.736228738     A.U. after    8 cycles
 SCF Done:  E(RB3LYP) =  -281.736229889     A.U. after    7 cycles
 SCF Done:  E(RB3LYP) =  -281.736230151     A.U. after    7 cycles
 SCF Done:  E(RB3LYP) =  -281.736230206     A.U. after    6 cycles
 Optimization completed.
    -- Stationary point found.
 Normal termination of Gaussian 09 at Thu Aug 25 19:18:33 2022.

 ----------------------------------------------------------
 #P Geom=AllCheck Guess=TCheck SCRF=Check B3LYP/GTBas3 Freq
 ----------------------------------------------------------

 Structure from the checkpoint file:  "G4.Frag_1068.chk"
 ---------
 Frag_1068
 ---------
 Charge =  0 Multiplicity = 1

 SCF Done:  E(RB3LYP) =  -281.736230206     A.U. after    1 cycles

  Exact polarizability:  41.403   1.265  42.485  -1.122  -0.219  37.116
 Approx polarizability:  54.411   3.327  57.669  -1.243  -0.393  55.842

                      1                      2                      3
                      A                      A                      A
 Frequencies --    120.0161               246.6774               257.2681
 Red. masses --      2.3867                 1.1972                 1.3266
 Frc consts  --      0.0203                 0.0429                 0.0517
 IR Inten    --      4.2904                59.0032                73.9855

                      4                      5                      6
                      A                      A                      A
 Frequencies --    313.5570               322.9979               429.4933
 Red. masses --      1.1046                 2.4955                 2.3239
 Frc consts  --      0.0640                 0.1534                 0.2526
 IR Inten    --      4.1640                38.8673                13.8284

                      7                      8                      9
                      A                      A                      A
 Frequencies --    464.4791               555.8246               825.3192
 Red. masses --      2.8404                 3.5143                 4.9748
 Frc consts  --      0.3610                 0.6397                 1.9965
 IR Inten    --     11.4353                36.2453                45.1418

                     10                     11                     12
                      A                      A                      A
 Frequencies --    904.9127               989.4646              1061.6444
 Red. masses --      2.3789                 1.7672                 1.5005
 Frc consts  --      1.1477                 1.0194                 0.9964
 IR Inten    --    104.6905                30.8905               113.9260

                     13                     14                     15
                      A                      A                      A
 Frequencies --   1102.0405              1151.4168              1230.1488
 Red. masses --      2.5063                 3.1022                 1.5856
 Frc consts  --      1.7934                 2.4232                 1.4137
 IR Inten    --     69.0931                41.1304                 2.2572

                     16                     17                     18
                      A                      A                      A
 Frequencies --   1243.0298              1307.5867              1373.2965
 Red. masses --      1.3304                 1.3543                 1.3922
 Frc consts  --      1.2111                 1.3642                 1.5470
 IR Inten    --      4.3894                 7.4781                24.7198

                     19                     20                     21
                      A                      A                      A
 Frequencies --   1386.3615              1443.6146              1516.4341
 Red. masses --      1.2367                 1.2264                 1.1000
 Frc consts  --      1.4004                 1.5059                 1.4904
 IR Inten    --      6.8674                76.0266                 1.1349

                     22                     23                     24
                      A                      A                      A
 Frequencies --   1654.4177              1679.4539              2936.8131
 Red. masses --      1.0869                 1.0799                 1.0612
 Frc consts  --      1.7529                 1.7946                 5.3926
 IR Inten    --     13.7737                22.5325                71.8480

                     25                     26                     27
                      A                      A                      A
 Frequencies --   2984.8402              3353.0462              3360.7260
 Red. masses --      1.0992                 1.0564                 1.0586
 Frc consts  --      5.7700                 6.9975                 7.0446
 IR Inten    --     68.5921                22.5291                12.3491

                     28                     29                     30
                      A                      A                      A
 Frequencies --   3531.0113              3538.7256              3801.1207
 Red. masses --      1.0839                 1.0812                 1.0651
 Frc consts  --      7.9625                 7.9775                 9.0666
 IR Inten    --      0.5419                 1.7141                22.6415

 - Thermochemistry -
 -------------------
 Temperature   298.150 Kelvin.  Pressure   1.00000 Atm.
 Atom     1 has atomic number  7 and mass  14.00307

 Molecular mass:    77.05891 amu.
 Principal axes and moments of inertia in atomic units:
                           1         2         3
     Eigenvalues --   207.15452 469.33174 614.24108
           X            0.99989  -0.00684  -0.01315
           Y            0.00676   0.99996  -0.00641
           Z            0.01319   0.00632   0.99989
 This molecule is an asymmetric top.
 Rotational symmetry number  1.
 Rotational temperatures (Kelvin)      0.41811     0.18455     0.14101
 Rotational constants (GHZ):           8.71205     3.84534     2.93816
 Zero-point vibrational energy     269672.6 (Joules/Mol)
                                   64.45330 (Kcal/Mol)
 Warning -- explicit consideration of   8 degrees of freedom as
           vibrations may cause significant error
 Vibrational temperatures:    172.68   354.91   370.15   451.14   464.72
          (Kelvin)            617.94   668.28   799.71  1187.45  1301.97
                             1423.62  1527.47  1585.59  1656.63  1769.91
                             1788.44  1881.32  1975.86  1994.66  2077.04
                             2181.81  2380.34  2416.36  4225.41  4294.51
                             4824.28  4835.33  5080.33  5091.43  5468.96

 Zero-point correction=                           0.102713 (Hartree/Particle)
 Thermal correction to Energy=                    0.109034
 Thermal correction to Enthalpy=                  0.109978
 Thermal correction to Gibbs Free Energy=         0.073566
 Sum of electronic and zero-point Energies=           -281.633517
 Sum of electronic and thermal Energies=              -281.627197
 Sum of electronic and thermal Enthalpies=            -281.626252
 Sum of electronic and thermal Free Energies=         -281.662664

                     E (Thermal)             CV                S
                      KCal/Mol        Cal/Mol-Kelvin    Cal/Mol-Kelvin
 Total                   68.420             21.856             76.635
 Electronic               0.000              0.000              0.000
 Translational            0.889              2.981             38.941
 Rotational               0.889              2.981             25.594
 Vibrational             66.642             15.895             12.100
 Vibration     1          0.609              1.933              3.100
 Vibration     2          0.661              1.768              1.754
 Vibration     3          0.667              1.750              1.680
 Vibration     4          0.701              1.648              1.343
 Vibration     5          0.708              1.629              1.295
 Vibration     6          0.791              1.406              0.860
 Vibration     7          0.822              1.329              0.753
 Vibration     8          0.911              1.127              0.532

 Optimization completed.
    -- Stationary point found.
 Normal termination of Gaussian 09 at Thu Aug 25 19:20:02 2022.

 -----------------------------------------------------------------
 #P Geom=AllCheck Guess=TCheck SCRF=Check CCSD(T,E4T,FrzG4)/GTBas1
 -----------------------------------------------------------------

 Structure from the checkpoint file:  "G4.Frag_1068.chk"
 ---------
 Frag_1068
 ---------
 Charge =  0 Multiplicity = 1

 SCF Done:  E(RHF) =  -280.048636699     A.U. after   12 cycles
 E2 =    -0.8023415418D+00 EUMP2 =    -0.28085097824077D+03
 CCSD(T)
 CCSD(T)= -0.28091476710D+03
 18\CCSD=-280.8927689\CCSD(T)=-280.9147671\RMSD=5.486e-09\PG=C01 [X(C1H
 Normal termination of Gaussian 09 at Thu Aug 25 19:22:08 2022.

 ---------------------------------------------------------
 #P Geom=AllCheck Guess=TCheck SCRF=Check MP4=FrzG4/GTBas2
 ---------------------------------------------------------

 Structure from the checkpoint file:  "G4.Frag_1068.chk"
 ---------
 Frag_1068
 ---------
 Charge =  0 Multiplicity = 1

 SCF Done:  E(RHF) =  -280.060724390     A.U. after   12 cycles
 E2 =    -0.8177127069D+00 EUMP2 =    -0.28087843709714D+03
 Normal termination of Gaussian 09 at Thu Aug 25 19:24:41 2022.

 ---------------------------------------------------------
 #P Geom=AllCheck Guess=TCheck SCRF=Check MP4=FrzG4/GTBas3
 ---------------------------------------------------------

 Structure from the checkpoint file:  "G4.Frag_1068.chk"
 ---------
 Frag_1068
 ---------
 Charge =  0 Multiplicity = 1

 SCF Done:  E(RHF) =  -280.091364832     A.U. after   11 cycles
 E2 =    -0.9871259972D+00 EUMP2 =    -0.28107849082915D+03
 Normal termination of Gaussian 09 at Thu Aug 25 20:13:14 2022.

 -----------------------------------------------------------
 #P Geom=AllCheck Guess=TCheck SCRF=Check MP2=Full/GTLargeXP
 -----------------------------------------------------------

 Structure from the checkpoint file:  "G4.Frag_1068.chk"
 ---------
 Frag_1068
 ---------
 Charge =  0 Multiplicity = 1

 SCF Done:  E(RHF) =  -280.171700501     A.U. after   12 cycles
 E2 =    -0.1281157147D+01 EUMP2 =    -0.28145285764752D+03
 Normal termination of Gaussian 09 at Thu Aug 25 20:15:55 2022.
 SCF Done:  E(RHF) =  -280.193951510     A.U. after    9 cycles
 Normal termination of Gaussian 09 at Thu Aug 25 20:19:13 2022.

                         Standard orientation:
 ---------------------------------------------------------------------
 Center     Atomic      Atomic             Coordinates (Angstroms)
 Number     Number       Type             X           Y           Z
 ---------------------------------------------------------------------
      1          7           0       -0.543409    1.369697    0.102407
      2          7           0       -0.413521    0.026022   -0.334359
      3          7           0       -1.613482   -0.717353   -0.079945
      4          6           0        0.753743   -0.584204    0.301760
      5          8           0        1.946793    0.023079   -0.087512
      6          1           0       -1.239765    1.796527   -0.501793
      7          1           0       -0.941976    1.384951    1.047721
      8          1           0       -1.638334   -1.494384   -0.734876
      9          1           0       -1.594166   -1.119358    0.863875
     10          1           0        0.714272   -1.652243    0.034197
     11          1           0        0.708228   -0.503273    1.403867
     12          1           0        1.887823    0.159817   -1.040176
 ---------------------------------------------------------------------

 SCF Done:  E(RHF) =  -280.198949321     A.U. after    8 cycles

 The electronic state is 1-A.
 Alpha  occ. eigenvalues --  -20.55754 -15.61479 -15.58470 -15.57155 -11.30961
 Alpha  occ. eigenvalues --   -1.38329  -1.32050  -1.14986  -1.00947  -0.86368
 Alpha  occ. eigenvalues --   -0.71463  -0.71024  -0.68402  -0.64698  -0.60738
 Alpha  occ. eigenvalues --   -0.59373  -0.55100  -0.46415  -0.43739  -0.42550
 Alpha  occ. eigenvalues --   -0.39471
 Alpha virt. eigenvalues --    0.04033   0.04923   0.05359   0.05766   0.08004
 Alpha virt. eigenvalues --    0.08776   0.08905   0.09491   0.09967   0.12880
 Alpha virt. eigenvalues --    0.13783   0.13990   0.14871   0.16102   0.16643

 Mulliken charges:
               1
     1  N   -0.576616
     2  N   -0.024967
     3  N   -0.643817
     4  C   -0.017486
     5  O   -0.546214
     6  H    0.310101
     7  H    0.259963
     8  H    0.316071
     9  H    0.283144
    10  H    0.137676
    11  H    0.132094
    12  H    0.370051
 Sum of Mulliken charges =  -0.00000

 Dipole moment (field-independent basis, Debye):
    X=             -1.7656    Y=             -1.8182    Z=              0.1609  Tot=              2.5395
 Quadrupole moment (field-independent basis, Debye-Ang):
   XX=            -36.6731   YY=            -28.7588   ZZ=            -27.4447
   XY=             -1.1122   XZ=             -3.3462   YZ=             -0.2274

 Normal termination of Gaussian 09 at Thu Aug 25 21:48:27 2022.
