 Gaussian 09, Revision E.01,
 Gaussian 09:  ES64L-G09RevE.01 30-Nov-2015

 -----
 #P G4
 -----

 --------
 Frag_766
 --------
 Symbolic Z-matrix:
 Charge =  0 Multiplicity = 1

 SCF Done:  E(RB3LYP) =  -287.808636959     A.U. after   13 cycles
 SCF Done:  E(RB3LYP) =  -287.816698801     A.U. after   12 cycles
 SCF Done:  E(RB3LYP) =  -287.818947860     A.U. after   11 cycles
 SCF Done:  E(RB3LYP) =  -287.821426838     A.U. after   13 cycles
 SCF Done:  E(RB3LYP) =  -287.822643395     A.U. after   11 cycles
 SCF Done:  E(RB3LYP) =  -287.823046352     A.U. after   11 cycles
 SCF Done:  E(RB3LYP) =  -287.823242766     A.U. after   10 cycles
 SCF Done:  E(RB3LYP) =  -287.823335980     A.U. after    9 cycles
 SCF Done:  E(RB3LYP) =  -287.823482453     A.U. after   10 cycles
 SCF Done:  E(RB3LYP) =  -287.823809267     A.U. after   13 cycles
 SCF Done:  E(RB3LYP) =  -287.825212500     A.U. after    8 cycles
 SCF Done:  E(RB3LYP) =  -287.825212640     A.U. after    7 cycles
 SCF Done:  E(RB3LYP) =  -287.825212669     A.U. after    6 cycles
 Optimization completed.
    -- Stationary point found.
 Normal termination of Gaussian 09 at Fri Aug 26 06:14:53 2022.

 ----------------------------------------------------------
 #P Geom=AllCheck Guess=TCheck SCRF=Check B3LYP/GTBas3 Freq
 ----------------------------------------------------------

 Structure from the checkpoint file:  "G4.Frag_766.chk"
 --------
 Frag_766
 --------
 Charge =  0 Multiplicity = 1

 SCF Done:  E(RB3LYP) =  -287.825212669     A.U. after    1 cycles

  Exact polarizability:  59.256   0.348  59.141  -0.335  -4.704  43.975
 Approx polarizability:  76.770   2.024  90.058  -2.290 -10.871  66.361

                      1                      2                      3
                      A                      A                      A
 Frequencies --     56.3819               162.4556               199.7053
 Red. masses --      2.6802                 1.1672                 1.0626
 Frc consts  --      0.0050                 0.0181                 0.0250
 IR Inten    --      1.0106                 4.7496                95.9011

                      4                      5                      6
                      A                      A                      A
 Frequencies --    229.0585               270.8270               325.3617
 Red. masses --      1.3209                 1.9576                 2.9154
 Frc consts  --      0.0408                 0.0846                 0.1818
 IR Inten    --      0.2859                 0.8502                 2.7332

                      7                      8                      9
                      A                      A                      A
 Frequencies --    391.9918               447.3850               555.7242
 Red. masses --      3.6525                 2.7270                 2.9044
 Frc consts  --      0.3307                 0.3216                 0.5285
 IR Inten    --      3.4608                 4.2635                11.1866

                     10                     11                     12
                      A                      A                      A
 Frequencies --    610.9933               756.2323               908.8657
 Red. masses --      2.9098                 2.4625                 2.2978
 Frc consts  --      0.6400                 0.8297                 1.1183
 IR Inten    --     17.6165                 5.3714                18.7975

                     13                     14                     15
                      A                      A                      A
 Frequencies --    923.0991               980.8130              1039.5136
 Red. masses --      1.2304                 1.8952                 1.6484
 Frc consts  --      0.6177                 1.0742                 1.0495
 IR Inten    --     37.8595                19.2508                 6.6822

                     16                     17                     18
                      A                      A                      A
 Frequencies --   1086.3164              1108.0267              1120.0757
 Red. masses --      1.3112                 2.0262                 1.9848
 Frc consts  --      0.9117                 1.4657                 1.4671
 IR Inten    --     12.4374                 7.0029                21.7197

                     19                     20                     21
                      A                      A                      A
 Frequencies --   1154.3254              1245.3529              1352.7499
 Red. masses --      2.4664                 1.1302                 1.2960
 Frc consts  --      1.9363                 1.0328                 1.3973
 IR Inten    --     59.3837                33.3660                30.3570

                     22                     23                     24
                      A                      A                      A
 Frequencies --   1363.9413              1397.1862              1407.8023
 Red. masses --      1.2889                 1.3257                 1.2716
 Frc consts  --      1.4127                 1.5248                 1.4849
 IR Inten    --     83.5809                10.8113                11.8178

                     25                     26                     27
                      A                      A                      A
 Frequencies --   1426.0308              1474.6382              1483.2655
 Red. masses --      1.6831                 1.0650                 1.0476
 Frc consts  --      2.0167                 1.3645                 1.3579
 IR Inten    --     37.8876                 3.2718                10.3324

                     28                     29                     30
                      A                      A                      A
 Frequencies --   1497.4367              1499.7944              1737.9182
 Red. masses --      1.0554                 1.0891                 8.6957
 Frc consts  --      1.3943                 1.4434                15.4744
 IR Inten    --      3.4657                 5.7966                49.4154

                     31                     32                     33
                      A                      A                      A
 Frequencies --   2953.8406              3030.6448              3033.1318
 Red. masses --      1.0813                 1.0379                 1.0391
 Frc consts  --      5.5588                 5.6164                 5.6325
 IR Inten    --     46.1261                14.0888                19.0974

                     34                     35                     36
                      A                      A                      A
 Frequencies --   3084.4372              3100.4424              3126.2591
 Red. masses --      1.0983                 1.0978                 1.1017
 Frc consts  --      6.1566                 6.2175                 6.3441
 IR Inten    --     15.9715                25.8554                18.2340

                     37                     38                     39
                      A                      A                      A
 Frequencies --   3148.7256              3433.0764              3838.0642
 Red. masses --      1.0991                 1.0719                 1.0664
 Frc consts  --      6.4202                 7.4436                 9.2550
 IR Inten    --      8.2014                 4.1221                23.2772

 - Thermochemistry -
 -------------------
 Temperature   298.150 Kelvin.  Pressure   1.00000 Atm.
 Atom     1 has atomic number  6 and mass  12.00000

 Molecular mass:    87.06841 amu.
 Principal axes and moments of inertia in atomic units:
                           1         2         3
     Eigenvalues --   373.36837 592.63008 837.86508
           X            0.99969  -0.01476   0.01993
           Y            0.01472   0.99989   0.00216
           Z           -0.01996  -0.00187   0.99980
 This molecule is an asymmetric top.
 Rotational symmetry number  1.
 Rotational temperatures (Kelvin)      0.23198     0.14615     0.10337
 Rotational constants (GHZ):           4.83367     3.04531     2.15398
 Zero-point vibrational energy     340707.8 (Joules/Mol)
                                   81.43111 (Kcal/Mol)
 Warning -- explicit consideration of  10 degrees of freedom as
           vibrations may cause significant error
 Vibrational temperatures:     81.12   233.74   287.33   329.56   389.66
          (Kelvin)            468.12   563.99   643.69   799.56   879.08
                             1088.05  1307.65  1328.13  1411.17  1495.63
                             1562.97  1594.20  1611.54  1660.81  1791.78
                             1946.30  1962.40  2010.24  2025.51  2051.74
                             2121.67  2134.09  2154.47  2157.87  2500.47
                             4249.91  4360.42  4363.99  4437.81  4460.84
                             4497.98  4530.31  4939.43  5522.11

 Zero-point correction=                           0.129769 (Hartree/Particle)
 Thermal correction to Energy=                    0.137327
 Thermal correction to Enthalpy=                  0.138271
 Thermal correction to Gibbs Free Energy=         0.098414
 Sum of electronic and zero-point Energies=           -287.695444
 Sum of electronic and thermal Energies=              -287.687885
 Sum of electronic and thermal Enthalpies=            -287.686941
 Sum of electronic and thermal Free Energies=         -287.726798

                     E (Thermal)             CV                S
                      KCal/Mol        Cal/Mol-Kelvin    Cal/Mol-Kelvin
 Total                   86.174             26.358             83.886
 Electronic               0.000              0.000              0.000
 Translational            0.889              2.981             39.305
 Rotational               0.889              2.981             26.719
 Vibrational             84.397             20.397             17.862
 Vibration     1          0.596              1.975              4.580
 Vibration     2          0.623              1.888              2.521
 Vibration     3          0.638              1.840              2.136
 Vibration     4          0.652              1.797              1.886
 Vibration     5          0.675              1.727              1.591
 Vibration     6          0.709              1.625              1.283
 Vibration     7          0.759              1.487              0.993
 Vibration     8          0.807              1.367              0.804
 Vibration     9          0.911              1.127              0.532
 Vibration    10          0.970              1.009              0.431

 Optimization completed.
    -- Stationary point found.
 Normal termination of Gaussian 09 at Fri Aug 26 06:15:26 2022.

 -----------------------------------------------------------------
 #P Geom=AllCheck Guess=TCheck SCRF=Check CCSD(T,E4T,FrzG4)/GTBas1
 -----------------------------------------------------------------

 Structure from the checkpoint file:  "G4.Frag_766.chk"
 --------
 Frag_766
 --------
 Charge =  0 Multiplicity = 1

 SCF Done:  E(RHF) =  -285.998022075     A.U. after   12 cycles
 E2 =    -0.8604574104D+00 EUMP2 =    -0.28685847948551D+03
 CCSD(T)
 CCSD(T)= -0.28694094384D+03
 129387\CCSD(T)=-286.9409438\RMSD=7.287e-09\PG=C01 [X(C4H9N1O1)]\\@
 Normal termination of Gaussian 09 at Fri Aug 26 06:17:32 2022.

 ---------------------------------------------------------
 #P Geom=AllCheck Guess=TCheck SCRF=Check MP4=FrzG4/GTBas2
 ---------------------------------------------------------

 Structure from the checkpoint file:  "G4.Frag_766.chk"
 --------
 Frag_766
 --------
 Charge =  0 Multiplicity = 1

 SCF Done:  E(RHF) =  -286.007300191     A.U. after   13 cycles
 E2 =    -0.8730749326D+00 EUMP2 =    -0.28688037512327D+03
 Normal termination of Gaussian 09 at Fri Aug 26 06:18:10 2022.

 ---------------------------------------------------------
 #P Geom=AllCheck Guess=TCheck SCRF=Check MP4=FrzG4/GTBas3
 ---------------------------------------------------------

 Structure from the checkpoint file:  "G4.Frag_766.chk"
 --------
 Frag_766
 --------
 Charge =  0 Multiplicity = 1

 SCF Done:  E(RHF) =  -286.037013682     A.U. after   11 cycles
 E2 =    -0.1059907168D+01 EUMP2 =    -0.28709692084939D+03
 Normal termination of Gaussian 09 at Fri Aug 26 06:21:57 2022.

 -----------------------------------------------------------
 #P Geom=AllCheck Guess=TCheck SCRF=Check MP2=Full/GTLargeXP
 -----------------------------------------------------------

 Structure from the checkpoint file:  "G4.Frag_766.chk"
 --------
 Frag_766
 --------
 Charge =  0 Multiplicity = 1

 SCF Done:  E(RHF) =  -286.109403453     A.U. after   12 cycles
 E2 =    -0.1391454300D+01 EUMP2 =    -0.28750085775298D+03
 Normal termination of Gaussian 09 at Fri Aug 26 06:24:02 2022.
 SCF Done:  E(RHF) =  -286.132157065     A.U. after    8 cycles
 Normal termination of Gaussian 09 at Fri Aug 26 06:26:06 2022.

                         Standard orientation:
 ---------------------------------------------------------------------
 Center     Atomic      Atomic             Coordinates (Angstroms)
 Number     Number       Type             X           Y           Z
 ---------------------------------------------------------------------
      1          6           0       -1.855567    0.767159   -0.263840
      2          6           0       -0.768968   -0.245220   -0.001755
      3          7           0       -1.059580   -1.368990    0.512539
      4          6           0        0.650416    0.163310   -0.398500
      5          6           0        1.189296    1.289669    0.493891
      6          8           0        1.466587   -0.993985   -0.317732
      7          1           0       -2.823474    0.330094   -0.016210
      8          1           0       -1.715024    1.673508    0.336167
      9          1           0       -1.857586    1.078942   -1.315064
     10          1           0       -0.204846   -1.926151    0.603378
     11          1           0        0.613545    0.527549   -1.439627
     12          1           0        0.577813    2.192405    0.415750
     13          1           0        2.208813    1.559589    0.194450
     14          1           0        1.207055    0.966918    1.539203
     15          1           0        2.387001   -0.717562   -0.342739
 ---------------------------------------------------------------------

 SCF Done:  E(RHF) =  -286.136993501     A.U. after    8 cycles

 The electronic state is 1-A.
 Alpha  occ. eigenvalues --  -20.57076 -15.53197 -11.30049 -11.27744 -11.23762
 Alpha  occ. eigenvalues --  -11.22453  -1.38218  -1.20221  -1.04020  -0.97815
 Alpha  occ. eigenvalues --   -0.88281  -0.73737  -0.70740  -0.67218  -0.64411
 Alpha  occ. eigenvalues --   -0.58751  -0.55962  -0.55660  -0.55463  -0.53850
 Alpha  occ. eigenvalues --   -0.51238  -0.46613  -0.41081  -0.40675
 Alpha virt. eigenvalues --    0.02913   0.03945   0.04141   0.05455   0.06434
 Alpha virt. eigenvalues --    0.06898   0.07466   0.07593   0.08174   0.09821
 Alpha virt. eigenvalues --    0.10033   0.10543   0.11042   0.13435   0.13769

 Mulliken charges:
               1
     1  C   -0.548022
     2  C    0.295764
     3  N   -0.635217
     4  C    0.110604
     5  C   -0.550914
     6  O   -0.602704
     7  H    0.211314
     8  H    0.174716
     9  H    0.174997
    10  H    0.311051
    11  H    0.158267
    12  H    0.179159
    13  H    0.157585
    14  H    0.189190
    15  H    0.374208
 Sum of Mulliken charges =  -0.00000

 Dipole moment (field-independent basis, Debye):
    X=              2.4972    Y=              3.2250    Z=             -0.9005  Tot=              4.1770
 Quadrupole moment (field-independent basis, Debye-Ang):
   XX=            -35.6525   YY=            -40.9383   ZZ=            -38.6591
   XY=             -2.9712   XZ=              1.4925   YZ=              0.1383

 Normal termination of Gaussian 09 at Fri Aug 26 06:33:50 2022.
