 Gaussian 09, Revision E.01,
 Gaussian 09:  ES64L-G09RevE.01 30-Nov-2015

 -----
 #P G4
 -----

 --------
 Frag_438
 --------
 Symbolic Z-matrix:
 Charge =  0 Multiplicity = 1

 SCF Done:  E(RB3LYP) =  -232.481788915     A.U. after   13 cycles
 SCF Done:  E(RB3LYP) =  -232.484473944     A.U. after   11 cycles
 SCF Done:  E(RB3LYP) =  -232.484043869     A.U. after   12 cycles
 SCF Done:  E(RB3LYP) =  -232.484673257     A.U. after    7 cycles
 SCF Done:  E(RB3LYP) =  -232.484778686     A.U. after   10 cycles
 SCF Done:  E(RB3LYP) =  -232.484808731     A.U. after   10 cycles
 SCF Done:  E(RB3LYP) =  -232.484862842     A.U. after   10 cycles
 SCF Done:  E(RB3LYP) =  -232.484820619     A.U. after    9 cycles
 SCF Done:  E(RB3LYP) =  -232.456246800     A.U. after   14 cycles
 SCF Done:  E(RB3LYP) =  -232.485008128     A.U. after   11 cycles
 SCF Done:  E(RB3LYP) =  -232.489711135     A.U. after    7 cycles
 SCF Done:  E(RB3LYP) =  -232.489711239     A.U. after    7 cycles
 SCF Done:  E(RB3LYP) =  -232.489711242     A.U. after    6 cycles
 Optimization completed.
    -- Stationary point found.
 Normal termination of Gaussian 09 at Mon Aug 22 23:53:09 2022.

 ----------------------------------------------------------
 #P Geom=AllCheck Guess=TCheck SCRF=Check B3LYP/GTBas3 Freq
 ----------------------------------------------------------

 Structure from the checkpoint file:  "G4.Frag_438.chk"
 --------
 Frag_438
 --------
 Charge =  0 Multiplicity = 1

 SCF Done:  E(RB3LYP) =  -232.489711242     A.U. after    1 cycles

  Exact polarizability:  52.995  -0.960  48.012  -0.000  -0.001  37.566
 Approx polarizability:  61.836  -1.191  76.988   0.000  -0.000  55.792

                      1                      2                      3
                      A                      A                      A
 Frequencies --     38.3511               111.1464               191.9212
 Red. masses --      1.4459                 1.2705                 1.1326
 Frc consts  --      0.0013                 0.0092                 0.0246
 IR Inten    --      0.1177                 0.0117                 0.1675

                      4                      5                      6
                      A                      A                      A
 Frequencies --    245.4876               397.6291               476.9573
 Red. masses --      3.0947                 2.8061                 1.8689
 Frc consts  --      0.1099                 0.2614                 0.2505
 IR Inten    --      4.8592                 3.9559                 0.0643

                      7                      8                      9
                      A                      A                      A
 Frequencies --    586.3342               754.2604               759.7497
 Red. masses --      3.8454                 1.2596                 2.8457
 Frc consts  --      0.7789                 0.4222                 0.9678
 IR Inten    --      8.7381                 2.6974                 2.7740

                     10                     11                     12
                      A                      A                      A
 Frequencies --    936.6952               949.3702              1000.3049
 Red. masses --      1.8066                 1.2265                 1.8458
 Frc consts  --      0.9339                 0.6513                 1.0882
 IR Inten    --     12.6922                 3.5622                 2.4562

                     13                     14                     15
                      A                      A                      A
 Frequencies --   1105.7631              1132.7663              1187.4255
 Red. masses --      2.0923                 1.9554                 2.3085
 Frc consts  --      1.5073                 1.4783                 1.9178
 IR Inten    --      1.3851                 0.3489                76.0407

                     16                     17                     18
                      A                      A                      A
 Frequencies --   1283.2498              1368.4512              1384.5403
 Red. masses --      1.1943                 1.5412                 1.4734
 Frc consts  --      1.1587                 1.7005                 1.6641
 IR Inten    --      0.0222                11.3648                36.0016

                     19                     20                     21
                      A                      A                      A
 Frequencies --   1413.7473              1450.5023              1466.0321
 Red. masses --      1.2258                 1.0792                 1.0628
 Frc consts  --      1.4434                 1.3378                 1.3459
 IR Inten    --      3.5023                 2.8136                15.8394

                     22                     23                     24
                      A                      A                      A
 Frequencies --   1477.9629              1492.1536              1498.0956
 Red. masses --      1.0486                 1.0380                 1.0510
 Frc consts  --      1.3496                 1.3617                 1.3897
 IR Inten    --      7.6863                 5.3403                 7.0488

                     25                     26                     27
                      A                      A                      A
 Frequencies --   1813.5006              3014.7381              3037.0102
 Red. masses --     10.3943                 1.0599                 1.0378
 Frc consts  --     20.1409                 5.6754                 5.6395
 IR Inten    --    132.1849                15.8826                 7.5430

                     28                     29                     30
                      A                      A                      A
 Frequencies --   3040.7306              3051.5116              3096.5032
 Red. masses --      1.0983                 1.0354                 1.0983
 Frc consts  --      5.9832                 5.6806                 6.2046
 IR Inten    --      9.3499                20.7026                10.1720

                     31                     32                     33
                      A                      A                      A
 Frequencies --   3122.2996              3127.7744              3151.9069
 Red. masses --      1.1019                 1.1017                 1.1017
 Frc consts  --      6.3290                 6.3499                 6.4485
 IR Inten    --     21.3080                21.1386                10.3676

 - Thermochemistry -
 -------------------
 Temperature   298.150 Kelvin.  Pressure   1.00000 Atm.
 Atom     1 has atomic number  6 and mass  12.00000

 Molecular mass:    72.05751 amu.
 Principal axes and moments of inertia in atomic units:
                           1         2         3
     Eigenvalues --   188.93615 504.33143 660.08182
           X            0.99956  -0.02966   0.00000
           Y            0.02966   0.99956   0.00000
           Z           -0.00000  -0.00000   1.00000
 This molecule is an asymmetric top.
 Rotational symmetry number  1.
 Rotational temperatures (Kelvin)      0.45843     0.17174     0.13122
 Rotational constants (GHZ):           9.55212     3.57848     2.73412
 Zero-point vibrational energy     294071.2 (Joules/Mol)
                                   70.28471 (Kcal/Mol)
 Warning -- explicit consideration of   7 degrees of freedom as
           vibrations may cause significant error
 Vibrational temperatures:     55.18   159.91   276.13   353.20   572.10
          (Kelvin)            686.23   843.60  1085.21  1093.11  1347.69
                             1365.93  1439.21  1590.94  1629.80  1708.44
                             1846.31  1968.89  1992.04  2034.06  2086.95
                             2109.29  2126.46  2146.87  2155.42  2609.22
                             4337.53  4369.57  4374.93  4390.44  4455.17
                             4492.29  4500.16  4534.89

 Zero-point correction=                           0.112006 (Hartree/Particle)
 Thermal correction to Energy=                    0.118639
 Thermal correction to Enthalpy=                  0.119583
 Thermal correction to Gibbs Free Energy=         0.081456
 Sum of electronic and zero-point Energies=           -232.377705
 Sum of electronic and thermal Energies=              -232.371073
 Sum of electronic and thermal Enthalpies=            -232.370129
 Sum of electronic and thermal Free Energies=         -232.408256

                     E (Thermal)             CV                S
                      KCal/Mol        Cal/Mol-Kelvin    Cal/Mol-Kelvin
 Total                   74.447             21.715             80.245
 Electronic               0.000              0.000              0.000
 Translational            0.889              2.981             38.741
 Rotational               0.889              2.981             25.645
 Vibrational             72.669             15.754             15.859
 Vibration     1          0.594              1.982              5.342
 Vibration     2          0.607              1.940              3.249
 Vibration     3          0.634              1.851              2.209
 Vibration     4          0.660              1.770              1.763
 Vibration     5          0.764              1.475              0.971
 Vibration     6          0.834              1.301              0.718
 Vibration     7          0.943              1.061              0.474

 Optimization completed.
    -- Stationary point found.
 Normal termination of Gaussian 09 at Mon Aug 22 23:54:45 2022.

 -----------------------------------------------------------------
 #P Geom=AllCheck Guess=TCheck SCRF=Check CCSD(T,E4T,FrzG4)/GTBas1
 -----------------------------------------------------------------

 Structure from the checkpoint file:  "G4.Frag_438.chk"
 --------
 Frag_438
 --------
 Charge =  0 Multiplicity = 1

 SCF Done:  E(RHF) =  -230.996885308     A.U. after   12 cycles
 E2 =    -0.6933200042D+00 EUMP2 =    -0.23169020531226D+03
 CCSD(T)
 CCSD(T)= -0.23176064729D+03
 MP4SDTQ=-231.7618815\MP4SDQ=-231.7383574\CCSD=-231.7377189\CCSD(T)=-23
 Normal termination of Gaussian 09 at Mon Aug 22 23:56:44 2022.

 ---------------------------------------------------------
 #P Geom=AllCheck Guess=TCheck SCRF=Check MP4=FrzG4/GTBas2
 ---------------------------------------------------------

 Structure from the checkpoint file:  "G4.Frag_438.chk"
 --------
 Frag_438
 --------
 Charge =  0 Multiplicity = 1

 SCF Done:  E(RHF) =  -231.002033082     A.U. after   11 cycles
 E2 =    -0.7014835781D+00 EUMP2 =    -0.23170351665966D+03
 Normal termination of Gaussian 09 at Mon Aug 22 23:58:57 2022.

 ---------------------------------------------------------
 #P Geom=AllCheck Guess=TCheck SCRF=Check MP4=FrzG4/GTBas3
 ---------------------------------------------------------

 Structure from the checkpoint file:  "G4.Frag_438.chk"
 --------
 Frag_438
 --------
 Charge =  0 Multiplicity = 1

 SCF Done:  E(RHF) =  -231.023984007     A.U. after   11 cycles
 E2 =    -0.8590392968D+00 EUMP2 =    -0.23188302330346D+03
 Normal termination of Gaussian 09 at Tue Aug 23 00:43:53 2022.

 -----------------------------------------------------------
 #P Geom=AllCheck Guess=TCheck SCRF=Check MP2=Full/GTLargeXP
 -----------------------------------------------------------

 Structure from the checkpoint file:  "G4.Frag_438.chk"
 --------
 Frag_438
 --------
 Charge =  0 Multiplicity = 1

 SCF Done:  E(RHF) =  -231.079217071     A.U. after   12 cycles
 E2 =    -0.1131137379D+01 EUMP2 =    -0.23221035444979D+03
 Normal termination of Gaussian 09 at Tue Aug 23 00:46:44 2022.
 SCF Done:  E(RHF) =  -231.097744639     A.U. after    9 cycles
 Normal termination of Gaussian 09 at Tue Aug 23 00:50:24 2022.

                         Standard orientation:
 ---------------------------------------------------------------------
 Center     Atomic      Atomic             Coordinates (Angstroms)
 Number     Number       Type             X           Y           Z
 ---------------------------------------------------------------------
      1          6           0       -2.018548   -0.021680    0.000005
      2          6           0       -0.681363   -0.757524   -0.000004
      3          6           0        0.527167    0.171746   -0.000001
      4          6           0        1.890883   -0.499242    0.000002
      5          8           0        0.408749    1.375574   -0.000002
      6          1           0       -2.851509   -0.730304    0.000015
      7          1           0       -2.109505    0.620654   -0.879522
      8          1           0       -2.109487    0.620665    0.879523
      9          1           0       -0.592859   -1.422589    0.870582
     10          1           0       -0.592868   -1.422560   -0.870612
     11          1           0        2.000382   -1.143597    0.879623
     12          1           0        2.676663    0.256991   -0.000020
     13          1           0        2.000363   -1.143646   -0.879584
 ---------------------------------------------------------------------

 SCF Done:  E(RHF) =  -231.101608806     A.U. after    7 cycles

 The electronic state is 1-A.
 Alpha  occ. eigenvalues --  -20.54152 -11.32847 -11.23959 -11.23436 -11.21682
 Alpha  occ. eigenvalues --   -1.38633  -1.05996  -0.99846  -0.87597  -0.73168
 Alpha  occ. eigenvalues --   -0.65676  -0.63737  -0.62172  -0.58036  -0.56978
 Alpha  occ. eigenvalues --   -0.52049  -0.51335  -0.50599  -0.48550  -0.40967
 Alpha virt. eigenvalues --    0.03361   0.04140   0.05031   0.05136   0.06697
 Alpha virt. eigenvalues --    0.07108   0.07212   0.07937   0.08460   0.09457
 Alpha virt. eigenvalues --    0.10182   0.10228   0.13265   0.13957   0.14452

 Mulliken charges:
               1
     1  C   -0.522890
     2  C   -0.298191
     3  C    0.461014
     4  C   -0.560866
     5  O   -0.529976
     6  H    0.164126
     7  H    0.177796
     8  H    0.177798
     9  H    0.174536
    10  H    0.174535
    11  H    0.186756
    12  H    0.208604
    13  H    0.186756
 Sum of Mulliken charges =  -0.00000

 Dipole moment (field-independent basis, Debye):
    X=              0.2406    Y=             -3.2177    Z=              0.0000  Tot=              3.2267
 Quadrupole moment (field-independent basis, Debye-Ang):
   XX=            -30.0546   YY=            -36.0205   ZZ=            -30.8252
   XY=             -1.3278   XZ=              0.0000   YZ=              0.0000

 Normal termination of Gaussian 09 at Tue Aug 23 02:16:58 2022.
