 Gaussian 09, Revision E.01,
 Gaussian 09:  ES64L-G09RevE.01 30-Nov-2015

 -----
 #P G4
 -----

 ---------
 Frag_1101
 ---------
 Symbolic Z-matrix:
 Charge =  0 Multiplicity = 1

 SCF Done:  E(RB3LYP) =  -380.298516286     A.U. after   12 cycles
 SCF Done:  E(RB3LYP) =  -380.305518730     A.U. after   11 cycles
 SCF Done:  E(RB3LYP) =  -380.306375588     A.U. after   10 cycles
 SCF Done:  E(RB3LYP) =  -380.306673320     A.U. after   10 cycles
 SCF Done:  E(RB3LYP) =  -380.306861641     A.U. after   10 cycles
 SCF Done:  E(RB3LYP) =  -380.306950325     A.U. after   10 cycles
 SCF Done:  E(RB3LYP) =  -380.307096096     A.U. after   10 cycles
 SCF Done:  E(RB3LYP) =  -380.307483534     A.U. after   11 cycles
 SCF Done:  E(RB3LYP) =  -380.308206970     A.U. after   12 cycles
 SCF Done:  E(RB3LYP) =  -380.308615092     A.U. after   11 cycles
 SCF Done:  E(RB3LYP) =  -380.309423457     A.U. after    9 cycles
 SCF Done:  E(RB3LYP) =  -380.309425329     A.U. after    7 cycles
 SCF Done:  E(RB3LYP) =  -380.309426031     A.U. after    7 cycles
 Optimization completed.
    -- Stationary point found.
 Normal termination of Gaussian 09 at Fri Aug 26 14:35:36 2022.

 ----------------------------------------------------------
 #P Geom=AllCheck Guess=TCheck SCRF=Check B3LYP/GTBas3 Freq
 ----------------------------------------------------------

 Structure from the checkpoint file:  "G4.Frag_1101.chk"
 ---------
 Frag_1101
 ---------
 Charge =  0 Multiplicity = 1

 SCF Done:  E(RB3LYP) =  -380.309426031     A.U. after    1 cycles

  Exact polarizability:  59.487   1.248  57.433  -0.416  -0.878  51.015
 Approx polarizability:  77.147   0.295  78.917   1.069  -0.729  77.028

                      1                      2                      3
                      A                      A                      A
 Frequencies --     89.4869               183.4208               218.3167
 Red. masses --      2.9558                 1.2110                 1.2421
 Frc consts  --      0.0139                 0.0240                 0.0349
 IR Inten    --      0.8856                 0.3306                 4.5049

                      4                      5                      6
                      A                      A                      A
 Frequencies --    259.7714               270.7920               286.9600
 Red. masses --      1.2514                 1.7345                 1.1278
 Frc consts  --      0.0498                 0.0749                 0.0547
 IR Inten    --     28.6579                 1.2765                79.1378

                      7                      8                      9
                      A                      A                      A
 Frequencies --    328.5430               393.7394               410.6356
 Red. masses --      2.7624                 1.1662                 2.5131
 Frc consts  --      0.1757                 0.1065                 0.2497
 IR Inten    --     11.9575                83.1919                 5.7814

                     10                     11                     12
                      A                      A                      A
 Frequencies --    428.3797               459.1624               536.6675
 Red. masses --      3.5778                 2.4459                 2.8827
 Frc consts  --      0.3868                 0.3038                 0.4892
 IR Inten    --     23.5515                18.6550                12.3410

                     13                     14                     15
                      A                      A                      A
 Frequencies --    580.3885               599.5326               755.1352
 Red. masses --      4.9419                 3.7949                 4.0009
 Frc consts  --      0.9808                 0.8037                 1.3442
 IR Inten    --     15.7328                19.7724                26.9823

                     16                     17                     18
                      A                      A                      A
 Frequencies --    850.9486               933.3813               994.1301
 Red. masses --      1.7798                 3.0860                 2.5470
 Frc consts  --      0.7593                 1.5840                 1.4831
 IR Inten    --    100.9849                85.4374                83.8025

                     19                     20                     21
                      A                      A                      A
 Frequencies --   1020.4088              1064.6711              1121.0311
 Red. masses --      3.2381                 1.5684                 1.2492
 Frc consts  --      1.9865                 1.0474                 0.9249
 IR Inten    --    141.9906                10.1746                 2.0277

                     22                     23                     24
                      A                      A                      A
 Frequencies --   1161.6287              1192.6575              1208.9190
 Red. masses --      1.7110                 1.4595                 2.0162
 Frc consts  --      1.3603                 1.2232                 1.7361
 IR Inten    --    162.7379                 9.3563               119.9618

                     25                     26                     27
                      A                      A                      A
 Frequencies --   1242.0815              1298.2319              1374.0737
 Red. masses --      2.3516                 2.1976                 1.7290
 Frc consts  --      2.1376                 2.1822                 1.9233
 IR Inten    --      6.4163                32.5941               135.8304

                     28                     29                     30
                      A                      A                      A
 Frequencies --   1399.0242              1436.3816              1471.6601
 Red. masses --      1.8032                 1.1797                 1.1892
 Frc consts  --      2.0794                 1.4341                 1.5175
 IR Inten    --     97.8329                10.7123                27.3503

                     31                     32                     33
                      A                      A                      A
 Frequencies --   1481.9513              1501.7755              1507.2758
 Red. masses --      1.0552                 1.0697                 1.0515
 Frc consts  --      1.3653                 1.4214                 1.4075
 IR Inten    --      4.5475                 2.3353                 4.9301

                     34                     35                     36
                      A                      A                      A
 Frequencies --   1525.6399              1632.3215              2963.8846
 Red. masses --      1.0573                 1.1192                 1.0575
 Frc consts  --      1.4499                 1.7570                 5.4735
 IR Inten    --     17.1334                43.4636                51.8833

                     37                     38                     39
                      A                      A                      A
 Frequencies --   2982.3992              3076.0934              3079.2862
 Red. masses --      1.0552                 1.0842                 1.0785
 Frc consts  --      5.5298                 6.0445                 6.0251
 IR Inten    --     61.7245                10.1480                56.2924

                     40                     41                     42
                      A                      A                      A
 Frequencies --   3137.9014              3164.1995              3519.6869
 Red. masses --      1.0985                 1.0954                 1.0486
 Frc consts  --      6.3730                 6.4620                 7.6533
 IR Inten    --     16.9785                11.1802                 4.8100

                     43                     44                     45
                      A                      A                      A
 Frequencies --   3611.0731              3806.4156              3829.9496
 Red. masses --      1.0935                 1.0653                 1.0650
 Frc consts  --      8.4012                 9.0941                 9.2041
 IR Inten    --      5.3183                22.3460                40.2133

 - Thermochemistry -
 -------------------
 Temperature   298.150 Kelvin.  Pressure   1.00000 Atm.
 Atom     1 has atomic number  6 and mass  12.00000

 Molecular mass:   106.07423 amu.
 Principal axes and moments of inertia in atomic units:
                           1         2         3
     Eigenvalues --   529.13199 722.55615 895.67469
           X            0.99908   0.03539  -0.02420
           Y           -0.03607   0.99894  -0.02852
           Z            0.02317   0.02937   0.99930
 This molecule is an asymmetric top.
 Rotational symmetry number  1.
 Warning -- assumption of classical behavior for rotation
           may cause significant error
 Rotational temperatures (Kelvin)      0.16369     0.11987     0.09670
 Rotational constants (GHZ):           3.41076     2.49772     2.01495
 Zero-point vibrational energy     385137.8 (Joules/Mol)
                                   92.05015 (Kcal/Mol)
 Warning -- explicit consideration of  14 degrees of freedom as
           vibrations may cause significant error
 Vibrational temperatures:    128.75   263.90   314.11   373.75   389.61
          (Kelvin)            412.87   472.70   566.50   590.81   616.34
                              660.63   772.14   835.05   862.59  1086.47
                             1224.32  1342.93  1430.33  1468.14  1531.82
                             1612.91  1671.32  1715.97  1739.36  1787.08
                             1867.86  1976.98  2012.88  2066.63  2117.39
                             2132.19  2160.72  2168.63  2195.05  2348.54
                             4264.36  4291.00  4425.81  4430.40  4514.73
                             4552.57  5064.04  5195.52  5476.58  5510.44

 Zero-point correction=                           0.146691 (Hartree/Particle)
 Thermal correction to Energy=                    0.155291
 Thermal correction to Enthalpy=                  0.156236
 Thermal correction to Gibbs Free Energy=         0.114715
 Sum of electronic and zero-point Energies=           -380.162735
 Sum of electronic and thermal Energies=              -380.154135
 Sum of electronic and thermal Enthalpies=            -380.153190
 Sum of electronic and thermal Free Energies=         -380.194711

                     E (Thermal)             CV                S
                      KCal/Mol        Cal/Mol-Kelvin    Cal/Mol-Kelvin
 Total                   97.447             32.115             87.387
 Electronic               0.000              0.000              0.000
 Translational            0.889              2.981             39.894
 Rotational               0.889              2.981             27.329
 Vibrational             95.669             26.154             20.165
 Vibration     1          0.602              1.957              3.671
 Vibration     2          0.631              1.862              2.293
 Vibration     3          0.646              1.813              1.973
 Vibration     4          0.668              1.746              1.663
 Vibration     5          0.674              1.727              1.591
 Vibration     6          0.684              1.698              1.492
 Vibration     7          0.712              1.618              1.267
 Vibration     8          0.761              1.484              0.986
 Vibration     9          0.775              1.447              0.924
 Vibration    10          0.790              1.408              0.864
 Vibration    11          0.817              1.341              0.769
 Vibration    12          0.892              1.169              0.573
 Vibration    13          0.937              1.074              0.485
 Vibration    14          0.958              1.033              0.450

 Normal termination of Gaussian 09 at Fri Aug 26 14:36:27 2022.

 -----------------------------------------------------------------
 #P Geom=AllCheck Guess=TCheck SCRF=Check CCSD(T,E4T,FrzG4)/GTBas1
 -----------------------------------------------------------------

 Structure from the checkpoint file:  "G4.Frag_1101.chk"
 ---------
 Frag_1101
 ---------
 Charge =  0 Multiplicity = 1

 SCF Done:  E(RHF) =  -378.024572049     A.U. after   12 cycles
 E2 =    -0.1082147192D+01 EUMP2 =    -0.37910671924122D+03
 CCSD(T)
 CCSD(T)= -0.37919260919D+03
 614174\CCSD=-379.161822\CCSD(T)=-379.1926092\RMSD=1.973e-09\PG=C01 [X(
 Normal termination of Gaussian 09 at Fri Aug 26 14:40:48 2022.

 ---------------------------------------------------------
 #P Geom=AllCheck Guess=TCheck SCRF=Check MP4=FrzG4/GTBas2
 ---------------------------------------------------------

 Structure from the checkpoint file:  "G4.Frag_1101.chk"
 ---------
 Frag_1101
 ---------
 Charge =  0 Multiplicity = 1

 SCF Done:  E(RHF) =  -378.036899733     A.U. after   11 cycles
 E2 =    -0.1102287515D+01 EUMP2 =    -0.37913918724815D+03
 Normal termination of Gaussian 09 at Fri Aug 26 14:42:14 2022.

 ---------------------------------------------------------
 #P Geom=AllCheck Guess=TCheck SCRF=Check MP4=FrzG4/GTBas3
 ---------------------------------------------------------

 Structure from the checkpoint file:  "G4.Frag_1101.chk"
 ---------
 Frag_1101
 ---------
 Charge =  0 Multiplicity = 1

 SCF Done:  E(RHF) =  -378.078442953     A.U. after   11 cycles
 E2 =    -0.1340956925D+01 EUMP2 =    -0.37941939987798D+03
 Normal termination of Gaussian 09 at Fri Aug 26 14:53:54 2022.

 -----------------------------------------------------------
 #P Geom=AllCheck Guess=TCheck SCRF=Check MP2=Full/GTLargeXP
 -----------------------------------------------------------

 Structure from the checkpoint file:  "G4.Frag_1101.chk"
 ---------
 Frag_1101
 ---------
 Charge =  0 Multiplicity = 1

 SCF Done:  E(RHF) =  -378.180236441     A.U. after   11 cycles
 E2 =    -0.1745662492D+01 EUMP2 =    -0.37992589893348D+03
 Normal termination of Gaussian 09 at Fri Aug 26 14:58:03 2022.
 SCF Done:  E(RHF) =  -378.209928854     A.U. after    8 cycles
 Normal termination of Gaussian 09 at Fri Aug 26 15:01:29 2022.

                         Standard orientation:
 ---------------------------------------------------------------------
 Center     Atomic      Atomic             Coordinates (Angstroms)
 Number     Number       Type             X           Y           Z
 ---------------------------------------------------------------------
      1          6           0       -1.525542   -1.152399   -0.054540
      2          7           0       -0.782825    0.055178   -0.413927
      3          6           0       -1.503318    1.241292    0.055875
      4          6           0        0.615976    0.008932   -0.003129
      5          7           0        1.245855    1.251601   -0.359241
      6          8           0        1.213236   -1.140761   -0.597909
      7          8           0        0.832743   -0.144880    1.376566
      8          1           0       -1.699703   -1.235258    1.031935
      9          1           0       -0.991473   -2.043219   -0.386912
     10          1           0       -2.501238   -1.129131   -0.548529
     11          1           0       -1.615526    1.253734    1.151997
     12          1           0       -2.501870    1.241433   -0.392093
     13          1           0       -0.979768    2.147048   -0.243122
     14          1           0        2.222698    1.197779   -0.093526
     15          1           0        1.187074    1.388527   -1.362528
     16          1           0        0.891288   -1.176973   -1.506003
     17          1           0        0.856770   -1.093215    1.542465
 ---------------------------------------------------------------------

 SCF Done:  E(RHF) =  -378.216611265     A.U. after    7 cycles

 The electronic state is 1-A.
 Alpha  occ. eigenvalues --  -20.56742 -20.56143 -15.55592 -15.54528 -11.39589
 Alpha  occ. eigenvalues --  -11.24628 -11.23699  -1.43549  -1.33732  -1.22622
 Alpha  occ. eigenvalues --   -1.16779  -0.94877  -0.91233  -0.81075  -0.74001
 Alpha  occ. eigenvalues --   -0.71447  -0.67117  -0.63452  -0.61568  -0.60845
 Alpha  occ. eigenvalues --   -0.56792  -0.55945  -0.53932  -0.53209  -0.51441
 Alpha  occ. eigenvalues --   -0.50937  -0.47761  -0.41899  -0.37666
 Alpha virt. eigenvalues --    0.03515   0.04233   0.04276   0.04750   0.06367
 Alpha virt. eigenvalues --    0.06887   0.07255   0.07663   0.08190   0.09791
 Alpha virt. eigenvalues --    0.10975   0.11760   0.12727   0.13472   0.13894

 Mulliken charges:
               1
     1  C   -0.554384
     2  N   -0.023562
     3  C   -0.514495
     4  C    0.668264
     5  N   -0.737051
     6  O   -0.626976
     7  O   -0.635094
     8  H    0.155350
     9  H    0.190043
    10  H    0.177357
    11  H    0.166671
    12  H    0.164649
    13  H    0.195792
    14  H    0.309080
    15  H    0.293127
    16  H    0.383306
    17  H    0.387922
 Sum of Mulliken charges =  -0.00000

 Dipole moment (field-independent basis, Debye):
    X=             -0.6961    Y=             -0.9492    Z=             -1.6430  Tot=              2.0211
 Quadrupole moment (field-independent basis, Debye-Ang):
   XX=            -42.2042   YY=            -43.7935   ZZ=            -42.1618
   XY=              1.5520   XZ=             -2.3227   YZ=             -2.6319

 Normal termination of Gaussian 09 at Fri Aug 26 15:12:43 2022.
