 Gaussian 09, Revision E.01,
 Gaussian 09:  ES64L-G09RevE.01 30-Nov-2015

 -----
 #P G4
 -----

 ---------
 Frag_1036
 ---------
 Symbolic Z-matrix:
 Charge =  0 Multiplicity = 1

 SCF Done:  E(RB3LYP) =  -378.991048129     A.U. after   15 cycles
 SCF Done:  E(RB3LYP) =  -379.022493727     A.U. after   13 cycles
 SCF Done:  E(RB3LYP) =  -379.029071557     A.U. after   13 cycles
 SCF Done:  E(RB3LYP) =  -379.030559941     A.U. after   13 cycles
 SCF Done:  E(RB3LYP) =  -379.030745897     A.U. after   14 cycles
 SCF Done:  E(RB3LYP) =  -379.031202150     A.U. after   14 cycles
 SCF Done:  E(RB3LYP) =  -379.031854777     A.U. after   13 cycles
 SCF Done:  E(RB3LYP) =  -379.032990536     A.U. after   15 cycles
 SCF Done:  E(RB3LYP) =  -379.034511231     A.U. after   15 cycles
 SCF Done:  E(RB3LYP) =  -379.035766684     A.U. after   14 cycles
 SCF Done:  E(RB3LYP) =  -379.037276488     A.U. after   12 cycles
 SCF Done:  E(RB3LYP) =  -379.037283188     A.U. after   11 cycles
 SCF Done:  E(RB3LYP) =  -379.037283932     A.U. after    9 cycles
 Optimization completed.
    -- Stationary point found.
 Normal termination of Gaussian 09 at Tue Aug 23 18:31:10 2022.

 ----------------------------------------------------------
 #P Geom=AllCheck Guess=TCheck SCRF=Check B3LYP/GTBas3 Freq
 ----------------------------------------------------------

 Structure from the checkpoint file:  "G4.Frag_1036.chk"
 ---------
 Frag_1036
 ---------
 Charge =  0 Multiplicity = 1

 SCF Done:  E(RB3LYP) =  -379.037283932     A.U. after    1 cycles

  Exact polarizability:  61.714  -4.315  59.345  -0.304   0.343  46.261
 Approx polarizability:  84.913  -5.840 113.088   0.158   3.915  63.023

                      1                      2                      3
                      A                      A                      A
 Frequencies --     57.4890               193.1785               236.3538
 Red. masses --      5.8278                 1.0528                 1.2529
 Frc consts  --      0.0113                 0.0231                 0.0412
 IR Inten    --      9.9274                 1.5314                12.2522

                      4                      5                      6
                      A                      A                      A
 Frequencies --    253.4393               282.5432               319.1258
 Red. masses --      1.6378                 2.0666                 1.8828
 Frc consts  --      0.0620                 0.0972                 0.1130
 IR Inten    --     10.3226                21.3831                61.0334

                      7                      8                      9
                      A                      A                      A
 Frequencies --    350.1638               422.6479               447.2952
 Red. masses --      2.8360                 4.5396                 2.4216
 Frc consts  --      0.2049                 0.4778                 0.2855
 IR Inten    --      2.9552                10.8954                 4.1650

                     10                     11                     12
                      A                      A                      A
 Frequencies --    523.7360               591.0104               695.9985
 Red. masses --      4.2971                 3.4886                 3.0793
 Frc consts  --      0.6945                 0.7180                 0.8788
 IR Inten    --      2.7577                30.6543                 6.6231

                     13                     14                     15
                      A                      A                      A
 Frequencies --    760.9979               842.6231               897.8001
 Red. masses --      3.4592                 3.0537                 1.4532
 Frc consts  --      1.1803                 1.2775                 0.6901
 IR Inten    --     31.3944                 0.1705                60.9053

                     16                     17                     18
                      A                      A                      A
 Frequencies --    938.0470              1009.3845              1018.8680
 Red. masses --      1.4822                 1.5713                 1.5580
 Frc consts  --      0.7685                 0.9432                 0.9529
 IR Inten    --      1.0921                24.2806                14.1392

                     19                     20                     21
                      A                      A                      A
 Frequencies --   1134.6163              1216.5890              1256.7795
 Red. masses --      1.5933                 2.9052                 3.1720
 Frc consts  --      1.2085                 2.5334                 2.9519
 IR Inten    --     12.5708                46.8081                69.2062

                     22                     23                     24
                      A                      A                      A
 Frequencies --   1272.5213              1387.6402              1402.7866
 Red. masses --      3.2715                 1.2586                 1.2508
 Frc consts  --      3.1212                 1.4279                 1.4502
 IR Inten    --    138.5844                16.4704                37.4514

                     25                     26                     27
                      A                      A                      A
 Frequencies --   1414.1264              1474.5669              1479.0224
 Red. masses --      1.5162                 1.0558                 1.0472
 Frc consts  --      1.7865                 1.3526                 1.3497
 IR Inten    --     52.8465                 1.4052                 0.4775

                     28                     29                     30
                      A                      A                      A
 Frequencies --   1493.3999              1501.5356              1510.1008
 Red. masses --      1.1840                 1.1913                 1.4509
 Frc consts  --      1.5558                 1.5825                 1.9494
 IR Inten    --      1.0071                16.2454                16.4742

                     31                     32                     33
                      A                      A                      A
 Frequencies --   1613.1559              3053.3026              3064.0857
 Red. masses --     12.2937                 1.0341                 1.0353
 Frc consts  --     18.8489                 5.6802                 5.7270
 IR Inten    --    211.9706                 8.9598                 6.0091

                     34                     35                     36
                      A                      A                      A
 Frequencies --   3131.2890              3137.5841              3146.9086
 Red. masses --      1.1021                 1.1024                 1.1033
 Frc consts  --      6.3670                 6.3942                 6.4373
 IR Inten    --     11.4737                12.1069                 6.5551

                     37                     38                     39
                      A                      A                      A
 Frequencies --   3166.2364              3430.9779              3689.7778
 Red. masses --      1.1021                 1.0722                 1.0640
 Frc consts  --      6.5099                 7.4363                 8.5348
 IR Inten    --      6.0872                 5.5952                95.7666

 - Thermochemistry -
 -------------------
 Temperature   298.150 Kelvin.  Pressure   1.00000 Atm.
 Atom     1 has atomic number  6 and mass  12.00000

 Molecular mass:   104.05858 amu.
 Principal axes and moments of inertia in atomic units:
                           1         2         3
     Eigenvalues --   517.32184 715.40446 837.51813
           X            0.99319  -0.11626  -0.00705
           Y            0.11568   0.99170  -0.05616
           Z            0.01352   0.05496   0.99840
 This molecule is an asymmetric top.
 Rotational symmetry number  1.
 Warning -- assumption of classical behavior for rotation
           may cause significant error
 Rotational temperatures (Kelvin)      0.16743     0.12107     0.10342
 Rotational constants (GHZ):           3.48862     2.52269     2.15487
 Zero-point vibrational energy     321901.4 (Joules/Mol)
                                   76.93627 (Kcal/Mol)
 Warning -- explicit consideration of  11 degrees of freedom as
           vibrations may cause significant error
 Vibrational temperatures:     82.71   277.94   340.06   364.64   406.52
          (Kelvin)            459.15   503.81   608.10   643.56   753.54
                              850.33  1001.39  1094.90  1212.35  1291.73
                             1349.64  1452.28  1465.92  1632.46  1750.40
                             1808.22  1830.87  1996.50  2018.29  2034.61
                             2121.57  2127.98  2148.67  2160.37  2172.70
                             2320.97  4393.02  4408.53  4505.22  4514.28
                             4527.69  4555.50  4936.41  5308.76

 Zero-point correction=                           0.122606 (Hartree/Particle)
 Thermal correction to Energy=                    0.130500
 Thermal correction to Enthalpy=                  0.131444
 Thermal correction to Gibbs Free Energy=         0.090803
 Sum of electronic and zero-point Energies=           -378.914678
 Sum of electronic and thermal Energies=              -378.906784
 Sum of electronic and thermal Enthalpies=            -378.905840
 Sum of electronic and thermal Free Energies=         -378.946481

                     E (Thermal)             CV                S
                      KCal/Mol        Cal/Mol-Kelvin    Cal/Mol-Kelvin
 Total                   81.890             28.628             85.537
 Electronic               0.000              0.000              0.000
 Translational            0.889              2.981             39.837
 Rotational               0.889              2.981             27.230
 Vibrational             80.112             22.666             18.471
 Vibration     1          0.596              1.975              4.542
 Vibration     2          0.635              1.849              2.197
 Vibration     3          0.655              1.785              1.830
 Vibration     4          0.665              1.757              1.707
 Vibration     5          0.682              1.706              1.518
 Vibration     6          0.705              1.637              1.315
 Vibration     7          0.727              1.575              1.165
 Vibration     8          0.785              1.421              0.883
 Vibration     9          0.806              1.367              0.804
 Vibration    10          0.879              1.197              0.601
 Vibration    11          0.948              1.051              0.465

 Normal termination of Gaussian 09 at Tue Aug 23 18:35:11 2022.

 -----------------------------------------------------------------
 #P Geom=AllCheck Guess=TCheck SCRF=Check CCSD(T,E4T,FrzG4)/GTBas1
 -----------------------------------------------------------------

 Structure from the checkpoint file:  "G4.Frag_1036.chk"
 ---------
 Frag_1036
 ---------
 Charge =  0 Multiplicity = 1

 SCF Done:  E(RHF) =  -376.771202906     A.U. after   14 cycles
 E2 =    -0.1102428259D+01 EUMP2 =    -0.37787363116496D+03
 CCSD(T)
 CCSD(T)= -0.37795079994D+03
 77.9103212\CCSD(T)=-377.9507999\RMSD=3.910e-09\PG=C01 [X(C3H8N2O2)]\\@
 Normal termination of Gaussian 09 at Tue Aug 23 18:49:27 2022.

 ---------------------------------------------------------
 #P Geom=AllCheck Guess=TCheck SCRF=Check MP4=FrzG4/GTBas2
 ---------------------------------------------------------

 Structure from the checkpoint file:  "G4.Frag_1036.chk"
 ---------
 Frag_1036
 ---------
 Charge =  0 Multiplicity = 1

 SCF Done:  E(RHF) =  -376.782787173     A.U. after   14 cycles
 E2 =    -0.1119030842D+01 EUMP2 =    -0.37790181801495D+03
 Normal termination of Gaussian 09 at Tue Aug 23 19:07:32 2022.

 ---------------------------------------------------------
 #P Geom=AllCheck Guess=TCheck SCRF=Check MP4=FrzG4/GTBas3
 ---------------------------------------------------------

 Structure from the checkpoint file:  "G4.Frag_1036.chk"
 ---------
 Frag_1036
 ---------
 Charge =  0 Multiplicity = 1

 SCF Done:  E(RHF) =  -376.818263547     A.U. after   12 cycles
 E2 =    -0.1343024231D+01 EUMP2 =    -0.37816128777867D+03
 Normal termination of Gaussian 09 at Tue Aug 23 23:06:35 2022.

 -----------------------------------------------------------
 #P Geom=AllCheck Guess=TCheck SCRF=Check MP2=Full/GTLargeXP
 -----------------------------------------------------------

 Structure from the checkpoint file:  "G4.Frag_1036.chk"
 ---------
 Frag_1036
 ---------
 Charge =  0 Multiplicity = 1

 SCF Done:  E(RHF) =  -376.917309251     A.U. after   13 cycles
 E2 =    -0.1742351611D+01 EUMP2 =    -0.37865966086220D+03
 Normal termination of Gaussian 09 at Tue Aug 23 23:17:27 2022.
 SCF Done:  E(RHF) =  -376.947799806     A.U. after   10 cycles
 Normal termination of Gaussian 09 at Tue Aug 23 23:27:30 2022.

                         Standard orientation:
 ---------------------------------------------------------------------
 Center     Atomic      Atomic             Coordinates (Angstroms)
 Number     Number       Type             X           Y           Z
 ---------------------------------------------------------------------
      1          6           0        1.198272   -0.863304    1.031744
      2          6           0        0.593235    0.098016    0.016310
      3          6           0        1.019619   -0.195750   -1.426298
      4          8           0        0.881453    1.402933    0.393436
      5          7           0       -0.943272   -0.102585    0.033691
      6          7           0       -1.619838    0.964921    0.095549
      7          8           0       -1.366988   -1.260908   -0.065663
      8          1           0        0.940827   -1.894820    0.793050
      9          1           0        2.283912   -0.742093    1.013933
     10          1           0        0.840690   -0.619130    2.034698
     11          1           0        2.105264   -0.095422   -1.493105
     12          1           0        0.728090   -1.204744   -1.724251
     13          1           0        0.562998    0.528177   -2.106933
     14          1           0        0.102365    1.937425    0.170810
     15          1           0       -2.604848    0.684286    0.054400
 ---------------------------------------------------------------------

 SCF Done:  E(RHF) =  -376.954151986     A.U. after    8 cycles

 The electronic state is 1-A.
 Alpha  occ. eigenvalues --  -20.57457 -20.57057 -15.79550 -15.61734 -11.36101
 Alpha  occ. eigenvalues --  -11.23774 -11.23274  -1.53610  -1.40195  -1.28007
 Alpha  occ. eigenvalues --   -1.09231  -0.96715  -0.94656  -0.79592  -0.76226
 Alpha  occ. eigenvalues --   -0.73493  -0.69061  -0.63944  -0.62953  -0.58858
 Alpha  occ. eigenvalues --   -0.58037  -0.55679  -0.55533  -0.53288  -0.50691
 Alpha  occ. eigenvalues --   -0.47180  -0.45031  -0.40936
 Alpha virt. eigenvalues --    0.03470   0.04154   0.04769   0.05515   0.06475
 Alpha virt. eigenvalues --    0.06804   0.07339   0.07608   0.08631   0.09390
 Alpha virt. eigenvalues --    0.10500   0.10938   0.11417   0.11941   0.13925

 Mulliken charges:
               1
     1  C   -0.550954
     2  C    0.465493
     3  C   -0.579798
     4  O   -0.591584
     5  N    0.436952
     6  N   -0.561576
     7  O   -0.548227
     8  H    0.217094
     9  H    0.191516
    10  H    0.185333
    11  H    0.188440
    12  H    0.212127
    13  H    0.185006
    14  H    0.409163
    15  H    0.341016
 Sum of Mulliken charges =  -0.00000

 Dipole moment (field-independent basis, Debye):
    X=              0.5383    Y=              0.4130    Z=             -0.7153  Tot=              0.9859
 Quadrupole moment (field-independent basis, Debye-Ang):
   XX=            -40.8618   YY=            -46.7980   ZZ=            -41.7723
   XY=             -6.0930   XZ=             -1.0157   YZ=             -1.6617

 Normal termination of Gaussian 09 at Wed Aug 24 03:37:19 2022.
