 Gaussian 09, Revision E.01,
 Gaussian 09:  ES64L-G09RevE.01 30-Nov-2015

 -----
 #P G4
 -----

 --------
 Frag_587
 --------
 Symbolic Z-matrix:
 Charge =  0 Multiplicity = 1

 SCF Done:  E(RB3LYP) =  -344.391502961     A.U. after   12 cycles
 SCF Done:  E(RB3LYP) =  -344.397699215     A.U. after   11 cycles
 SCF Done:  E(RB3LYP) =  -344.398113667     A.U. after   10 cycles
 SCF Done:  E(RB3LYP) =  -344.398237618     A.U. after   11 cycles
 SCF Done:  E(RB3LYP) =  -344.398317565     A.U. after   10 cycles
 SCF Done:  E(RB3LYP) =  -344.398338841     A.U. after    9 cycles
 SCF Done:  E(RB3LYP) =  -344.398342133     A.U. after    7 cycles
 SCF Done:  E(RB3LYP) =  -344.398343102     A.U. after    7 cycles
 SCF Done:  E(RB3LYP) =  -344.398343719     A.U. after    7 cycles
 SCF Done:  E(RB3LYP) =  -344.398344357     A.U. after    7 cycles
 SCF Done:  E(RB3LYP) =  -344.398344964     A.U. after    7 cycles
 SCF Done:  E(RB3LYP) =  -344.398345125     A.U. after    6 cycles
 Optimization completed.
    -- Stationary point found.
 Normal termination of Gaussian 09 at Fri Aug 19 10:34:13 2022.

 ----------------------------------------------------------
 #P Geom=AllCheck Guess=TCheck SCRF=Check B3LYP/GTBas3 Freq
 ----------------------------------------------------------

 Structure from the checkpoint file:  "G4.Frag_587.chk"
 --------
 Frag_587
 --------
 Charge =  0 Multiplicity = 1

 SCF Done:  E(RB3LYP) =  -344.398345125     A.U. after    1 cycles

  Exact polarizability:  65.033  -0.845  63.735  -0.252   0.650  60.948
 Approx polarizability:  87.140   0.492  91.491  -1.300  -0.573  88.654

                      1                      2                      3
                      A                      A                      A
 Frequencies --     94.6796               193.1963               220.3582
 Red. masses --      3.0623                 1.0546                 1.0723
 Frc consts  --      0.0162                 0.0232                 0.0307
 IR Inten    --      1.3144                30.3455                58.4246

                      4                      5                      6
                      A                      A                      A
 Frequencies --    249.5447               266.9748               278.3174
 Red. masses --      1.4464                 1.8303                 2.8322
 Frc consts  --      0.0531                 0.0769                 0.1293
 IR Inten    --     32.9784                 4.4800                 3.7415

                      7                      8                      9
                      A                      A                      A
 Frequencies --    309.4473               341.3575               356.4298
 Red. masses --      1.1139                 2.0169                 2.1801
 Frc consts  --      0.0628                 0.1385                 0.1632
 IR Inten    --     30.9759                17.3981                16.1838

                     10                     11                     12
                      A                      A                      A
 Frequencies --    392.0047               430.7745               476.7752
 Red. masses --      1.5064                 2.9232                 2.6442
 Frc consts  --      0.1364                 0.3196                 0.3541
 IR Inten    --     38.8666                 7.0910                15.9103

                     13                     14                     15
                      A                      A                      A
 Frequencies --    517.7986               569.9882               716.6536
 Red. masses --      2.5872                 2.4369                 2.7913
 Frc consts  --      0.4087                 0.4665                 0.8446
 IR Inten    --     11.2569                14.7776                25.1262

                     16                     17                     18
                      A                      A                      A
 Frequencies --    860.9120               881.2859               890.8507
 Red. masses --      1.6502                 2.0312                 1.8641
 Frc consts  --      0.7206                 0.9295                 0.8716
 IR Inten    --    152.5377                19.4108               106.7766

                     19                     20                     21
                      A                      A                      A
 Frequencies --    934.5635               966.2171              1001.9632
 Red. masses --      1.4606                 2.2218                 1.3561
 Frc consts  --      0.7516                 1.2221                 0.8021
 IR Inten    --      1.5349                36.8517                 4.7356

                     22                     23                     24
                      A                      A                      A
 Frequencies --   1027.5109              1077.4378              1129.2487
 Red. masses --      1.4935                 1.8062                 2.3288
 Frc consts  --      0.9290                 1.2354                 1.7497
 IR Inten    --     39.7745                45.8896                16.2066

                     25                     26                     27
                      A                      A                      A
 Frequencies --   1146.5148              1207.6813              1254.3612
 Red. masses --      1.3861                 2.3327                 2.4967
 Frc consts  --      1.0735                 2.0045                 2.3145
 IR Inten    --     32.9009                55.9255                 5.0120

                     28                     29                     30
                      A                      A                      A
 Frequencies --   1287.1492              1354.2261              1388.7276
 Red. masses --      1.6869                 1.4592                 1.2827
 Frc consts  --      1.6467                 1.5767                 1.4576
 IR Inten    --      7.0259                27.9280                 6.2553

                     31                     32                     33
                      A                      A                      A
 Frequencies --   1406.3861              1414.3916              1424.1913
 Red. masses --      1.5057                 1.2668                 1.2568
 Frc consts  --      1.7546                 1.4932                 1.5019
 IR Inten    --     13.8702                16.6757                14.1631

                     34                     35                     36
                      A                      A                      A
 Frequencies --   1483.1794              1486.7215              1504.1749
 Red. masses --      1.0491                 1.0596                 1.0629
 Frc consts  --      1.3597                 1.3799                 1.4170
 IR Inten    --      0.4832                 1.0259                 5.2432

                     37                     38                     39
                      A                      A                      A
 Frequencies --   1507.5012              1642.3051              1665.8182
 Red. masses --      1.0571                 1.1012                 1.0913
 Frc consts  --      1.4153                 1.7499                 1.7843
 IR Inten    --      3.1914                19.4498                27.2105

                     40                     41                     42
                      A                      A                      A
 Frequencies --   3021.6315              3037.8044              3047.0194
 Red. masses --      1.0423                 1.0821                 1.0393
 Frc consts  --      5.6070                 5.8835                 5.6851
 IR Inten    --     27.7884                18.7035                21.0980

                     43                     44                     45
                      A                      A                      A
 Frequencies --   3092.4084              3112.1379              3120.0165
 Red. masses --      1.0919                 1.1017                 1.1017
 Frc consts  --      6.1519                 6.2866                 6.3186
 IR Inten    --     24.3956                24.2810                17.6001

                     46                     47                     48
                      A                      A                      A
 Frequencies --   3145.4091              3470.7823              3484.8494
 Red. masses --      1.1005                 1.0480                 1.0494
 Frc consts  --      6.4147                 7.4382                 7.5085
 IR Inten    --     13.1131                 1.8639                 0.3977

                     49                     50                     51
                      A                      A                      A
 Frequencies --   3558.2653              3566.5499              3807.1752
 Red. masses --      1.0909                 1.0925                 1.0656
 Frc consts  --      8.1382                 8.1878                 9.1005
 IR Inten    --      0.6940                 0.1212                 6.4836

 - Thermochemistry -
 -------------------
 Temperature   298.150 Kelvin.  Pressure   1.00000 Atm.
 Atom     1 has atomic number  6 and mass  12.00000

 Molecular mass:   104.09496 amu.
 Principal axes and moments of inertia in atomic units:
                           1         2         3
     Eigenvalues --   571.35973 802.69362 951.13974
           X            0.99829  -0.05849   0.00090
           Y            0.05838   0.99716   0.04752
           Z           -0.00368  -0.04738   0.99887
 This molecule is an asymmetric top.
 Rotational symmetry number  1.
 Warning -- assumption of classical behavior for rotation
           may cause significant error
 Rotational temperatures (Kelvin)      0.15159     0.10790     0.09106
 Rotational constants (GHZ):           3.15868     2.24836     1.89745
 Zero-point vibrational energy     447533.0 (Joules/Mol)
                                  106.96294 (Kcal/Mol)
 Warning -- explicit consideration of  14 degrees of freedom as
           vibrations may cause significant error
 Vibrational temperatures:    136.22   277.97   317.05   359.04   384.12
          (Kelvin)            400.44   445.23   491.14   512.82   564.01
                              619.79   685.97   745.00   820.08  1031.10
                             1238.66  1267.97  1281.73  1344.63  1390.17
                             1441.60  1478.36  1550.19  1624.74  1649.58
                             1737.58  1804.74  1851.92  1948.43  1998.07
                             2023.47  2034.99  2049.09  2133.96  2139.06
                             2164.17  2168.96  2362.91  2396.74  4347.45
                             4370.72  4383.98  4449.28  4477.67  4489.00
                             4525.54  4993.68  5013.91  5119.54  5131.46
                             5477.67

 Zero-point correction=                           0.170456 (Hartree/Particle)
 Thermal correction to Energy=                    0.179511
 Thermal correction to Enthalpy=                  0.180455
 Thermal correction to Gibbs Free Energy=         0.138173
 Sum of electronic and zero-point Energies=           -344.227889
 Sum of electronic and thermal Energies=              -344.218834
 Sum of electronic and thermal Enthalpies=            -344.217890
 Sum of electronic and thermal Free Energies=         -344.260172

                     E (Thermal)             CV                S
                      KCal/Mol        Cal/Mol-Kelvin    Cal/Mol-Kelvin
 Total                  112.645             34.332             88.989
 Electronic               0.000              0.000              0.000
 Translational            0.889              2.981             39.838
 Rotational               0.889              2.981             27.569
 Vibrational            110.867             28.370             21.582
 Vibration     1          0.603              1.953              3.561
 Vibration     2          0.635              1.849              2.197
 Vibration     3          0.647              1.810              1.956
 Vibration     4          0.662              1.764              1.734
 Vibration     5          0.672              1.734              1.616
 Vibration     6          0.679              1.714              1.544
 Vibration     7          0.699              1.656              1.365
 Vibration     8          0.721              1.593              1.206
 Vibration     9          0.732              1.562              1.138
 Vibration    10          0.759              1.487              0.993
 Vibration    11          0.792              1.403              0.856
 Vibration    12          0.833              1.302              0.719
 Vibration    13          0.873              1.211              0.615
 Vibration    14          0.926              1.096              0.504

 Optimization completed.
    -- Stationary point found.
 Normal termination of Gaussian 09 at Fri Aug 19 10:42:06 2022.

 -----------------------------------------------------------------
 #P Geom=AllCheck Guess=TCheck SCRF=Check CCSD(T,E4T,FrzG4)/GTBas1
 -----------------------------------------------------------------

 Structure from the checkpoint file:  "G4.Frag_587.chk"
 --------
 Frag_587
 --------
 Charge =  0 Multiplicity = 1

 SCF Done:  E(RHF) =  -342.194193653     A.U. after   11 cycles
 E2 =    -0.1039932107D+01 EUMP2 =    -0.34323412576032D+03
 CCSD(T)
 CCSD(T)= -0.34333175394D+03
 43.3307902\MP4SDQ=-343.3003062\CCSD=-343.3011984\CCSD(T)=-343.3317539\
 Normal termination of Gaussian 09 at Fri Aug 19 11:00:44 2022.

 ---------------------------------------------------------
 #P Geom=AllCheck Guess=TCheck SCRF=Check MP4=FrzG4/GTBas2
 ---------------------------------------------------------

 Structure from the checkpoint file:  "G4.Frag_587.chk"
 --------
 Frag_587
 --------
 Charge =  0 Multiplicity = 1

 SCF Done:  E(RHF) =  -342.206395531     A.U. after   12 cycles
 E2 =    -0.1057601283D+01 EUMP2 =    -0.34326399681326D+03
 Normal termination of Gaussian 09 at Fri Aug 19 11:27:06 2022.

 ---------------------------------------------------------
 #P Geom=AllCheck Guess=TCheck SCRF=Check MP4=FrzG4/GTBas3
 ---------------------------------------------------------

 Structure from the checkpoint file:  "G4.Frag_587.chk"
 --------
 Frag_587
 --------
 Charge =  0 Multiplicity = 1

 SCF Done:  E(RHF) =  -342.245937179     A.U. after   10 cycles
 E2 =    -0.1290131874D+01 EUMP2 =    -0.34353606905270D+03
 Normal termination of Gaussian 09 at Fri Aug 19 17:43:32 2022.

 -----------------------------------------------------------
 #P Geom=AllCheck Guess=TCheck SCRF=Check MP2=Full/GTLargeXP
 -----------------------------------------------------------

 Structure from the checkpoint file:  "G4.Frag_587.chk"
 --------
 Frag_587
 --------
 Charge =  0 Multiplicity = 1

 SCF Done:  E(RHF) =  -342.334234587     A.U. after   12 cycles
 E2 =    -0.1684903722D+01 EUMP2 =    -0.34401913830918D+03
 Normal termination of Gaussian 09 at Fri Aug 19 17:59:12 2022.
 SCF Done:  E(RHF) =  -342.361062151     A.U. after    8 cycles
 Normal termination of Gaussian 09 at Fri Aug 19 18:10:30 2022.

                         Standard orientation:
 ---------------------------------------------------------------------
 Center     Atomic      Atomic             Coordinates (Angstroms)
 Number     Number       Type             X           Y           Z
 ---------------------------------------------------------------------
      1          6           0        1.478877   -1.005281   -0.741526
      2          6           0        0.633309    0.041152   -0.016506
      3          6           0        0.819245   -0.061101    1.503968
      4          8           0        1.119764    1.309702   -0.474768
      5          6           0       -0.862694   -0.091392   -0.445865
      6          7           0       -1.716660    1.058270   -0.112561
      7          7           0       -1.421420   -1.344278    0.042564
      8          1           0        1.440760   -0.829648   -1.820783
      9          1           0        1.098878   -2.007650   -0.537519
     10          1           0        2.523998   -0.939153   -0.425781
     11          1           0        0.587252   -1.063369    1.875378
     12          1           0        1.858717    0.162071    1.759242
     13          1           0        0.185099    0.656989    2.040028
     14          1           0        0.725934    1.988722    0.082834
     15          1           0       -0.856098   -0.140920   -1.541439
     16          1           0       -1.383557    1.894665   -0.583465
     17          1           0       -1.710957    1.244088    0.887651
     18          1           0       -1.500971   -1.315141    1.055899
     19          1           0       -2.373025   -1.426485   -0.304344
 ---------------------------------------------------------------------

 SCF Done:  E(RHF) =  -342.367048986     A.U. after    8 cycles

 The electronic state is 1-A.
 Alpha  occ. eigenvalues --  -20.55383 -15.54566 -15.54202 -11.28593 -11.28219
 Alpha  occ. eigenvalues --  -11.22326 -11.20482  -1.36430  -1.22382  -1.12831
 Alpha  occ. eigenvalues --   -1.04361  -0.94376  -0.87938  -0.76811  -0.70828
 Alpha  occ. eigenvalues --   -0.66953  -0.64724  -0.63133  -0.62152  -0.58445
 Alpha  occ. eigenvalues --   -0.55215  -0.53315  -0.52879  -0.51880  -0.51492
 Alpha  occ. eigenvalues --   -0.47755  -0.45261  -0.41071  -0.39216
 Alpha virt. eigenvalues --    0.03050   0.04326   0.04476   0.04960   0.06393
 Alpha virt. eigenvalues --    0.06630   0.07042   0.07275   0.07537   0.09698
 Alpha virt. eigenvalues --    0.10179   0.10453   0.10611   0.11757   0.11884

 Mulliken charges:
               1
     1  C   -0.583454
     2  C    0.414758
     3  C   -0.606176
     4  O   -0.629689
     5  C    0.080601
     6  N   -0.736431
     7  N   -0.712016
     8  H    0.171834
     9  H    0.205801
    10  H    0.163192
    11  H    0.187740
    12  H    0.192192
    13  H    0.156465
    14  H    0.363741
    15  H    0.169698
    16  H    0.299104
    17  H    0.286618
    18  H    0.274445
    19  H    0.301577
 Sum of Mulliken charges =  -0.00000

 Dipole moment (field-independent basis, Debye):
    X=             -0.6483    Y=              0.7164    Z=              2.0143  Tot=              2.2341
 Quadrupole moment (field-independent basis, Debye-Ang):
   XX=            -49.3003   YY=            -45.0759   ZZ=            -43.3620
   XY=             -0.7722   XZ=              0.0717   YZ=              1.5631

 Normal termination of Gaussian 09 at Fri Aug 19 23:40:24 2022.
