 Gaussian 09, Revision E.01,
 Gaussian 09:  ES64L-G09RevE.01 30-Nov-2015

 -----
 #P G4
 -----

 ---------
 Frag_1090
 ---------
 Symbolic Z-matrix:
 Charge =  0 Multiplicity = 1

 SCF Done:  E(RB3LYP) =  -281.811128756     A.U. after   12 cycles
 SCF Done:  E(RB3LYP) =  -281.817450430     A.U. after   11 cycles
 SCF Done:  E(RB3LYP) =  -281.817921944     A.U. after   10 cycles
 SCF Done:  E(RB3LYP) =  -281.818058068     A.U. after   10 cycles
 SCF Done:  E(RB3LYP) =  -281.818080711     A.U. after   10 cycles
 SCF Done:  E(RB3LYP) =  -281.818085938     A.U. after    7 cycles
 SCF Done:  E(RB3LYP) =  -281.818088099     A.U. after    7 cycles
 SCF Done:  E(RB3LYP) =  -281.818087867     A.U. after    7 cycles
 SCF Done:  E(RB3LYP) =  -281.818088545     A.U. after    7 cycles
 SCF Done:  E(RB3LYP) =  -281.818088943     A.U. after    7 cycles
 SCF Done:  E(RB3LYP) =  -281.818089533     A.U. after    7 cycles
 Optimization completed.
    -- Stationary point found.
 Normal termination of Gaussian 09 at Mon Aug 22 09:59:11 2022.

 ----------------------------------------------------------
 #P Geom=AllCheck Guess=TCheck SCRF=Check B3LYP/GTBas3 Freq
 ----------------------------------------------------------

 Structure from the checkpoint file:  "G4.Frag_1090.chk"
 ---------
 Frag_1090
 ---------
 Charge =  0 Multiplicity = 1

 SCF Done:  E(RB3LYP) =  -281.818089533     A.U. after    1 cycles

  Exact polarizability:  39.509  -0.379  39.357   0.385   0.801  36.104
 Approx polarizability:  54.660  -0.516  53.708   1.566   0.645  51.220

                      1                      2                      3
                      A                      A                      A
 Frequencies --    172.7680               269.2194               303.9584
 Red. masses --      1.1317                 1.1723                 1.1002
 Frc consts  --      0.0199                 0.0501                 0.0599
 IR Inten    --     14.3279                19.2590                24.9556

                      4                      5                      6
                      A                      A                      A
 Frequencies --    357.2323               416.7844               451.5080
 Red. masses --      1.4187                 2.5188                 1.6246
 Frc consts  --      0.1067                 0.2578                 0.1951
 IR Inten    --     50.4626                31.3870                74.5826

                      7                      8                      9
                      A                      A                      A
 Frequencies --    514.3658               525.4506               555.5949
 Red. masses --      2.6292                 2.7735                 3.6960
 Frc consts  --      0.4098                 0.4512                 0.6722
 IR Inten    --     20.9722                17.6736                14.2314

                     10                     11                     12
                      A                      A                      A
 Frequencies --    821.8416               860.5923               897.6006
 Red. masses --      6.0027                 1.7972                 1.5771
 Frc consts  --      2.3888                 0.7842                 0.7487
 IR Inten    --     10.2216               136.5670                99.7597

                     13                     14                     15
                      A                      A                      A
 Frequencies --    933.8443               997.4820              1025.0694
 Red. masses --      1.4398                 2.4225                 1.6637
 Frc consts  --      0.7398                 1.4201                 1.0300
 IR Inten    --    224.4050               118.9982                61.1820

                     16                     17                     18
                      A                      A                      A
 Frequencies --   1082.0901              1207.3395              1287.1092
 Red. masses --      1.5380                 1.1989                 1.9499
 Frc consts  --      1.0610                 1.0296                 1.9032
 IR Inten    --     23.8636                40.2058               134.9860

                     19                     20                     21
                      A                      A                      A
 Frequencies --   1380.2727              1413.4448              1638.5407
 Red. masses --      2.0956                 1.7950                 1.1069
 Frc consts  --      2.3522                 2.1129                 1.7510
 IR Inten    --     80.4825                81.3946                28.9682

                     22                     23                     24
                      A                      A                      A
 Frequencies --   1645.7528              1652.9796              3476.3416
 Red. masses --      1.1087                 1.1239                 1.0494
 Frc consts  --      1.7692                 1.8092                 7.4720
 IR Inten    --     58.1051                18.3082                 0.3833

                     25                     26                     27
                      A                      A                      A
 Frequencies --   3489.5461              3498.4612              3562.9654
 Red. masses --      1.0493                 1.0488                 1.0915
 Frc consts  --      7.5279                 7.5632                 8.1641
 IR Inten    --      0.6803                 0.5560                 0.7319

                     28                     29                     30
                      A                      A                      A
 Frequencies --   3571.0471              3583.4258              3792.9301
 Red. masses --      1.0914                 1.0924                 1.0650
 Frc consts  --      8.2000                 8.2644                 9.0271
 IR Inten    --      1.2876                 1.7470                13.7437

 - Thermochemistry -
 -------------------
 Temperature   298.150 Kelvin.  Pressure   1.00000 Atm.
 Atom     1 has atomic number  7 and mass  14.00307

 Molecular mass:    77.05891 amu.
 Principal axes and moments of inertia in atomic units:
                           1         2         3
     Eigenvalues --   343.77519 356.57862 367.75847
           X            0.99479  -0.05034  -0.08861
           Y            0.06447   0.98424   0.16465
           Z            0.07893  -0.16951   0.98236
 This molecule is an asymmetric top.
 Rotational symmetry number  1.
 Rotational temperatures (Kelvin)      0.25195     0.24290     0.23552
 Rotational constants (GHZ):           5.24977     5.06127     4.90741
 Zero-point vibrational energy     271465.9 (Joules/Mol)
                                   64.88191 (Kcal/Mol)
 Warning -- explicit consideration of   9 degrees of freedom as
           vibrations may cause significant error
 Vibrational temperatures:    248.57   387.35   437.33   513.98   599.66
          (Kelvin)            649.62   740.06   756.01   799.38  1182.45
                             1238.20  1291.45  1343.59  1435.15  1474.84
                             1556.88  1737.09  1851.86  1985.90  2033.63
                             2357.49  2367.87  2378.27  5001.67  5020.67
                             5033.50  5126.31  5137.93  5155.74  5457.17

 Zero-point correction=                           0.103396 (Hartree/Particle)
 Thermal correction to Energy=                    0.109609
 Thermal correction to Enthalpy=                  0.110553
 Thermal correction to Gibbs Free Energy=         0.074811
 Sum of electronic and zero-point Energies=           -281.714694
 Sum of electronic and thermal Energies=              -281.708481
 Sum of electronic and thermal Enthalpies=            -281.707536
 Sum of electronic and thermal Free Energies=         -281.743278

                     E (Thermal)             CV                S
                      KCal/Mol        Cal/Mol-Kelvin    Cal/Mol-Kelvin
 Total                   68.781             22.984             75.225
 Electronic               0.000              0.000              0.000
 Translational            0.889              2.981             38.941
 Rotational               0.889              2.981             25.314
 Vibrational             67.003             17.022             10.970
 Vibration     1          0.626              1.876              2.405
 Vibration     2          0.674              1.730              1.601
 Vibration     3          0.695              1.666              1.395
 Vibration     4          0.732              1.560              1.134
 Vibration     5          0.780              1.434              0.903
 Vibration     6          0.810              1.358              0.791
 Vibration     7          0.869              1.218              0.623
 Vibration     8          0.880              1.194              0.597
 Vibration     9          0.911              1.127              0.533

 Optimization completed.
    -- Stationary point found.
 Normal termination of Gaussian 09 at Mon Aug 22 10:00:43 2022.

 -----------------------------------------------------------------
 #P Geom=AllCheck Guess=TCheck SCRF=Check CCSD(T,E4T,FrzG4)/GTBas1
 -----------------------------------------------------------------

 Structure from the checkpoint file:  "G4.Frag_1090.chk"
 ---------
 Frag_1090
 ---------
 Charge =  0 Multiplicity = 1

 SCF Done:  E(RHF) =  -280.137495973     A.U. after   12 cycles
 E2 =    -0.8033622763D+00 EUMP2 =    -0.28094085824976D+03
 CCSD(T)
 CCSD(T)= -0.28100076330D+03
 CSD=-280.9800083\CCSD(T)=-281.0007633\RMSD=1.622e-09\PG=C01 [X(C1H7N3O
 Normal termination of Gaussian 09 at Mon Aug 22 10:02:44 2022.

 ---------------------------------------------------------
 #P Geom=AllCheck Guess=TCheck SCRF=Check MP4=FrzG4/GTBas2
 ---------------------------------------------------------

 Structure from the checkpoint file:  "G4.Frag_1090.chk"
 ---------
 Frag_1090
 ---------
 Charge =  0 Multiplicity = 1

 SCF Done:  E(RHF) =  -280.151294164     A.U. after   11 cycles
 E2 =    -0.8200313027D+00 EUMP2 =    -0.28097132546663D+03
 Normal termination of Gaussian 09 at Mon Aug 22 10:05:16 2022.

 ---------------------------------------------------------
 #P Geom=AllCheck Guess=TCheck SCRF=Check MP4=FrzG4/GTBas3
 ---------------------------------------------------------

 Structure from the checkpoint file:  "G4.Frag_1090.chk"
 ---------
 Frag_1090
 ---------
 Charge =  0 Multiplicity = 1

 SCF Done:  E(RHF) =  -280.183577850     A.U. after   11 cycles
 E2 =    -0.9886366699D+00 EUMP2 =    -0.28117221451965D+03
 Normal termination of Gaussian 09 at Mon Aug 22 10:53:39 2022.

 -----------------------------------------------------------
 #P Geom=AllCheck Guess=TCheck SCRF=Check MP2=Full/GTLargeXP
 -----------------------------------------------------------

 Structure from the checkpoint file:  "G4.Frag_1090.chk"
 ---------
 Frag_1090
 ---------
 Charge =  0 Multiplicity = 1

 SCF Done:  E(RHF) =  -280.265453308     A.U. after   11 cycles
 E2 =    -0.1283419849D+01 EUMP2 =    -0.28154887315744D+03
 Normal termination of Gaussian 09 at Mon Aug 22 10:56:20 2022.
 SCF Done:  E(RHF) =  -280.287510403     A.U. after    8 cycles
 Normal termination of Gaussian 09 at Mon Aug 22 10:59:30 2022.

                         Standard orientation:
 ---------------------------------------------------------------------
 Center     Atomic      Atomic             Coordinates (Angstroms)
 Number     Number       Type             X           Y           Z
 ---------------------------------------------------------------------
      1          7           0        1.056185    0.463952   -0.868918
      2          6           0       -0.013489   -0.001957    0.014234
      3          7           0       -0.702403   -1.168495   -0.497372
      4          7           0       -1.032568    1.016344    0.205134
      5          8           0        0.603747   -0.321625    1.247841
      6          1           0        0.678667    0.619360   -1.799635
      7          1           0        1.763432   -0.262731   -0.953264
      8          1           0       -1.419494   -1.429030    0.175237
      9          1           0       -0.045192   -1.942188   -0.537451
     10          1           0       -1.584800    1.090716   -0.643892
     11          1           0       -0.580598    1.913986    0.352051
     12          1           0        1.190447    0.412028    1.466919
 ---------------------------------------------------------------------

 SCF Done:  E(RHF) =  -280.292541819     A.U. after    8 cycles

 The electronic state is 1-A.
 Alpha  occ. eigenvalues --  -20.55732 -15.55244 -15.54621 -15.54423 -11.37169
 Alpha  occ. eigenvalues --   -1.39315  -1.23158  -1.14367  -1.13758  -0.82962
 Alpha  occ. eigenvalues --   -0.71282  -0.70434  -0.68429  -0.65152  -0.60704
 Alpha  occ. eigenvalues --   -0.57931  -0.53508  -0.48347  -0.43803  -0.43171
 Alpha  occ. eigenvalues --   -0.41456
 Alpha virt. eigenvalues --    0.04028   0.04955   0.05159   0.05490   0.09200
 Alpha virt. eigenvalues --    0.09220   0.09717   0.09946   0.10224   0.12752
 Alpha virt. eigenvalues --    0.13377   0.13597   0.13815   0.16903   0.17721

 Mulliken charges:
               1
     1  N   -0.721687
     2  C    0.583496
     3  N   -0.702945
     4  N   -0.719303
     5  O   -0.595341
     6  H    0.298963
     7  H    0.289849
     8  H    0.309794
     9  H    0.283836
    10  H    0.307682
    11  H    0.293792
    12  H    0.371863
 Sum of Mulliken charges =  -0.00000

 Dipole moment (field-independent basis, Debye):
    X=              0.9772    Y=              0.2947    Z=             -1.4327  Tot=              1.7590
 Quadrupole moment (field-independent basis, Debye-Ang):
   XX=            -30.9693   YY=            -27.8334   ZZ=            -32.2541
   XY=             -0.9613   XZ=              0.7494   YZ=              0.5770

 Normal termination of Gaussian 09 at Mon Aug 22 12:35:38 2022.
