 Gaussian 09, Revision E.01,
 Gaussian 09:  ES64L-G09RevE.01 30-Nov-2015

 -----
 #P G4
 -----

 --------
 Frag_954
 --------
 Symbolic Z-matrix:
 Charge =  0 Multiplicity = 1

 SCF Done:  E(RB3LYP) =  -227.331175532     A.U. after   13 cycles
 SCF Done:  E(RB3LYP) =  -227.354164842     A.U. after   12 cycles
 SCF Done:  E(RB3LYP) =  -227.353862538     A.U. after   11 cycles
 SCF Done:  E(RB3LYP) =  -227.355132597     A.U. after   10 cycles
 SCF Done:  E(RB3LYP) =  -227.354508420     A.U. after   12 cycles
 SCF Done:  E(RB3LYP) =  -227.355835256     A.U. after   10 cycles
 SCF Done:  E(RB3LYP) =  -227.355768466     A.U. after   11 cycles
 SCF Done:  E(RB3LYP) =  -227.355899696     A.U. after    8 cycles
 SCF Done:  E(RB3LYP) =  -227.355937282     A.U. after    9 cycles
 SCF Done:  E(RB3LYP) =  -227.355945506     A.U. after    8 cycles
 SCF Done:  E(RB3LYP) =  -227.364553872     A.U. after    8 cycles
 SCF Done:  E(RB3LYP) =  -227.364572602     A.U. after   10 cycles
 SCF Done:  E(RB3LYP) =  -227.364577008     A.U. after    8 cycles
 Optimization completed.
    -- Stationary point found.
 Normal termination of Gaussian 09 at Thu Sep  1 16:27:04 2022.

 ----------------------------------------------------------
 #P Geom=AllCheck Guess=TCheck SCRF=Check B3LYP/GTBas3 Freq
 ----------------------------------------------------------

 Structure from the checkpoint file:  "G4.Frag_954.chk"
 --------
 Frag_954
 --------
 Charge =  0 Multiplicity = 1

 SCF Done:  E(RB3LYP) =  -227.364577008     A.U. after    1 cycles

  Exact polarizability:  60.199   0.336  40.032  -2.247  -0.027  32.561
 Approx polarizability:  93.462   1.517  54.064  -5.608  -0.632  48.224

                      1                      2                      3
                      A                      A                      A
 Frequencies --    182.0124               231.1469               272.4031
 Red. masses --      3.1307                 2.6477                 1.1788
 Frc consts  --      0.0611                 0.0833                 0.0515
 IR Inten    --      0.7003                 3.3176                47.7280

                      4                      5                      6
                      A                      A                      A
 Frequencies --    306.2685               447.0632               551.4141
 Red. masses --      1.2222                 2.9397                 4.8607
 Frc consts  --      0.0675                 0.3462                 0.8708
 IR Inten    --     33.2721                 1.0479                15.0522

                      7                      8                      9
                      A                      A                      A
 Frequencies --    594.9193               637.2474               653.7790
 Red. masses --      4.0427                 1.2241                 1.2413
 Frc consts  --      0.8430                 0.2929                 0.3126
 IR Inten    --      3.8266                41.0552                38.5208

                     10                     11                     12
                      A                      A                      A
 Frequencies --    822.6191               893.1588               928.8334
 Red. masses --      2.2340                 1.7234                 1.6810
 Frc consts  --      0.8907                 0.8100                 0.8545
 IR Inten    --     47.3702               132.8211               183.5369

                     13                     14                     15
                      A                      A                      A
 Frequencies --    994.3394              1136.2734              1201.8639
 Red. masses --      2.3227                 2.1704                 1.2339
 Frc consts  --      1.3530                 1.6510                 1.0501
 IR Inten    --      1.6940                39.1172                 3.8938

                     16                     17                     18
                      A                      A                      A
 Frequencies --   1285.3328              1383.2610              1412.0834
 Red. masses --      1.3901                 1.4835                 1.2602
 Frc consts  --      1.3531                 1.6724                 1.4805
 IR Inten    --      9.8859                53.3578                14.9140

                     19                     20                     21
                      A                      A                      A
 Frequencies --   1632.4655              1642.1976              2228.2038
 Red. masses --      1.0993                 1.1001                 5.8954
 Frc consts  --      1.7260                 1.7479                17.2453
 IR Inten    --     36.8775                24.8847                 0.7046

                     22                     23                     24
                      A                      A                      A
 Frequencies --   2936.1198              3484.7152              3497.5628
 Red. masses --      1.0808                 1.0494                 1.0488
 Frc consts  --      5.4897                 7.5078                 7.5594
 IR Inten    --     59.6676                 0.7924                 0.9091

                     25                     26                     27
                      A                      A                      A
 Frequencies --   3502.5543              3571.7023              3589.4924
 Red. masses --      1.1620                 1.0920                 1.0933
 Frc consts  --      8.3992                 8.2078                 8.2994
 IR Inten    --     57.3677                 1.8181                 1.5545

 - Thermochemistry -
 -------------------
 Temperature   298.150 Kelvin.  Pressure   1.00000 Atm.
 Atom     1 has atomic number  6 and mass  12.00000

 Molecular mass:    70.05310 amu.
 Principal axes and moments of inertia in atomic units:
                           1         2         3
     Eigenvalues --   201.07155 464.51552 617.39031
           X            0.99987  -0.01325  -0.00907
           Y            0.01345   0.99966   0.02250
           Z            0.00877  -0.02262   0.99971
 This molecule is an asymmetric top.
 Rotational symmetry number  1.
 Rotational temperatures (Kelvin)      0.43076     0.18646     0.14029
 Rotational constants (GHZ):           8.97562     3.88521     2.92318
 Zero-point vibrational energy     239367.0 (Joules/Mol)
                                   57.21008 (Kcal/Mol)
 Warning -- explicit consideration of   7 degrees of freedom as
           vibrations may cause significant error
 Vibrational temperatures:    261.87   332.57   391.93   440.65   643.22
          (Kelvin)            793.36   855.96   916.86   940.64  1183.56
                             1285.05  1336.38  1430.63  1634.84  1729.21
                             1849.30  1990.20  2031.67  2348.75  2362.75
                             3205.88  4224.42  5013.72  5032.21  5039.39
                             5138.88  5164.47

 Zero-point correction=                           0.091170 (Hartree/Particle)
 Thermal correction to Energy=                    0.097149
 Thermal correction to Enthalpy=                  0.098094
 Thermal correction to Gibbs Free Energy=         0.062628
 Sum of electronic and zero-point Energies=           -227.273407
 Sum of electronic and thermal Energies=              -227.267428
 Sum of electronic and thermal Enthalpies=            -227.266483
 Sum of electronic and thermal Free Energies=         -227.301949

                     E (Thermal)             CV                S
                      KCal/Mol        Cal/Mol-Kelvin    Cal/Mol-Kelvin
 Total                   60.962             21.315             74.644
 Electronic               0.000              0.000              0.000
 Translational            0.889              2.981             38.657
 Rotational               0.889              2.981             25.559
 Vibrational             59.185             15.354             10.428
 Vibration     1          0.630              1.864              2.308
 Vibration     2          0.653              1.793              1.870
 Vibration     3          0.675              1.724              1.581
 Vibration     4          0.697              1.662              1.382
 Vibration     5          0.806              1.367              0.805
 Vibration     6          0.907              1.137              0.541
 Vibration     7          0.953              1.043              0.458

 Optimization completed.
    -- Stationary point found.
 Normal termination of Gaussian 09 at Thu Sep  1 16:27:23 2022.

 -----------------------------------------------------------------
 #P Geom=AllCheck Guess=TCheck SCRF=Check CCSD(T,E4T,FrzG4)/GTBas1
 -----------------------------------------------------------------

 Structure from the checkpoint file:  "G4.Frag_954.chk"
 --------
 Frag_954
 --------
 Charge =  0 Multiplicity = 1

 SCF Done:  E(RHF) =  -225.904749597     A.U. after   13 cycles
 E2 =    -0.7046695579D+00 EUMP2 =    -0.22660941915512D+03
 CCSD(T)
 CCSD(T)= -0.22667283492D+03
 6731182\MP4SDQ=-226.647381\CCSD=-226.6480695\CCSD(T)=-226.6728349\RMSD
 Normal termination of Gaussian 09 at Thu Sep  1 16:28:08 2022.

 ---------------------------------------------------------
 #P Geom=AllCheck Guess=TCheck SCRF=Check MP4=FrzG4/GTBas2
 ---------------------------------------------------------

 Structure from the checkpoint file:  "G4.Frag_954.chk"
 --------
 Frag_954
 --------
 Charge =  0 Multiplicity = 1

 SCF Done:  E(RHF) =  -225.916426823     A.U. after   15 cycles
 E2 =    -0.7146563698D+00 EUMP2 =    -0.22663108319247D+03
 Normal termination of Gaussian 09 at Thu Sep  1 16:28:22 2022.

 ---------------------------------------------------------
 #P Geom=AllCheck Guess=TCheck SCRF=Check MP4=FrzG4/GTBas3
 ---------------------------------------------------------

 Structure from the checkpoint file:  "G4.Frag_954.chk"
 --------
 Frag_954
 --------
 Charge =  0 Multiplicity = 1

 SCF Done:  E(RHF) =  -225.939063239     A.U. after   12 cycles
 E2 =    -0.8520843854D+00 EUMP2 =    -0.22679114762453D+03
 Normal termination of Gaussian 09 at Thu Sep  1 16:29:32 2022.

 -----------------------------------------------------------
 #P Geom=AllCheck Guess=TCheck SCRF=Check MP2=Full/GTLargeXP
 -----------------------------------------------------------

 Structure from the checkpoint file:  "G4.Frag_954.chk"
 --------
 Frag_954
 --------
 Charge =  0 Multiplicity = 1

 SCF Done:  E(RHF) =  -225.998320893     A.U. after   13 cycles
 E2 =    -0.1121541455D+01 EUMP2 =    -0.22711986234875D+03
 Normal termination of Gaussian 09 at Thu Sep  1 16:30:21 2022.
 SCF Done:  E(RHF) =  -226.015793917     A.U. after   10 cycles
 Normal termination of Gaussian 09 at Thu Sep  1 16:31:20 2022.

                         Standard orientation:
 ---------------------------------------------------------------------
 Center     Atomic      Atomic             Coordinates (Angstroms)
 Number     Number       Type             X           Y           Z
 ---------------------------------------------------------------------
      1          6           0        2.207186    0.011577   -0.111704
      2          6           0        1.023959    0.028107    0.102137
      3          6           0       -0.423694    0.001633    0.380209
      4          7           0       -1.119119   -1.183233   -0.127200
      5          7           0       -1.058716    1.157870   -0.250268
      6          1           0        3.251397   -0.002479   -0.305201
      7          1           0       -0.544703   -0.023731    1.477702
      8          1           0       -0.967653   -1.231209   -1.131987
      9          1           0       -0.707118   -2.019467    0.276688
     10          1           0       -2.027809    1.192358    0.052103
     11          1           0       -0.603972    2.014160    0.049122
 ---------------------------------------------------------------------

 SCF Done:  E(RHF) =  -226.019374655     A.U. after    8 cycles

 The electronic state is 1-A.
 Alpha  occ. eigenvalues --  -15.55075 -15.55014 -11.31657 -11.23467 -11.22884
 Alpha  occ. eigenvalues --   -1.23868  -1.13369  -1.03280  -0.89434  -0.73619
 Alpha  occ. eigenvalues --   -0.69816  -0.69111  -0.60776  -0.58731  -0.57248
 Alpha  occ. eigenvalues --   -0.43850  -0.41662  -0.39397  -0.38851
 Alpha virt. eigenvalues --    0.03631   0.04241   0.05298   0.05501   0.06636
 Alpha virt. eigenvalues --    0.07470   0.07718   0.09884   0.09929   0.10385
 Alpha virt. eigenvalues --    0.11123   0.11442   0.13549   0.13694   0.14237

 Mulliken charges:
               1
     1  C   -0.466734
     2  C    0.139061
     3  C    0.065062
     4  N   -0.679419
     5  N   -0.678185
     6  H    0.244405
     7  H    0.177213
     8  H    0.301445
     9  H    0.287273
    10  H    0.310501
    11  H    0.299377
 Sum of Mulliken charges =  -0.00000

 Dipole moment (field-independent basis, Debye):
    X=              0.7503    Y=              0.0192    Z=              1.0169  Tot=              1.2639
 Quadrupole moment (field-independent basis, Debye-Ang):
   XX=            -28.8406   YY=            -28.1362   ZZ=            -31.8158
   XY=             -2.1246   XZ=             -2.1275   YZ=              2.1337

 Normal termination of Gaussian 09 at Thu Sep  1 16:36:47 2022.
