 Gaussian 09, Revision E.01,
 Gaussian 09:  ES64L-G09RevE.01 30-Nov-2015

 -----
 #P G4
 -----

 --------
 Frag_855
 --------
 Symbolic Z-matrix:
 Charge =  0 Multiplicity = 1

 SCF Done:  E(RB3LYP) =  -269.049992648     A.U. after   14 cycles
 SCF Done:  E(RB3LYP) =  -269.062477873     A.U. after   11 cycles
 SCF Done:  E(RB3LYP) =  -269.063396684     A.U. after   11 cycles
 SCF Done:  E(RB3LYP) =  -269.063578219     A.U. after    9 cycles
 SCF Done:  E(RB3LYP) =  -269.063595344     A.U. after    8 cycles
 SCF Done:  E(RB3LYP) =  -269.063599602     A.U. after    8 cycles
 SCF Done:  E(RB3LYP) =  -269.063600639     A.U. after    7 cycles
 Optimization completed.
    -- Stationary point found.
 Normal termination of Gaussian 09 at Fri Aug 26 08:07:39 2022.

 ----------------------------------------------------------
 #P Geom=AllCheck Guess=TCheck SCRF=Check B3LYP/GTBas3 Freq
 ----------------------------------------------------------

 Structure from the checkpoint file:  "G4.Frag_855.chk"
 --------
 Frag_855
 --------
 Charge =  0 Multiplicity = 1

 SCF Done:  E(RB3LYP) =  -269.063600639     A.U. after    1 cycles

  Exact polarizability:  67.712  -0.076  58.449   2.719   0.681  60.354
 Approx polarizability:  93.157  -1.686  83.848   7.377   0.712  89.073

                      1                      2                      3
                      A                      A                      A
 Frequencies --     98.4624               199.0129               259.1795
 Red. masses --      1.6856                 1.0275                 1.2913
 Frc consts  --      0.0096                 0.0240                 0.0511
 IR Inten    --      1.0173                 2.5433                 7.1817

                      4                      5                      6
                      A                      A                      A
 Frequencies --    279.5752               293.9284               364.7998
 Red. masses --      2.3005                 1.1049                 1.9346
 Frc consts  --      0.1059                 0.0562                 0.1517
 IR Inten    --      3.8344                 0.2552                 2.1693

                      7                      8                      9
                      A                      A                      A
 Frequencies --    384.5424               396.7186               464.6405
 Red. masses --      1.8949                 1.4872                 3.1567
 Frc consts  --      0.1651                 0.1379                 0.4015
 IR Inten    --      7.9710                43.9890                22.7606

                     10                     11                     12
                      A                      A                      A
 Frequencies --    483.8345               503.0239               716.2452
 Red. masses --      2.7388                 2.5571                 3.1449
 Frc consts  --      0.3777                 0.3812                 0.9506
 IR Inten    --     19.4339                13.4041                 2.3634

                     13                     14                     15
                      A                      A                      A
 Frequencies --    792.2526               800.8255               885.5630
 Red. masses --      1.2654                 3.8668                 2.0450
 Frc consts  --      0.4680                 1.4611                 0.9449
 IR Inten    --      6.3168                 8.2132                 1.0923

                     16                     17                     18
                      A                      A                      A
 Frequencies --    962.8905              1012.9173              1075.8465
 Red. masses --      2.0982                 3.0932                 1.2250
 Frc consts  --      1.1462                 1.8699                 0.8354
 IR Inten    --      1.6420                15.5694                 0.8557

                     19                     20                     21
                      A                      A                      A
 Frequencies --   1103.2953              1114.0275              1190.2395
 Red. masses --      1.7457                 1.4716                 1.6085
 Frc consts  --      1.2520                 1.0760                 1.3426
 IR Inten    --      9.1373                 5.2504                 4.7432

                     22                     23                     24
                      A                      A                      A
 Frequencies --   1216.3582              1259.8194              1316.8349
 Red. masses --      1.7193                 1.8262                 1.2670
 Frc consts  --      1.4988                 1.7077                 1.2945
 IR Inten    --      3.0844                 0.9207                 1.9459

                     25                     26                     27
                      A                      A                      A
 Frequencies --   1357.6173              1404.0051              1407.5869
 Red. masses --      1.2338                 1.2012                 1.1888
 Frc consts  --      1.3398                 1.3951                 1.3878
 IR Inten    --      1.3820                 5.0101                 1.9184

                     28                     29                     30
                      A                      A                      A
 Frequencies --   1439.1987              1457.1178              1464.0324
 Red. masses --      1.1837                 1.0831                 1.0753
 Frc consts  --      1.4445                 1.3549                 1.3579
 IR Inten    --      7.2031                 3.9837                 6.3963

                     31                     32                     33
                      A                      A                      A
 Frequencies --   1473.7071              1487.4251              1497.5064
 Red. masses --      1.0696                 1.0609                 1.0426
 Frc consts  --      1.3687                 1.3829                 1.3776
 IR Inten    --      1.2335                14.3008                 5.4404

                     34                     35                     36
                      A                      A                      A
 Frequencies --   1501.4393              1507.5811              1520.4521
 Red. masses --      1.0721                 1.0600                 1.2345
 Frc consts  --      1.4239                 1.4195                 1.6814
 IR Inten    --      9.4865                 4.2534                22.7813

                     37                     38                     39
                      A                      A                      A
 Frequencies --   3020.3131              3041.9003              3067.3716
 Red. masses --      1.0428                 1.0360                 1.0363
 Frc consts  --      5.6050                 5.6480                 5.7448
 IR Inten    --     42.6083                17.3477                29.7755

                     40                     41                     42
                      A                      A                      A
 Frequencies --   3074.1638              3105.4623              3114.7292
 Red. masses --      1.0625                 1.1003                 1.0984
 Frc consts  --      5.9159                 6.2518                 6.2785
 IR Inten    --      2.0307                16.4226                14.0818

                     43                     44                     45
                      A                      A                      A
 Frequencies --   3127.2311              3141.0067              3163.1394
 Red. masses --      1.0925                 1.1036                 1.1015
 Frc consts  --      6.2947                 6.4148                 6.4934
 IR Inten    --     16.7595                20.1007                11.6240

                     46                     47                     48
                      A                      A                      A
 Frequencies --   3174.0688              3181.3475              3339.5467
 Red. masses --      1.1038                 1.1045                 1.0736
 Frc consts  --      6.5521                 6.5864                 7.0546
 IR Inten    --      4.6961                 5.8354                48.7026

 - Thermochemistry -
 -------------------
 Temperature   298.150 Kelvin.  Pressure   1.00000 Atm.
 Atom     1 has atomic number  6 and mass  12.00000

 Molecular mass:    88.10005 amu.
 Principal axes and moments of inertia in atomic units:
                           1         2         3
     Eigenvalues --   381.09255 680.20951 687.66415
           X            0.99958   0.02173  -0.01905
           Y           -0.01109   0.89716   0.44156
           Z            0.02669  -0.44117   0.89703
 This molecule is an asymmetric top.
 Rotational symmetry number  1.
 Rotational temperatures (Kelvin)      0.22728     0.12733     0.12595
 Rotational constants (GHZ):           4.73570     2.65321     2.62445
 Zero-point vibrational energy     432107.8 (Joules/Mol)
                                  103.27624 (Kcal/Mol)
 Warning -- explicit consideration of  11 degrees of freedom as
           vibrations may cause significant error
 Vibrational temperatures:    141.67   286.33   372.90   402.25   422.90
          (Kelvin)            524.86   553.27   570.79   668.51   696.13
                              723.74  1030.52  1139.87  1152.21  1274.13
                             1385.38  1457.36  1547.90  1587.39  1602.84
                             1712.49  1750.07  1812.60  1894.63  1953.31
                             2020.05  2025.20  2070.68  2096.46  2106.41
                             2120.33  2140.07  2154.58  2160.23  2169.07
                             2187.59  4345.55  4376.61  4413.26  4423.03
                             4468.06  4481.40  4499.38  4519.20  4551.05
                             4566.77  4577.24  4804.86

 Zero-point correction=                           0.164581 (Hartree/Particle)
 Thermal correction to Energy=                    0.172357
 Thermal correction to Enthalpy=                  0.173301
 Thermal correction to Gibbs Free Energy=         0.133839
 Sum of electronic and zero-point Energies=           -268.899019
 Sum of electronic and thermal Energies=              -268.891244
 Sum of electronic and thermal Enthalpies=            -268.890300
 Sum of electronic and thermal Free Energies=         -268.929762

                     E (Thermal)             CV                S
                      KCal/Mol        Cal/Mol-Kelvin    Cal/Mol-Kelvin
 Total                  108.156             29.304             83.055
 Electronic               0.000              0.000              0.000
 Translational            0.889              2.981             39.340
 Rotational               0.889              2.981             26.680
 Vibrational            106.378             23.342             17.035
 Vibration     1          0.604              1.950              3.485
 Vibration     2          0.637              1.841              2.142
 Vibration     3          0.668              1.747              1.667
 Vibration     4          0.680              1.711              1.536
 Vibration     5          0.689              1.685              1.451
 Vibration     6          0.738              1.545              1.102
 Vibration     7          0.753              1.503              1.021
 Vibration     8          0.763              1.477              0.975
 Vibration     9          0.822              1.328              0.753
 Vibration    10          0.840              1.286              0.700
 Vibration    11          0.858              1.243              0.651

 Normal termination of Gaussian 09 at Fri Aug 26 08:08:23 2022.

 -----------------------------------------------------------------
 #P Geom=AllCheck Guess=TCheck SCRF=Check CCSD(T,E4T,FrzG4)/GTBas1
 -----------------------------------------------------------------

 Structure from the checkpoint file:  "G4.Frag_855.chk"
 --------
 Frag_855
 --------
 Charge =  0 Multiplicity = 1

 SCF Done:  E(RHF) =  -267.222644099     A.U. after   12 cycles
 E2 =    -0.8651194098D+00 EUMP2 =    -0.26808776350902D+03
 CCSD(T)
 CCSD(T)= -0.26818309201D+03
 Normal termination of Gaussian 09 at Fri Aug 26 08:11:32 2022.

 ---------------------------------------------------------
 #P Geom=AllCheck Guess=TCheck SCRF=Check MP4=FrzG4/GTBas2
 ---------------------------------------------------------

 Structure from the checkpoint file:  "G4.Frag_855.chk"
 --------
 Frag_855
 --------
 Charge =  0 Multiplicity = 1

 SCF Done:  E(RHF) =  -267.233602461     A.U. after   13 cycles
 E2 =    -0.8800574474D+00 EUMP2 =    -0.26811365990798D+03
 Normal termination of Gaussian 09 at Fri Aug 26 08:12:24 2022.

 ---------------------------------------------------------
 #P Geom=AllCheck Guess=TCheck SCRF=Check MP4=FrzG4/GTBas3
 ---------------------------------------------------------

 Structure from the checkpoint file:  "G4.Frag_855.chk"
 --------
 Frag_855
 --------
 Charge =  0 Multiplicity = 1

 SCF Done:  E(RHF) =  -267.259440696     A.U. after   11 cycles
 E2 =    -0.1075518894D+01 EUMP2 =    -0.26833495958984D+03
 Normal termination of Gaussian 09 at Fri Aug 26 08:18:04 2022.

 -----------------------------------------------------------
 #P Geom=AllCheck Guess=TCheck SCRF=Check MP2=Full/GTLargeXP
 -----------------------------------------------------------

 Structure from the checkpoint file:  "G4.Frag_855.chk"
 --------
 Frag_855
 --------
 Charge =  0 Multiplicity = 1

 SCF Done:  E(RHF) =  -267.326581486     A.U. after   12 cycles
 E2 =    -0.1406322216D+01 EUMP2 =    -0.26873290370263D+03
 Normal termination of Gaussian 09 at Fri Aug 26 08:20:59 2022.
 SCF Done:  E(RHF) =  -267.347009448     A.U. after    9 cycles
 Normal termination of Gaussian 09 at Fri Aug 26 08:24:12 2022.

                         Standard orientation:
 ---------------------------------------------------------------------
 Center     Atomic      Atomic             Coordinates (Angstroms)
 Number     Number       Type             X           Y           Z
 ---------------------------------------------------------------------
      1          6           0        2.133154    0.013122    0.069182
      2          6           0        0.863276   -0.057973   -0.778285
      3          7           0       -0.477133   -0.005646   -0.064661
      4          6           0       -0.612588   -1.162261    0.880889
      5          6           0       -0.605717    1.263304    0.701823
      6          7           0       -1.566453    0.046564   -1.011912
      7          1           0        2.211838    0.951575    0.624585
      8          1           0        3.000607   -0.043662   -0.596829
      9          1           0        2.212341   -0.816920    0.777083
     10          1           0        0.800728    0.759251   -1.498264
     11          1           0        0.832695   -0.991443   -1.346677
     12          1           0       -1.622096   -1.110447    1.285041
     13          1           0        0.135936   -1.144633    1.682135
     14          1           0       -0.508544   -2.078270    0.297020
     15          1           0       -1.623047    1.288912    1.088739
     16          1           0        0.126519    1.315505    1.510369
     17          1           0       -0.478847    2.083659   -0.003130
     18          1           0       -1.451785   -0.837110   -1.525717
 ---------------------------------------------------------------------

 SCF Done:  E(RHF) =  -267.351562455     A.U. after    8 cycles

 The electronic state is 1-A.
 Alpha  occ. eigenvalues --  -15.67082 -15.46177 -11.27344 -11.26716 -11.26045
 Alpha  occ. eigenvalues --  -11.24001  -1.31493  -1.04831  -1.00115  -0.98120
 Alpha  occ. eigenvalues --   -0.90502  -0.80578  -0.68283  -0.67421  -0.63878
 Alpha  occ. eigenvalues --   -0.61875  -0.57097  -0.56584  -0.56095  -0.53760
 Alpha  occ. eigenvalues --   -0.51901  -0.51025  -0.50384  -0.38178  -0.29106
 Alpha virt. eigenvalues --    0.02851   0.03757   0.03842   0.04735   0.06149
 Alpha virt. eigenvalues --    0.06433   0.06746   0.07083   0.07724   0.09489
 Alpha virt. eigenvalues --    0.09919   0.09964   0.10481   0.11895   0.13967

 Mulliken charges:
               1
     1  C   -0.544336
     2  C   -0.318239
     3  N    0.508580
     4  C   -0.565862
     5  C   -0.501415
     6  N   -0.934669
     7  H    0.173363
     8  H    0.185396
     9  H    0.170207
    10  H    0.223028
    11  H    0.186078
    12  H    0.222772
    13  H    0.174591
    14  H    0.191716
    15  H    0.217240
    16  H    0.175029
    17  H    0.207184
    18  H    0.229338
 Sum of Mulliken charges =  -0.00000

 Dipole moment (field-independent basis, Debye):
    X=              4.3369    Y=             -0.9707    Z=              2.9263  Tot=              5.3211
 Quadrupole moment (field-independent basis, Debye-Ang):
   XX=            -47.5306   YY=            -37.2730   ZZ=            -41.6295
   XY=              1.5839   XZ=             -6.1768   YZ=              2.0364

 Normal termination of Gaussian 09 at Fri Aug 26 08:34:41 2022.
