 Gaussian 09, Revision E.01,
 Gaussian 09:  ES64L-G09RevE.01 30-Nov-2015

 -----
 #P G4
 -----

 --------
 Frag_489
 --------
 Symbolic Z-matrix:
 Charge =  0 Multiplicity = 1

 SCF Done:  E(RB3LYP) =  -312.320046076     A.U. after   12 cycles
 SCF Done:  E(RB3LYP) =  -312.323670791     A.U. after   11 cycles
 SCF Done:  E(RB3LYP) =  -312.323827288     A.U. after   10 cycles
 SCF Done:  E(RB3LYP) =  -312.323851897     A.U. after   10 cycles
 SCF Done:  E(RB3LYP) =  -312.323883836     A.U. after    9 cycles
 SCF Done:  E(RB3LYP) =  -312.323884830     A.U. after    7 cycles
 SCF Done:  E(RB3LYP) =  -312.323885059     A.U. after    6 cycles
 Optimization completed.
    -- Stationary point found.
 Normal termination of Gaussian 09 at Sat Aug 20 03:51:39 2022.

 ----------------------------------------------------------
 #P Geom=AllCheck Guess=TCheck SCRF=Check B3LYP/GTBas3 Freq
 ----------------------------------------------------------

 Structure from the checkpoint file:  "G4.Frag_489.chk"
 --------
 Frag_489
 --------
 Charge =  0 Multiplicity = 1

 SCF Done:  E(RB3LYP) =  -312.323885059     A.U. after    1 cycles

  Exact polarizability:  73.401   1.245  68.904   0.824  -0.852  67.625
 Approx polarizability:  97.314  -1.162  97.174   0.766  -0.945  98.829

                      1                      2                      3
                      A                      A                      A
 Frequencies --     79.3976               205.6153               234.4399
 Red. masses --      2.6005                 1.0338                 1.4800
 Frc consts  --      0.0097                 0.0258                 0.0479
 IR Inten    --      0.7190                 4.2134                11.3754

                      4                      5                      6
                      A                      A                      A
 Frequencies --    244.0802               251.5364               275.8798
 Red. masses --      1.1516                 1.2230                 1.7975
 Frc consts  --      0.0404                 0.0456                 0.0806
 IR Inten    --      2.0398                13.4309                 0.5179

                      7                      8                      9
                      A                      A                      A
 Frequencies --    294.7075               309.7280               350.7528
 Red. masses --      1.6718                 1.1660                 2.0798
 Frc consts  --      0.0856                 0.0659                 0.1508
 IR Inten    --     10.5906                65.1171                 4.3648

                     10                     11                     12
                      A                      A                      A
 Frequencies --    360.2225               379.9434               442.3863
 Red. masses --      2.3233                 2.2142                 2.3586
 Frc consts  --      0.1776                 0.1883                 0.2720
 IR Inten    --      0.7269                 0.6312                 2.2624

                     13                     14                     15
                      A                      A                      A
 Frequencies --    484.9893               549.7507               707.5937
 Red. masses --      3.0902                 2.4872                 2.8681
 Frc consts  --      0.4283                 0.4429                 0.8461
 IR Inten    --     10.6752                 0.7403                 1.8084

                     16                     17                     18
                      A                      A                      A
 Frequencies --    842.8299               924.2210               933.9752
 Red. masses --      2.2662                 2.0106                 1.7705
 Frc consts  --      0.9485                 1.0119                 0.9100
 IR Inten    --      1.2686                13.9367                 1.4904

                     19                     20                     21
                      A                      A                      A
 Frequencies --    939.6084               958.4600              1000.6197
 Red. masses --      1.6290                 1.2274                 1.3144
 Frc consts  --      0.8473                 0.6643                 0.7754
 IR Inten    --      0.3978                 0.1984                 6.7590

                     22                     23                     24
                      A                      A                      A
 Frequencies --   1028.0561              1063.0097              1088.1437
 Red. masses --      1.6333                 1.4810                 1.7616
 Frc consts  --      1.0171                 0.9860                 1.2289
 IR Inten    --      6.5312                26.2821                32.0906

                     25                     26                     27
                      A                      A                      A
 Frequencies --   1118.8474              1220.1696              1245.4273
 Red. masses --      2.3146                 2.0901                 2.6997
 Frc consts  --      1.7072                 1.8334                 2.4672
 IR Inten    --     56.8135                 6.3320                 1.1123

                     28                     29                     30
                      A                      A                      A
 Frequencies --   1275.4633              1301.9451              1362.5705
 Red. masses --      2.7205                 1.5587                 1.3659
 Frc consts  --      2.6075                 1.5567                 1.4942
 IR Inten    --      0.6448                12.2952                 2.5191

                     31                     32                     33
                      A                      A                      A
 Frequencies --   1393.5088              1397.1393              1403.9219
 Red. masses --      1.2630                 1.2370                 1.2334
 Frc consts  --      1.4450                 1.4226                 1.4324
 IR Inten    --      4.9825                 5.2577                11.3825

                     34                     35                     36
                      A                      A                      A
 Frequencies --   1419.4165              1430.7618              1478.6154
 Red. masses --      1.2152                 1.2203                 1.0488
 Frc consts  --      1.4425                 1.4718                 1.3510
 IR Inten    --     32.6289                11.1711                 0.3576

                     37                     38                     39
                      A                      A                      A
 Frequencies --   1486.2862              1491.9520              1494.4616
 Red. masses --      1.0467                 1.0462                 1.0559
 Frc consts  --      1.3623                 1.3720                 1.3895
 IR Inten    --      0.5265                 0.6228                 0.7435

                     40                     41                     42
                      A                      A                      A
 Frequencies --   1499.0431              1510.5223              1511.0811
 Red. masses --      1.0496                 1.0550                 1.0532
 Frc consts  --      1.3896                 1.4182                 1.4169
 IR Inten    --      9.9600                 1.3537                 3.3655

                     43                     44                     45
                      A                      A                      A
 Frequencies --   1522.4110              3019.6414              3025.2667
 Red. masses --      1.0620                 1.0801                 1.0362
 Frc consts  --      1.4502                 5.8026                 5.5874
 IR Inten    --     10.8570                14.7157                22.5258

                     46                     47                     48
                      A                      A                      A
 Frequencies --   3026.7594              3033.4779              3036.8516
 Red. masses --      1.0357                 1.0417                 1.0386
 Frc consts  --      5.5904                 5.6478                 5.6432
 IR Inten    --     29.1050                25.9596                13.0892

                     49                     50                     51
                      A                      A                      A
 Frequencies --   3087.7374              3091.4102              3096.2180
 Red. masses --      1.1011                 1.1007                 1.1004
 Frc consts  --      6.1851                 6.1976                 6.2156
 IR Inten    --      1.7330                21.6852                25.4758

                     52                     53                     54
                      A                      A                      A
 Frequencies --   3096.7652              3103.2090              3105.0793
 Red. masses --      1.0995                 1.1002                 1.0977
 Frc consts  --      6.2125                 6.2424                 6.2355
 IR Inten    --     54.4188                56.8666                23.4236

                     55                     56                     57
                      A                      A                      A
 Frequencies --   3125.3669              3126.0371              3811.4050
 Red. masses --      1.0997                 1.1000                 1.0658
 Frc consts  --      6.3290                 6.3334                 9.1222
 IR Inten    --      0.8095                38.7240                12.9216

 - Thermochemistry -
 -------------------
 Temperature   298.150 Kelvin.  Pressure   1.00000 Atm.
 Atom     1 has atomic number  6 and mass  12.00000

 Molecular mass:   102.10447 amu.
 Principal axes and moments of inertia in atomic units:
                           1         2         3
     Eigenvalues --   590.46106 819.20413 979.53061
           X            0.99702   0.07566   0.01498
           Y           -0.07535   0.99694  -0.02064
           Z           -0.01649   0.01945   0.99967
 This molecule is an asymmetric top.
 Rotational symmetry number  1.
 Warning -- assumption of classical behavior for rotation
           may cause significant error
 Rotational temperatures (Kelvin)      0.14669     0.10573     0.08842
 Rotational constants (GHZ):           3.05649     2.20304     1.84246
 Zero-point vibrational energy     504218.3 (Joules/Mol)
                                  120.51106 (Kcal/Mol)
 Warning -- explicit consideration of  14 degrees of freedom as
           vibrations may cause significant error
 Vibrational temperatures:    114.24   295.83   337.31   351.18   361.90
          (Kelvin)            396.93   424.02   445.63   504.65   518.28
                              546.65   636.49   697.79   790.97  1018.07
                             1212.64  1329.75  1343.78  1351.89  1379.01
                             1439.67  1479.14  1529.43  1565.59  1609.77
                             1755.55  1791.89  1835.10  1873.21  1960.43
                             2004.95  2010.17  2019.93  2042.22  2058.54
                             2127.40  2138.43  2146.58  2150.19  2156.79
                             2173.30  2174.11  2190.41  4344.58  4352.68
                             4354.83  4364.49  4369.35  4442.56  4447.84
                             4454.76  4455.55  4464.82  4467.51  4496.70
                             4497.66  5483.75

 Zero-point correction=                           0.192047 (Hartree/Particle)
 Thermal correction to Energy=                    0.201363
 Thermal correction to Enthalpy=                  0.202308
 Thermal correction to Gibbs Free Energy=         0.159467
 Sum of electronic and zero-point Energies=           -312.131838
 Sum of electronic and thermal Energies=              -312.122522
 Sum of electronic and thermal Enthalpies=            -312.121577
 Sum of electronic and thermal Free Energies=         -312.164418

                     E (Thermal)             CV                S
                      KCal/Mol        Cal/Mol-Kelvin    Cal/Mol-Kelvin
 Total                  126.357             35.276             90.166
 Electronic               0.000              0.000              0.000
 Translational            0.889              2.981             39.780
 Rotational               0.889              2.981             27.651
 Vibrational            124.580             29.314             22.734
 Vibration     1          0.600              1.963              3.906
 Vibration     2          0.640              1.832              2.082
 Vibration     3          0.654              1.788              1.845
 Vibration     4          0.659              1.773              1.773
 Vibration     5          0.664              1.760              1.720
 Vibration     6          0.678              1.718              1.559
 Vibration     7          0.689              1.684              1.447
 Vibration     8          0.699              1.655              1.364
 Vibration     9          0.728              1.574              1.163
 Vibration    10          0.735              1.554              1.121
 Vibration    11          0.750              1.513              1.039
 Vibration    12          0.802              1.378              0.819
 Vibration    13          0.841              1.283              0.697
 Vibration    14          0.905              1.140              0.545

 Optimization completed.
    -- Stationary point found.
 Normal termination of Gaussian 09 at Sat Aug 20 04:01:03 2022.

 -----------------------------------------------------------------
 #P Geom=AllCheck Guess=TCheck SCRF=Check CCSD(T,E4T,FrzG4)/GTBas1
 -----------------------------------------------------------------

 Structure from the checkpoint file:  "G4.Frag_489.chk"
 --------
 Frag_489
 --------
 Charge =  0 Multiplicity = 1

 SCF Done:  E(RHF) =  -310.212924963     A.U. after   11 cycles
 E2 =    -0.9780676473D+00 EUMP2 =    -0.31119099261060D+03
 CCSD(T)
 CCSD(T)= -0.31129877546D+03
 Normal termination of Gaussian 09 at Sat Aug 20 04:25:07 2022.

 ---------------------------------------------------------
 #P Geom=AllCheck Guess=TCheck SCRF=Check MP4=FrzG4/GTBas2
 ---------------------------------------------------------

 Structure from the checkpoint file:  "G4.Frag_489.chk"
 --------
 Frag_489
 --------
 Charge =  0 Multiplicity = 1

 SCF Done:  E(RHF) =  -310.218911998     A.U. after   11 cycles
 E2 =    -0.9912669743D+00 EUMP2 =    -0.31121017897187D+03
 Normal termination of Gaussian 09 at Sat Aug 20 04:56:09 2022.

 ---------------------------------------------------------
 #P Geom=AllCheck Guess=TCheck SCRF=Check MP4=FrzG4/GTBas3
 ---------------------------------------------------------

 Structure from the checkpoint file:  "G4.Frag_489.chk"
 --------
 Frag_489
 --------
 Charge =  0 Multiplicity = 1

 SCF Done:  E(RHF) =  -310.255524302     A.U. after   10 cycles
 E2 =    -0.1226795440D+01 EUMP2 =    -0.31148231974261D+03
 Normal termination of Gaussian 09 at Sat Aug 20 12:45:24 2022.

 -----------------------------------------------------------
 #P Geom=AllCheck Guess=TCheck SCRF=Check MP2=Full/GTLargeXP
 -----------------------------------------------------------

 Structure from the checkpoint file:  "G4.Frag_489.chk"
 --------
 Frag_489
 --------
 Charge =  0 Multiplicity = 1

 SCF Done:  E(RHF) =  -310.326228728     A.U. after   11 cycles
 E2 =    -0.1609568749D+01 EUMP2 =    -0.31193579747682D+03
 Normal termination of Gaussian 09 at Sat Aug 20 13:02:54 2022.
 SCF Done:  E(RHF) =  -310.351128761     A.U. after    8 cycles
 Normal termination of Gaussian 09 at Sat Aug 20 13:16:09 2022.

                         Standard orientation:
 ---------------------------------------------------------------------
 Center     Atomic      Atomic             Coordinates (Angstroms)
 Number     Number       Type             X           Y           Z
 ---------------------------------------------------------------------
      1          6           0        1.784124    1.047886   -0.021082
      2          6           0        0.848610   -0.079790   -0.463991
      3          8           0        1.404164   -1.346851   -0.107617
      4          6           0       -0.632808    0.046492    0.004574
      5          6           0       -1.220788    1.390341   -0.463178
      6          6           0       -1.432388   -1.101252   -0.641278
      7          6           0       -0.744248   -0.062079    1.536466
      8          1           0        1.465671    2.020834   -0.403765
      9          1           0        2.791374    0.846546   -0.396150
     10          1           0        1.841301    1.120345    1.071482
     11          1           0        0.831897   -0.096520   -1.561716
     12          1           0        1.624534   -1.316973    0.829192
     13          1           0       -2.298919    1.421536   -0.272970
     14          1           0       -0.771650    2.242371    0.056091
     15          1           0       -1.072781    1.534660   -1.539827
     16          1           0       -0.992975   -2.068975   -0.389214
     17          1           0       -2.473754   -1.090009   -0.301904
     18          1           0       -1.436865   -1.009269   -1.733512
     19          1           0       -1.792557   -0.001990    1.847034
     20          1           0       -0.207475    0.742955    2.049050
     21          1           0       -0.356125   -1.020295    1.898079
 ---------------------------------------------------------------------

 SCF Done:  E(RHF) =  -310.356509942     A.U. after    8 cycles

 The electronic state is 1-A.
 Alpha  occ. eigenvalues --  -20.54811 -11.27570 -11.23388 -11.21624 -11.21402
 Alpha  occ. eigenvalues --  -11.21348 -11.20361  -1.35591  -1.09925  -0.99486
 Alpha  occ. eigenvalues --   -0.93337  -0.92649  -0.85452  -0.74379  -0.65831
 Alpha  occ. eigenvalues --   -0.63385  -0.63037  -0.60142  -0.58695  -0.55054
 Alpha  occ. eigenvalues --   -0.53854  -0.53141  -0.52616  -0.51229  -0.50292
 Alpha  occ. eigenvalues --   -0.48393  -0.46122  -0.44586  -0.41800
 Alpha virt. eigenvalues --    0.03018   0.04009   0.04071   0.04517   0.05867
 Alpha virt. eigenvalues --    0.06620   0.06656   0.06882   0.07185   0.09363
 Alpha virt. eigenvalues --    0.09395   0.09551   0.09674   0.10158   0.10768

 Mulliken charges:
               1
     1  C   -0.601023
     2  C    0.075858
     3  O   -0.610796
     4  C    0.396727
     5  C   -0.604628
     6  C   -0.596923
     7  C   -0.631312
     8  H    0.177484
     9  H    0.187167
    10  H    0.160931
    11  H    0.165360
    12  H    0.363082
    13  H    0.171716
    14  H    0.164915
    15  H    0.165702
    16  H    0.194444
    17  H    0.160123
    18  H    0.155986
    19  H    0.171956
    20  H    0.167720
    21  H    0.165511
 Sum of Mulliken charges =  -0.00000

 Dipole moment (field-independent basis, Debye):
    X=             -0.2935    Y=              1.3944    Z=              0.9604  Tot=              1.7184
 Quadrupole moment (field-independent basis, Debye-Ang):
   XX=            -47.7624   YY=            -49.9972   ZZ=            -45.5004
   XY=              1.7822   XZ=              1.9037   YZ=             -2.2202

 Normal termination of Gaussian 09 at Sat Aug 20 19:40:50 2022.
