 Gaussian 09, Revision E.01,
 Gaussian 09:  ES64L-G09RevE.01 30-Nov-2015

 -----
 #P G4
 -----

 --------
 Frag_455
 --------
 Symbolic Z-matrix:
 Charge =  0 Multiplicity = 1

 SCF Done:  E(RB3LYP) =  -344.389666157     A.U. after   12 cycles
 SCF Done:  E(RB3LYP) =  -344.397655968     A.U. after   11 cycles
 SCF Done:  E(RB3LYP) =  -344.398557060     A.U. after   10 cycles
 SCF Done:  E(RB3LYP) =  -344.399119064     A.U. after   10 cycles
 SCF Done:  E(RB3LYP) =  -344.398859198     A.U. after   11 cycles
 SCF Done:  E(RB3LYP) =  -344.399376273     A.U. after   10 cycles
 SCF Done:  E(RB3LYP) =  -344.399420164     A.U. after    9 cycles
 SCF Done:  E(RB3LYP) =  -344.399436585     A.U. after    9 cycles
 SCF Done:  E(RB3LYP) =  -344.399443085     A.U. after    8 cycles
 SCF Done:  E(RB3LYP) =  -344.399447422     A.U. after    8 cycles
 SCF Done:  E(RB3LYP) =  -344.399449631     A.U. after    8 cycles
 SCF Done:  E(RB3LYP) =  -344.399450514     A.U. after    7 cycles
 SCF Done:  E(RB3LYP) =  -344.399450649     A.U. after    6 cycles
 Optimization completed.
    -- Stationary point found.
 Normal termination of Gaussian 09 at Tue Aug 23 20:43:40 2022.

 ----------------------------------------------------------
 #P Geom=AllCheck Guess=TCheck SCRF=Check B3LYP/GTBas3 Freq
 ----------------------------------------------------------

 Structure from the checkpoint file:  "G4.Frag_455.chk"
 --------
 Frag_455
 --------
 Charge =  0 Multiplicity = 1

 SCF Done:  E(RB3LYP) =  -344.399450649     A.U. after    1 cycles

  Exact polarizability:  67.091  -0.236  64.295   2.281   0.733  58.307
 Approx polarizability:  87.503   0.430  89.390   2.120   0.434  89.580

                      1                      2                      3
                      A                      A                      A
 Frequencies --    107.4261               203.0314               223.6782
 Red. masses --      2.8879                 1.0679                 1.3453
 Frc consts  --      0.0196                 0.0259                 0.0397
 IR Inten    --      2.0936                 6.2045                18.6582

                      4                      5                      6
                      A                      A                      A
 Frequencies --    245.0329               269.2519               275.9943
 Red. masses --      1.2967                 1.2703                 2.2521
 Frc consts  --      0.0459                 0.0543                 0.1011
 IR Inten    --     12.9053                33.2318                20.0068

                      7                      8                      9
                      A                      A                      A
 Frequencies --    299.2974               332.4619               371.6821
 Red. masses --      1.2698                 1.2994                 2.6019
 Frc consts  --      0.0670                 0.0846                 0.2118
 IR Inten    --     19.6386                78.5035                13.7347

                     10                     11                     12
                      A                      A                      A
 Frequencies --    379.8691               415.4293               489.5325
 Red. masses --      2.9793                 2.4002                 2.5890
 Frc consts  --      0.2533                 0.2441                 0.3655
 IR Inten    --      1.5712                 3.2541                 7.4180

                     13                     14                     15
                      A                      A                      A
 Frequencies --    530.1760               600.2758               724.5140
 Red. masses --      3.3816                 2.9009                 2.9888
 Frc consts  --      0.5600                 0.6159                 0.9244
 IR Inten    --     12.8918                 7.7491                 6.2341

                     16                     17                     18
                      A                      A                      A
 Frequencies --    865.9854               868.4679               915.1348
 Red. masses --      1.9519                 2.1518                 1.6996
 Frc consts  --      0.8624                 0.9562                 0.8386
 IR Inten    --    106.1732                50.5902               114.6200

                     19                     20                     21
                      A                      A                      A
 Frequencies --    928.8650               987.1698              1009.2905
 Red. masses --      1.3730                 1.4148                 1.4054
 Frc consts  --      0.6979                 0.8123                 0.8435
 IR Inten    --     23.0457                60.7535                 5.6794

                     22                     23                     24
                      A                      A                      A
 Frequencies --   1028.8568              1078.3494              1111.0209
 Red. masses --      1.8550                 3.0296                 1.3739
 Frc consts  --      1.1569                 2.0757                 0.9992
 IR Inten    --      9.8794                30.1936                18.4599

                     25                     26                     27
                      A                      A                      A
 Frequencies --   1146.6796              1211.4200              1226.2298
 Red. masses --      1.6706                 2.4993                 1.7110
 Frc consts  --      1.2942                 2.1610                 1.5158
 IR Inten    --     53.3849                44.2986                48.8709

                     28                     29                     30
                      A                      A                      A
 Frequencies --   1309.0416              1364.1548              1375.6988
 Red. masses --      1.5883                 1.3962                 1.4596
 Frc consts  --      1.6035                 1.5308                 1.6275
 IR Inten    --     29.1764                 3.5650                18.1782

                     31                     32                     33
                      A                      A                      A
 Frequencies --   1398.7126              1403.6551              1411.5655
 Red. masses --      1.3287                 1.3329                 1.5008
 Frc consts  --      1.5315                 1.5473                 1.7619
 IR Inten    --      0.2750                 9.4044                32.7070

                     34                     35                     36
                      A                      A                      A
 Frequencies --   1487.4341              1494.0178              1498.4609
 Red. masses --      1.0478                 1.0723                 1.0572
 Frc consts  --      1.3658                 1.4102                 1.3986
 IR Inten    --      4.6798                 4.2635                 3.2850

                     37                     38                     39
                      A                      A                      A
 Frequencies --   1503.6610              1637.7233              1663.0983
 Red. masses --      1.0485                 1.0913                 1.0975
 Frc consts  --      1.3967                 1.7246                 1.7884
 IR Inten    --      1.6795                33.9394                31.0605

                     40                     41                     42
                      A                      A                      A
 Frequencies --   3011.3977              3022.3462              3038.4681
 Red. masses --      1.0830                 1.0364                 1.0377
 Frc consts  --      5.7866                 5.5779                 5.6446
 IR Inten    --     22.6229                22.0732                13.1865

                     43                     44                     45
                      A                      A                      A
 Frequencies --   3088.7326              3096.9019              3106.8721
 Red. masses --      1.0998                 1.1012                 1.0988
 Frc consts  --      6.1818                 6.2228                 6.2493
 IR Inten    --     33.5085                38.4306                25.3900

                     46                     47                     48
                      A                      A                      A
 Frequencies --   3130.4149              3484.4821              3488.3292
 Red. masses --      1.1015                 1.0509                 1.0487
 Frc consts  --      6.3600                 7.5181                 7.5183
 IR Inten    --     15.2893                 9.5432                 3.7055

                     49                     50                     51
                      A                      A                      A
 Frequencies --   3573.1624              3574.8552              3820.1114
 Red. masses --      1.0921                 1.0897                 1.0656
 Frc consts  --      8.2151                 8.2049                 9.1619
 IR Inten    --      1.7912                 7.0247                 9.5524

 - Thermochemistry -
 -------------------
 Temperature   298.150 Kelvin.  Pressure   1.00000 Atm.
 Atom     1 has atomic number  6 and mass  12.00000

 Molecular mass:   104.09496 amu.
 Principal axes and moments of inertia in atomic units:
                           1         2         3
     Eigenvalues --   562.43709 777.36666 955.69451
           X            0.99937  -0.01555   0.03188
           Y            0.01519   0.99982   0.01161
           Z           -0.03206  -0.01112   0.99942
 This molecule is an asymmetric top.
 Rotational symmetry number  1.
 Warning -- assumption of classical behavior for rotation
           may cause significant error
 Rotational temperatures (Kelvin)      0.15400     0.11142     0.09063
 Rotational constants (GHZ):           3.20879     2.32161     1.88841
 Zero-point vibrational energy     447573.3 (Joules/Mol)
                                  106.97260 (Kcal/Mol)
 Warning -- explicit consideration of  14 degrees of freedom as
           vibrations may cause significant error
 Vibrational temperatures:    154.56   292.12   321.82   352.55   387.39
          (Kelvin)            397.09   430.62   478.34   534.77   546.55
                              597.71   704.33   762.80   863.66  1042.41
                             1245.96  1249.53  1316.67  1336.43  1420.32
                             1452.14  1480.29  1551.50  1598.51  1649.81
                             1742.96  1764.27  1883.42  1962.71  1979.32
                             2012.43  2019.54  2030.93  2140.08  2149.56
                             2155.95  2163.43  2356.32  2392.82  4332.72
                             4348.48  4371.67  4443.99  4455.75  4470.09
                             4503.96  5013.39  5018.92  5140.98  5143.41
                             5496.28

 Zero-point correction=                           0.170472 (Hartree/Particle)
 Thermal correction to Energy=                    0.179478
 Thermal correction to Enthalpy=                  0.180422
 Thermal correction to Gibbs Free Energy=         0.138321
 Sum of electronic and zero-point Energies=           -344.228979
 Sum of electronic and thermal Energies=              -344.219973
 Sum of electronic and thermal Enthalpies=            -344.219028
 Sum of electronic and thermal Free Energies=         -344.261130

                     E (Thermal)             CV                S
                      KCal/Mol        Cal/Mol-Kelvin    Cal/Mol-Kelvin
 Total                  112.624             34.222             88.609
 Electronic               0.000              0.000              0.000
 Translational            0.889              2.981             39.838
 Rotational               0.889              2.981             27.527
 Vibrational            110.847             28.260             21.245
 Vibration     1          0.606              1.943              3.315
 Vibration     2          0.639              1.836              2.105
 Vibration     3          0.649              1.805              1.929
 Vibration     4          0.660              1.771              1.766
 Vibration     5          0.674              1.730              1.601
 Vibration     6          0.678              1.718              1.558
 Vibration     7          0.692              1.675              1.421
 Vibration     8          0.714              1.611              1.248
 Vibration     9          0.743              1.530              1.073
 Vibration    10          0.750              1.513              1.040
 Vibration    11          0.779              1.437              0.908
 Vibration    12          0.845              1.273              0.685
 Vibration    13          0.885              1.183              0.587
 Vibration    14          0.958              1.031              0.449

 Normal termination of Gaussian 09 at Tue Aug 23 20:51:35 2022.

 -----------------------------------------------------------------
 #P Geom=AllCheck Guess=TCheck SCRF=Check CCSD(T,E4T,FrzG4)/GTBas1
 -----------------------------------------------------------------

 Structure from the checkpoint file:  "G4.Frag_455.chk"
 --------
 Frag_455
 --------
 Charge =  0 Multiplicity = 1

 SCF Done:  E(RHF) =  -342.193792086     A.U. after   12 cycles
 E2 =    -0.1041065787D+01 EUMP2 =    -0.34323485787325D+03
 CCSD(T)
 CCSD(T)= -0.34333231351D+03
 .331451\MP4SDQ=-343.3007543\CCSD=-343.3015962\CCSD(T)=-343.3323135\RMS
 Normal termination of Gaussian 09 at Tue Aug 23 21:10:12 2022.

 ---------------------------------------------------------
 #P Geom=AllCheck Guess=TCheck SCRF=Check MP4=FrzG4/GTBas2
 ---------------------------------------------------------

 Structure from the checkpoint file:  "G4.Frag_455.chk"
 --------
 Frag_455
 --------
 Charge =  0 Multiplicity = 1

 SCF Done:  E(RHF) =  -342.205356157     A.U. after   12 cycles
 E2 =    -0.1058440658D+01 EUMP2 =    -0.34326379681437D+03
 Normal termination of Gaussian 09 at Tue Aug 23 21:36:30 2022.

 ---------------------------------------------------------
 #P Geom=AllCheck Guess=TCheck SCRF=Check MP4=FrzG4/GTBas3
 ---------------------------------------------------------

 Structure from the checkpoint file:  "G4.Frag_455.chk"
 --------
 Frag_455
 --------
 Charge =  0 Multiplicity = 1

 SCF Done:  E(RHF) =  -342.246148164     A.U. after   11 cycles
 E2 =    -0.1291486728D+01 EUMP2 =    -0.34353763489174D+03
 Normal termination of Gaussian 09 at Wed Aug 24 03:51:04 2022.

 -----------------------------------------------------------
 #P Geom=AllCheck Guess=TCheck SCRF=Check MP2=Full/GTLargeXP
 -----------------------------------------------------------

 Structure from the checkpoint file:  "G4.Frag_455.chk"
 --------
 Frag_455
 --------
 Charge =  0 Multiplicity = 1

 SCF Done:  E(RHF) =  -342.333662040     A.U. after   12 cycles
 E2 =    -0.1685745172D+01 EUMP2 =    -0.34401940721210D+03
 Normal termination of Gaussian 09 at Wed Aug 24 04:07:09 2022.
 SCF Done:  E(RHF) =  -342.360460614     A.U. after    8 cycles
 Normal termination of Gaussian 09 at Wed Aug 24 04:18:25 2022.

                         Standard orientation:
 ---------------------------------------------------------------------
 Center     Atomic      Atomic             Coordinates (Angstroms)
 Number     Number       Type             X           Y           Z
 ---------------------------------------------------------------------
      1          6           0        1.621475    1.230174   -0.069772
      2          6           0        0.821864   -0.011750   -0.496805
      3          7           0        1.436233   -1.274928   -0.070228
      4          6           0       -0.652970   -0.030452    0.019201
      5          6           0       -1.454692    1.196582   -0.421999
      6          7           0       -1.357819   -1.226778   -0.407675
      7          8           0       -0.624531   -0.114178    1.452672
      8          1           0        1.683557    1.303266    1.022840
      9          1           0        2.647867    1.165303   -0.446486
     10          1           0        1.191696    2.160754   -0.454205
     11          1           0        0.770972   -0.027823   -1.594215
     12          1           0        1.423069   -1.306519    0.946180
     13          1           0        2.407048   -1.314248   -0.362804
     14          1           0       -2.494737    1.066881   -0.113663
     15          1           0       -1.421849    1.325547   -1.509489
     16          1           0       -1.070663    2.114376    0.032180
     17          1           0       -1.675965   -1.109475   -1.363970
     18          1           0       -0.694371   -1.998606   -0.407333
     19          1           0       -0.333331    0.738591    1.791160
 ---------------------------------------------------------------------

 SCF Done:  E(RHF) =  -342.366438010     A.U. after    8 cycles

 The electronic state is 1-A.
 Alpha  occ. eigenvalues --  -20.54914 -15.53847 -15.52590 -11.31144 -11.25878
 Alpha  occ. eigenvalues --  -11.22485 -11.22000  -1.36509  -1.19515  -1.15542
 Alpha  occ. eigenvalues --   -1.01486  -0.96922  -0.86890  -0.78163  -0.69366
 Alpha  occ. eigenvalues --   -0.67928  -0.63213  -0.62045  -0.60244  -0.58183
 Alpha  occ. eigenvalues --   -0.56585  -0.55245  -0.53359  -0.52082  -0.51410
 Alpha  occ. eigenvalues --   -0.48741  -0.44404  -0.39793  -0.38793
 Alpha virt. eigenvalues --    0.02825   0.03981   0.04274   0.05228   0.06418
 Alpha virt. eigenvalues --    0.06657   0.06968   0.07312   0.07499   0.09533
 Alpha virt. eigenvalues --    0.09736   0.10170   0.10739   0.11295   0.12248

 Mulliken charges:
               1
     1  C   -0.570404
     2  C    0.034089
     3  N   -0.744723
     4  C    0.489155
     5  C   -0.609488
     6  N   -0.747008
     7  O   -0.617880
     8  H    0.158444
     9  H    0.166369
    10  H    0.170221
    11  H    0.155130
    12  H    0.317255
    13  H    0.286191
    14  H    0.205771
    15  H    0.169138
    16  H    0.163923
    17  H    0.284862
    18  H    0.326065
    19  H    0.362889
 Sum of Mulliken charges =  -0.00000

 Dipole moment (field-independent basis, Debye):
    X=              2.2545    Y=              2.5287    Z=             -1.4474  Tot=              3.6840
 Quadrupole moment (field-independent basis, Debye-Ang):
   XX=            -45.5692   YY=            -46.7214   ZZ=            -43.7660
   XY=             -3.0009   XZ=              3.6924   YZ=              2.7174

 Normal termination of Gaussian 09 at Wed Aug 24 09:50:06 2022.
