 Gaussian 09, Revision E.01,
 Gaussian 09:  ES64L-G09RevE.01 30-Nov-2015

 -----
 #P G4
 -----

 --------
 Frag_835
 --------
 Symbolic Z-matrix:
 Charge =  0 Multiplicity = 1

 SCF Done:  E(RB3LYP) =  -347.799117380     A.U. after   12 cycles
 SCF Done:  E(RB3LYP) =  -347.806526122     A.U. after   10 cycles
 SCF Done:  E(RB3LYP) =  -347.806916912     A.U. after   10 cycles
 SCF Done:  E(RB3LYP) =  -347.806988438     A.U. after   10 cycles
 SCF Done:  E(RB3LYP) =  -347.807016024     A.U. after   10 cycles
 SCF Done:  E(RB3LYP) =  -347.807042517     A.U. after    9 cycles
 SCF Done:  E(RB3LYP) =  -347.807044342     A.U. after    7 cycles
 SCF Done:  E(RB3LYP) =  -347.807044813     A.U. after    7 cycles
 SCF Done:  E(RB3LYP) =  -347.807045079     A.U. after    6 cycles
 Optimization completed.
    -- Stationary point found.
 Normal termination of Gaussian 09 at Fri Aug 26 04:20:58 2022.

 ----------------------------------------------------------
 #P Geom=AllCheck Guess=TCheck SCRF=Check B3LYP/GTBas3 Freq
 ----------------------------------------------------------

 Structure from the checkpoint file:  "G4.Frag_835.chk"
 --------
 Frag_835
 --------
 Charge =  0 Multiplicity = 1

 SCF Done:  E(RB3LYP) =  -347.807045079     A.U. after    1 cycles

  Exact polarizability:  83.862  -0.175  78.326  -0.317   0.255  79.331
 Approx polarizability: 114.682   1.806 112.367   0.498   0.125 116.010

                      1                      2                      3
                      A                      A                      A
 Frequencies --     87.8236               210.8274               237.9609
 Red. masses --      2.5430                 1.0340                 1.1455
 Frc consts  --      0.0116                 0.0271                 0.0382
 IR Inten    --      0.2491                 2.0253                11.2713

                      4                      5                      6
                      A                      A                      A
 Frequencies --    250.5346               267.5367               273.7239
 Red. masses --      1.1236                 1.3411                 1.3590
 Frc consts  --      0.0416                 0.0566                 0.0600
 IR Inten    --      2.4085                 0.8881                17.5590

                      7                      8                      9
                      A                      A                      A
 Frequencies --    295.7034               299.0173               317.7765
 Red. masses --      1.8684                 1.8388                 1.2165
 Frc consts  --      0.0963                 0.0969                 0.0724
 IR Inten    --      4.7965                 0.2688                14.2695

                     10                     11                     12
                      A                      A                      A
 Frequencies --    362.5193               370.2998               376.9731
 Red. masses --      1.7720                 2.4725                 2.1730
 Frc consts  --      0.1372                 0.1998                 0.1819
 IR Inten    --      4.7745                 1.0490                 2.3408

                     13                     14                     15
                      A                      A                      A
 Frequencies --    398.7085               425.0543               496.1695
 Red. masses --      2.2686                 2.3183                 2.6296
 Frc consts  --      0.2125                 0.2468                 0.3814
 IR Inten    --      6.8186                 7.6099                 5.1255

                     16                     17                     18
                      A                      A                      A
 Frequencies --    508.1498               515.0541               658.6986
 Red. masses --      2.3994                 2.8055                 3.0505
 Frc consts  --      0.3650                 0.4385                 0.7798
 IR Inten    --      1.5385                 1.8429                 3.4301

                     19                     20                     21
                      A                      A                      A
 Frequencies --    817.4457               865.1374               886.8206
 Red. masses --      2.5868                 1.7157                 2.0176
 Frc consts  --      1.0184                 0.7566                 0.9349
 IR Inten    --     16.9752               110.4563               106.3715

                     22                     23                     24
                      A                      A                      A
 Frequencies --    933.0533               933.2724               941.1793
 Red. masses --      1.6399                 1.5773                 1.3740
 Frc consts  --      0.8412                 0.8094                 0.7171
 IR Inten    --     16.0682                25.9636                45.5254

                     25                     26                     27
                      A                      A                      A
 Frequencies --    956.7924               981.3515               995.1167
 Red. masses --      1.2124                 1.5431                 1.8575
 Frc consts  --      0.6539                 0.8756                 1.0837
 IR Inten    --      0.9327                25.6224                 4.1063

                     28                     29                     30
                      A                      A                      A
 Frequencies --   1035.8860              1046.4605              1086.6974
 Red. masses --      1.3768                 1.3955                 1.5036
 Frc consts  --      0.8705                 0.9004                 1.0461
 IR Inten    --      3.0259                 7.1091                10.1836

                     31                     32                     33
                      A                      A                      A
 Frequencies --   1199.5918              1225.5200              1243.0612
 Red. masses --      2.2418                 2.3064                 2.6384
 Frc consts  --      1.9007                 2.0409                 2.4020
 IR Inten    --     53.5389                 8.8971                 2.7560

                     34                     35                     36
                      A                      A                      A
 Frequencies --   1270.4291              1310.0818              1337.8157
 Red. masses --      2.9407                 2.0894                 1.7422
 Frc consts  --      2.7964                 2.1129                 1.8371
 IR Inten    --      7.1822                 8.9260                 9.8792

                     37                     38                     39
                      A                      A                      A
 Frequencies --   1389.7193              1395.8326              1402.5143
 Red. masses --      1.2555                 1.2350                 1.2678
 Frc consts  --      1.4286                 1.4177                 1.4693
 IR Inten    --      3.6211                 6.7488                14.1653

                     40                     41                     42
                      A                      A                      A
 Frequencies --   1427.3082              1479.0329              1486.3800
 Red. masses --      1.2268                 1.0508                 1.0530
 Frc consts  --      1.4725                 1.3543                 1.3707
 IR Inten    --      7.6580                 0.3969                 0.2127

                     43                     44                     45
                      A                      A                      A
 Frequencies --   1489.7829              1496.5776              1499.4570
 Red. masses --      1.0513                 1.0473                 1.0505
 Frc consts  --      1.3747                 1.3820                 1.3916
 IR Inten    --      0.6120                 1.4006                 5.2965

                     46                     47                     48
                      A                      A                      A
 Frequencies --   1510.8882              1513.0236              1526.2294
 Red. masses --      1.0523                 1.0514                 1.0587
 Frc consts  --      1.4153                 1.4181                 1.4530
 IR Inten    --      0.8684                 3.3168                11.0127

                     49                     50                     51
                      A                      A                      A
 Frequencies --   1636.8405              1642.9437              3029.1514
 Red. masses --      1.1001                 1.1029                 1.0357
 Frc consts  --      1.7366                 1.7541                 5.5990
 IR Inten    --     44.3209                13.6404                20.8176

                     52                     53                     54
                      A                      A                      A
 Frequencies --   3031.7473              3037.3294              3042.6169
 Red. masses --      1.0355                 1.0363                 1.0364
 Frc consts  --      5.6078                 5.6328                 5.6530
 IR Inten    --     28.3118                23.3849                13.1820

                     55                     56                     57
                      A                      A                      A
 Frequencies --   3088.5188              3090.6650              3096.6504
 Red. masses --      1.1007                 1.1007                 1.0992
 Frc consts  --      6.1862                 6.1949                 6.2104
 IR Inten    --      2.0811                 9.7714                73.4931

                     58                     59                     60
                      A                      A                      A
 Frequencies --   3103.5488              3110.7445              3110.8755
 Red. masses --      1.1002                 1.1008                 1.0999
 Frc consts  --      6.2436                 6.2759                 6.2714
 IR Inten    --     45.7785                37.8850                 6.9394

                     61                     62                     63
                      A                      A                      A
 Frequencies --   3121.7074              3126.1268              3490.9279
 Red. masses --      1.1015                 1.1003                 1.0497
 Frc consts  --      6.3245                 6.3356                 7.5369
 IR Inten    --     27.1957                16.9399                 0.4878

                     64                     65                     66
                      A                      A                      A
 Frequencies --   3506.5329              3575.4953              3594.1994
 Red. masses --      1.0481                 1.0913                 1.0926
 Frc consts  --      7.5929                 8.2201                 8.3159
 IR Inten    --      0.2100                 0.3707                 0.4396

 - Thermochemistry -
 -------------------
 Temperature   298.150 Kelvin.  Pressure   1.00000 Atm.
 Atom     1 has atomic number  6 and mass  12.00000

 Molecular mass:   116.13135 amu.
 Principal axes and moments of inertia in atomic units:
                           1         2         3
     Eigenvalues --   760.662841062.109631075.51086
           X            0.99936  -0.03002  -0.01961
           Y            0.03389   0.96924   0.24376
           Z            0.01169  -0.24427   0.96964
 This molecule is an asymmetric top.
 Rotational symmetry number  1.
 Warning -- assumption of classical behavior for rotation
           may cause significant error
 Rotational temperatures (Kelvin)      0.11387     0.08155     0.08053
 Rotational constants (GHZ):           2.37259     1.69920     1.67803
 Zero-point vibrational energy     583009.7 (Joules/Mol)
                                  139.34266 (Kcal/Mol)
 Warning -- explicit consideration of  17 degrees of freedom as
           vibrations may cause significant error
 Vibrational temperatures:    126.36   303.33   342.37   360.46   384.93
          (Kelvin)            393.83   425.45   430.22   457.21   521.58
                              532.78   542.38   573.65   611.56   713.88
                              731.11   741.05   947.72  1176.12  1244.74
                             1275.94  1342.45  1342.77  1354.15  1376.61
                             1411.94  1431.75  1490.41  1505.62  1563.51
                             1725.94  1763.25  1788.49  1827.86  1884.91
                             1924.82  1999.49  2008.29  2017.90  2053.58
                             2128.00  2138.57  2143.46  2153.24  2157.38
                             2173.83  2176.90  2195.90  2355.05  2363.83
                             4358.27  4362.00  4370.03  4377.64  4443.68
                             4446.77  4455.38  4465.31  4475.66  4475.85
                             4491.44  4497.79  5022.66  5045.11  5144.33
                             5171.24

 Zero-point correction=                           0.222057 (Hartree/Particle)
 Thermal correction to Energy=                    0.232443
 Thermal correction to Enthalpy=                  0.233387
 Thermal correction to Gibbs Free Energy=         0.188623
 Sum of electronic and zero-point Energies=           -347.584988
 Sum of electronic and thermal Energies=              -347.574602
 Sum of electronic and thermal Enthalpies=            -347.573658
 Sum of electronic and thermal Free Energies=         -347.618422

                     E (Thermal)             CV                S
                      KCal/Mol        Cal/Mol-Kelvin    Cal/Mol-Kelvin
 Total                  145.860             41.184             94.215
 Electronic               0.000              0.000              0.000
 Translational            0.889              2.981             40.164
 Rotational               0.889              2.981             28.254
 Vibrational            144.083             35.223             25.797
 Vibration     1          0.601              1.958              3.708
 Vibration     2          0.643              1.824              2.037
 Vibration     3          0.656              1.783              1.818
 Vibration     4          0.663              1.762              1.727
 Vibration     5          0.673              1.733              1.612
 Vibration     6          0.676              1.722              1.573
 Vibration     7          0.690              1.682              1.441
 Vibration     8          0.692              1.676              1.422
 Vibration     9          0.704              1.640              1.322
 Vibration    10          0.736              1.549              1.111
 Vibration    11          0.742              1.533              1.079
 Vibration    12          0.748              1.519              1.051
 Vibration    13          0.765              1.473              0.967
 Vibration    14          0.787              1.416              0.875
 Vibration    15          0.852              1.259              0.668
 Vibration    16          0.863              1.232              0.638
 Vibration    17          0.870              1.217              0.622

 Optimization completed.
    -- Stationary point found.
 Normal termination of Gaussian 09 at Fri Aug 26 04:22:39 2022.

 -----------------------------------------------------------------
 #P Geom=AllCheck Guess=TCheck SCRF=Check CCSD(T,E4T,FrzG4)/GTBas1
 -----------------------------------------------------------------

 Structure from the checkpoint file:  "G4.Frag_835.chk"
 --------
 Frag_835
 --------
 Charge =  0 Multiplicity = 1

 SCF Done:  E(RHF) =  -345.404590216     A.U. after   11 cycles
 E2 =    -0.1134058268D+01 EUMP2 =    -0.34653864848349D+03
 CCSD(T)
 CCSD(T)= -0.34666233233D+03
 346.6602607\MP4SDQ=-346.6240589\CCSD=-346.6256681\CCSD(T)=-346.6623323
 Normal termination of Gaussian 09 at Fri Aug 26 04:33:32 2022.

 ---------------------------------------------------------
 #P Geom=AllCheck Guess=TCheck SCRF=Check MP4=FrzG4/GTBas2
 ---------------------------------------------------------

 Structure from the checkpoint file:  "G4.Frag_835.chk"
 --------
 Frag_835
 --------
 Charge =  0 Multiplicity = 1

 SCF Done:  E(RHF) =  -345.413118396     A.U. after   12 cycles
 E2 =    -0.1150898383D+01 EUMP2 =    -0.34656401677942D+03
 Normal termination of Gaussian 09 at Fri Aug 26 04:37:31 2022.

 ---------------------------------------------------------
 #P Geom=AllCheck Guess=TCheck SCRF=Check MP4=FrzG4/GTBas3
 ---------------------------------------------------------

 Structure from the checkpoint file:  "G4.Frag_835.chk"
 --------
 Frag_835
 --------
 Charge =  0 Multiplicity = 1

 SCF Done:  E(RHF) =  -345.454779792     A.U. after   10 cycles
 E2 =    -0.1411308847D+01 EUMP2 =    -0.34686608863927D+03
 Normal termination of Gaussian 09 at Fri Aug 26 05:16:16 2022.

 -----------------------------------------------------------
 #P Geom=AllCheck Guess=TCheck SCRF=Check MP2=Full/GTLargeXP
 -----------------------------------------------------------

 Structure from the checkpoint file:  "G4.Frag_835.chk"
 --------
 Frag_835
 --------
 Charge =  0 Multiplicity = 1

 SCF Done:  E(RHF) =  -345.532473874     A.U. after   11 cycles
 E2 =    -0.1847536535D+01 EUMP2 =    -0.34738001040917D+03
 Normal termination of Gaussian 09 at Fri Aug 26 05:25:14 2022.
 SCF Done:  E(RHF) =  -345.559271014     A.U. after    9 cycles
 Normal termination of Gaussian 09 at Fri Aug 26 05:28:58 2022.

                         Standard orientation:
 ---------------------------------------------------------------------
 Center     Atomic      Atomic             Coordinates (Angstroms)
 Number     Number       Type             X           Y           Z
 ---------------------------------------------------------------------
      1          6           0       -1.308566   -0.916371    1.141785
      2          6           0       -0.786156   -0.019142    0.003068
      3          6           0       -1.351590    1.402542    0.198725
      4          6           0       -1.327325   -0.566299   -1.335547
      5          6           0        0.799507    0.028996   -0.001651
      6          6           0        1.429888   -1.378998    0.007429
      7          7           0        1.228667    0.813799   -1.172035
      8          7           0        1.384421    0.745313    1.139219
      9          1           0       -2.396995   -0.824401    1.221268
     10          1           0       -0.890993   -0.629639    2.113225
     11          1           0       -1.082812   -1.973464    0.975088
     12          1           0       -1.169939    1.776566    1.211541
     13          1           0       -2.436227    1.401089    0.047898
     14          1           0       -0.903609    2.098627   -0.514251
     15          1           0       -1.091908    0.103587   -2.167540
     16          1           0       -2.418309   -0.654040   -1.290369
     17          1           0       -0.934119   -1.560923   -1.568582
     18          1           0        1.088966   -1.981325   -0.839084
     19          1           0        1.205654   -1.934054    0.923827
     20          1           0        2.516296   -1.275135   -0.057727
     21          1           0        1.103873    0.272957   -2.021650
     22          1           0        2.226710    0.980141   -1.074027
     23          1           0        1.016276    1.690449    1.174124
     24          1           0        1.140967    0.291415    2.013121
 ---------------------------------------------------------------------

 SCF Done:  E(RHF) =  -345.565066550     A.U. after    8 cycles

 The electronic state is 1-A.
 Alpha  occ. eigenvalues --  -15.53335 -15.53097 -11.28661 -11.23312 -11.21185
 Alpha  occ. eigenvalues --  -11.21044 -11.20933 -11.20283  -1.22815  -1.11686
 Alpha  occ. eigenvalues --   -1.07847  -0.97060  -0.92873  -0.92162  -0.82630
 Alpha  occ. eigenvalues --   -0.72434  -0.67207  -0.66428  -0.61755  -0.60374
 Alpha  occ. eigenvalues --   -0.59229  -0.56806  -0.54552  -0.54430  -0.53080
 Alpha  occ. eigenvalues --   -0.52428  -0.51608  -0.50597  -0.47280  -0.45847
 Alpha  occ. eigenvalues --   -0.45361  -0.39810  -0.37753
 Alpha virt. eigenvalues --    0.02928   0.03995   0.04148   0.04474   0.05909
 Alpha virt. eigenvalues --    0.06399   0.06624   0.06819   0.06962   0.09046
 Alpha virt. eigenvalues --    0.09076   0.09263   0.09594   0.10006   0.10106

 Mulliken charges:
               1
     1  C   -0.635029
     2  C    0.466944
     3  C   -0.671168
     4  C   -0.661004
     5  C    0.394739
     6  C   -0.599884
     7  N   -0.796437
     8  N   -0.783576
     9  H    0.175444
    10  H    0.159128
    11  H    0.170786
    12  H    0.157861
    13  H    0.170030
    14  H    0.212964
    15  H    0.178211
    16  H    0.172570
    17  H    0.168166
    18  H    0.170073
    19  H    0.168950
    20  H    0.180572
    21  H    0.292734
    22  H    0.307771
    23  H    0.305680
    24  H    0.294473
 Sum of Mulliken charges =  -0.00000

 Dipole moment (field-independent basis, Debye):
    X=             -0.5946    Y=             -1.0751    Z=              0.1215  Tot=              1.2346
 Quadrupole moment (field-independent basis, Debye-Ang):
   XX=            -56.0048   YY=            -55.4289   ZZ=            -51.4197
   XY=             -1.1408   XZ=             -2.1178   YZ=              1.6934

 Normal termination of Gaussian 09 at Fri Aug 26 05:54:47 2022.
