 Gaussian 09, Revision E.01,
 Gaussian 09:  ES64L-G09RevE.01 30-Nov-2015

 -----
 #P G4
 -----

 --------
 Frag_546
 --------
 Symbolic Z-matrix:
 Charge =  0 Multiplicity = 1

 SCF Done:  E(RB3LYP) =  -263.331028953     A.U. after   14 cycles
 SCF Done:  E(RB3LYP) =  -263.344245198     A.U. after   14 cycles
 SCF Done:  E(RB3LYP) =  -263.347363124     A.U. after   15 cycles
 SCF Done:  E(RB3LYP) =  -263.349991832     A.U. after   15 cycles
 SCF Done:  E(RB3LYP) =  -263.352944369     A.U. after   14 cycles
 SCF Done:  E(RB3LYP) =  -263.354235858     A.U. after   13 cycles
 SCF Done:  E(RB3LYP) =  -263.355292176     A.U. after   16 cycles
 SCF Done:  E(RB3LYP) =  -263.355753559     A.U. after   16 cycles
 SCF Done:  E(RB3LYP) =  -263.357508508     A.U. after   14 cycles
 SCF Done:  E(RB3LYP) =  -263.358510903     A.U. after   13 cycles
 SCF Done:  E(RB3LYP) =  -263.359134859     A.U. after    9 cycles
 SCF Done:  E(RB3LYP) =  -263.359135534     A.U. after    8 cycles
 SCF Done:  E(RB3LYP) =  -263.359135628     A.U. after    7 cycles
 Optimization completed.
    -- Stationary point found.
 Normal termination of Gaussian 09 at Tue Aug 23 04:39:00 2022.

 ----------------------------------------------------------
 #P Geom=AllCheck Guess=TCheck SCRF=Check B3LYP/GTBas3 Freq
 ----------------------------------------------------------

 Structure from the checkpoint file:  "G4.Frag_546.chk"
 --------
 Frag_546
 --------
 Charge =  0 Multiplicity = 1

 SCF Done:  E(RB3LYP) =  -263.359135628     A.U. after    1 cycles

  Exact polarizability:  54.958  -3.971  38.573   0.002  -0.001  19.985
 Approx polarizability:  76.178 -10.471  65.538   0.001  -0.000  30.426

                      1                      2                      3
                      A                      A                      A
 Frequencies --     80.9201               235.4680               330.3766
 Red. masses --      3.4227                 1.1970                 3.0890
 Frc consts  --      0.0132                 0.0391                 0.1986
 IR Inten    --     16.3048               202.9087                19.0946

                      4                      5                      6
                      A                      A                      A
 Frequencies --    481.5767               554.7329               647.5872
 Red. masses --      2.9398                 1.3772                 1.1595
 Frc consts  --      0.4017                 0.2497                 0.2865
 IR Inten    --      4.5530                 6.2628                 2.9618

                      7                      8                      9
                      A                      A                      A
 Frequencies --    649.3184               816.2391               879.9836
 Red. masses --      4.4958                 3.7460                 2.7607
 Frc consts  --      1.1168                 1.4704                 1.2596
 IR Inten    --      4.6427                28.8599                10.0153

                     10                     11                     12
                      A                      A                      A
 Frequencies --   1100.3646              1119.7624              1228.5470
 Red. masses --      1.8624                 1.3530                 1.5754
 Frc consts  --      1.3286                 0.9996                 1.4010
 IR Inten    --      0.1277                11.2013                 4.9873

                     13                     14                     15
                      A                      A                      A
 Frequencies --   1339.6211              1463.8429              1598.5730
 Red. masses --      3.4360                 1.1476                 1.2856
 Frc consts  --      3.6331                 1.4489                 1.9356
 IR Inten    --    192.6922                46.1287               141.3214

                     16                     17                     18
                      A                      A                      A
 Frequencies --   1712.9375              1820.3877              3058.9283
 Red. masses --      7.0371                 9.6618                 1.0572
 Frc consts  --     12.1654                18.8642                 5.8283
 IR Inten    --     39.9728               321.1562                21.0565

                     19                     20                     21
                      A                      A                      A
 Frequencies --   3167.3783              3620.9581              3762.8907
 Red. masses --      1.1150                 1.0439                 1.1059
 Frc consts  --      6.5907                 8.0640                 9.2261
 IR Inten    --     12.5676                62.8833                57.3386

 - Thermochemistry -
 -------------------
 Temperature   298.150 Kelvin.  Pressure   1.00000 Atm.
 Atom     1 has atomic number  6 and mass  12.00000

 Molecular mass:    72.03236 amu.
 Principal axes and moments of inertia in atomic units:
                           1         2         3
     Eigenvalues --   165.41933 380.98196 546.40126
           X            0.99888  -0.04741   0.00003
           Y            0.04741   0.99888  -0.00003
           Z           -0.00003   0.00003   1.00000
 This molecule is an asymmetric top.
 Rotational symmetry number  1.
 Rotational temperatures (Kelvin)      0.52360     0.22734     0.15852
 Rotational constants (GHZ):          10.91010     4.73708     3.30296
 Zero-point vibrational energy     177468.4 (Joules/Mol)
                                   42.41596 (Kcal/Mol)
 Warning -- explicit consideration of   5 degrees of freedom as
           vibrations may cause significant error
 Vibrational temperatures:    116.43   338.79   475.34   692.88   798.14
          (Kelvin)            931.73   934.22  1174.38  1266.10  1583.18
                             1611.09  1767.60  1927.41  2106.14  2299.99
                             2464.53  2619.13  4401.11  4557.15  5209.74
                             5413.95

 Zero-point correction=                           0.067594 (Hartree/Particle)
 Thermal correction to Energy=                    0.073001
 Thermal correction to Enthalpy=                  0.073945
 Thermal correction to Gibbs Free Energy=         0.039122
 Sum of electronic and zero-point Energies=           -263.291541
 Sum of electronic and thermal Energies=              -263.286135
 Sum of electronic and thermal Enthalpies=            -263.285190
 Sum of electronic and thermal Free Energies=         -263.320014

                     E (Thermal)             CV                S
                      KCal/Mol        Cal/Mol-Kelvin    Cal/Mol-Kelvin
 Total                   45.809             17.816             73.292
 Electronic               0.000              0.000              0.000
 Translational            0.889              2.981             38.740
 Rotational               0.889              2.981             25.046
 Vibrational             44.031             11.855              9.505
 Vibration     1          0.600              1.962              3.868
 Vibration     2          0.655              1.787              1.837
 Vibration     3          0.713              1.615              1.258
 Vibration     4          0.838              1.291              0.706
 Vibration     5          0.910              1.129              0.534

 Optimization completed.
    -- Stationary point found.
 Normal termination of Gaussian 09 at Tue Aug 23 04:39:53 2022.

 -----------------------------------------------------------------
 #P Geom=AllCheck Guess=TCheck SCRF=Check CCSD(T,E4T,FrzG4)/GTBas1
 -----------------------------------------------------------------

 Structure from the checkpoint file:  "G4.Frag_546.chk"
 --------
 Frag_546
 --------
 Charge =  0 Multiplicity = 1

 SCF Done:  E(RHF) =  -261.822338015     A.U. after   13 cycles
 E2 =    -0.7437217824D+00 EUMP2 =    -0.26256605979734D+03
 CCSD(T)
 CCSD(T)= -0.26261973109D+03
 39476\CCSD=-262.5929322\CCSD(T)=-262.6197311\RMSD=6.448e-09\PG=C01 [X(
 Normal termination of Gaussian 09 at Tue Aug 23 04:41:08 2022.

 ---------------------------------------------------------
 #P Geom=AllCheck Guess=TCheck SCRF=Check MP4=FrzG4/GTBas2
 ---------------------------------------------------------

 Structure from the checkpoint file:  "G4.Frag_546.chk"
 --------
 Frag_546
 --------
 Charge =  0 Multiplicity = 1

 SCF Done:  E(RHF) =  -261.831819716     A.U. after   12 cycles
 E2 =    -0.7545464946D+00 EUMP2 =    -0.26258636621050D+03
 Normal termination of Gaussian 09 at Tue Aug 23 04:42:08 2022.

 ---------------------------------------------------------
 #P Geom=AllCheck Guess=TCheck SCRF=Check MP4=FrzG4/GTBas3
 ---------------------------------------------------------

 Structure from the checkpoint file:  "G4.Frag_546.chk"
 --------
 Frag_546
 --------
 Charge =  0 Multiplicity = 1

 SCF Done:  E(RHF) =  -261.852821225     A.U. after   12 cycles
 E2 =    -0.8964750926D+00 EUMP2 =    -0.26274929631723D+03
 Normal termination of Gaussian 09 at Tue Aug 23 05:08:58 2022.

 -----------------------------------------------------------
 #P Geom=AllCheck Guess=TCheck SCRF=Check MP2=Full/GTLargeXP
 -----------------------------------------------------------

 Structure from the checkpoint file:  "G4.Frag_546.chk"
 --------
 Frag_546
 --------
 Charge =  0 Multiplicity = 1

 SCF Done:  E(RHF) =  -261.923953550     A.U. after   12 cycles
 E2 =    -0.1176473608D+01 EUMP2 =    -0.26310042715733D+03
 Normal termination of Gaussian 09 at Tue Aug 23 05:10:39 2022.
 SCF Done:  E(RHF) =  -261.944010171     A.U. after    9 cycles
 Normal termination of Gaussian 09 at Tue Aug 23 05:13:00 2022.

                         Standard orientation:
 ---------------------------------------------------------------------
 Center     Atomic      Atomic             Coordinates (Angstroms)
 Number     Number       Type             X           Y           Z
 ---------------------------------------------------------------------
      1          6           0        1.837061    0.098620    0.000112
      2          7           0        0.734423    0.726646   -0.000233
      3          6           0       -0.436537   -0.134897   -0.000065
      4          7           0       -1.552948    0.630755    0.000318
      5          8           0       -0.425092   -1.347061   -0.000089
      6          1           0        2.767974    0.665164    0.000156
      7          1           0        1.884990   -0.995096    0.000511
      8          1           0       -2.456310    0.190552   -0.000326
      9          1           0       -1.469399    1.631724   -0.000508
 ---------------------------------------------------------------------

 SCF Done:  E(RHF) =  -261.948130882     A.U. after    7 cycles

 The electronic state is 1-A.
 Alpha  occ. eigenvalues --  -20.52362 -15.58705 -15.57913 -11.37933 -11.30465
 Alpha  occ. eigenvalues --   -1.40116  -1.24709  -1.20802  -0.90847  -0.78495
 Alpha  occ. eigenvalues --   -0.74088  -0.70268  -0.63430  -0.61087  -0.60035
 Alpha  occ. eigenvalues --   -0.48623  -0.45699  -0.42348  -0.42333
 Alpha virt. eigenvalues --    0.03901   0.04025   0.05025   0.05710   0.06851
 Alpha virt. eigenvalues --    0.07515   0.07684   0.10043   0.10525   0.11385
 Alpha virt. eigenvalues --    0.12180   0.13109   0.14731   0.15109   0.16685

 Mulliken charges:
               1
     1  C   -0.146415
     2  N   -0.393905
     3  C    0.709963
     4  N   -0.707545
     5  O   -0.650380
     6  H    0.229227
     7  H    0.241144
     8  H    0.362899
     9  H    0.355014
 Sum of Mulliken charges =  -0.00000

 Dipole moment (field-independent basis, Debye):
    X=              0.3816    Y=              2.0852    Z=             -0.0014  Tot=              2.1198
 Quadrupole moment (field-independent basis, Debye-Ang):
   XX=            -18.0245   YY=            -33.5675   ZZ=            -30.5399
   XY=             -4.0157   XZ=              0.0060   YZ=             -0.0025

 Normal termination of Gaussian 09 at Tue Aug 23 06:10:51 2022.
