 Gaussian 09, Revision E.01,
 Gaussian 09:  ES64L-G09RevE.01 30-Nov-2015

 -----
 #P G4
 -----

 --------
 Frag_590
 --------
 Symbolic Z-matrix:
 Charge =  0 Multiplicity = 1

 SCF Done:  E(RB3LYP) =  -244.665924491     A.U. after   14 cycles
 SCF Done:  E(RB3LYP) =  -244.681682980     A.U. after   12 cycles
 SCF Done:  E(RB3LYP) =  -244.682345453     A.U. after   11 cycles
 SCF Done:  E(RB3LYP) =  -244.682558075     A.U. after   11 cycles
 SCF Done:  E(RB3LYP) =  -244.683173327     A.U. after   12 cycles
 SCF Done:  E(RB3LYP) =  -244.683994333     A.U. after   12 cycles
 SCF Done:  E(RB3LYP) =  -244.685136624     A.U. after   11 cycles
 SCF Done:  E(RB3LYP) =  -244.687514541     A.U. after   11 cycles
 SCF Done:  E(RB3LYP) =  -244.688622706     A.U. after   12 cycles
 SCF Done:  E(RB3LYP) =  -244.689271268     A.U. after   11 cycles
 SCF Done:  E(RB3LYP) =  -244.689591494     A.U. after    9 cycles
 SCF Done:  E(RB3LYP) =  -244.689596333     A.U. after    8 cycles
 SCF Done:  E(RB3LYP) =  -244.689596725     A.U. after    7 cycles
 Optimization completed.
    -- Stationary point found.
 Normal termination of Gaussian 09 at Thu Aug 25 11:07:14 2022.

 ----------------------------------------------------------
 #P Geom=AllCheck Guess=TCheck SCRF=Check B3LYP/GTBas3 Freq
 ----------------------------------------------------------

 Structure from the checkpoint file:  "G4.Frag_590.chk"
 --------
 Frag_590
 --------
 Charge =  0 Multiplicity = 1

 SCF Done:  E(RB3LYP) =  -244.689596725     A.U. after    1 cycles

  Exact polarizability:  50.264   2.488  49.435   0.480  -0.608  30.349
 Approx polarizability:  63.625   4.975  80.076   1.761   0.024  45.338

                      1                      2                      3
                      A                      A                      A
 Frequencies --    117.1828               241.0388               293.5643
 Red. masses --      2.2689                 1.1502                 2.7404
 Frc consts  --      0.0184                 0.0394                 0.1391
 IR Inten    --      3.0465                35.9164                 6.7796

                      4                      5                      6
                      A                      A                      A
 Frequencies --    374.1843               456.7803               512.3907
 Red. masses --      1.2338                 2.8105                 1.6616
 Frc consts  --      0.1018                 0.3455                 0.2570
 IR Inten    --     48.4266                 0.3664                71.2381

                      7                      8                      9
                      A                      A                      A
 Frequencies --    601.6385               626.3752               803.7560
 Red. masses --      3.0134                 1.7725                 2.0644
 Frc consts  --      0.6427                 0.4097                 0.7858
 IR Inten    --     45.9058               141.3042                30.7555

                     10                     11                     12
                      A                      A                      A
 Frequencies --    859.2577               910.2794              1003.1096
 Red. masses --      1.6072                 1.1578                 1.5767
 Frc consts  --      0.6991                 0.5652                 0.9348
 IR Inten    --     77.3005                36.7098                13.4611

                     13                     14                     15
                      A                      A                      A
 Frequencies --   1096.4771              1120.2683              1166.1301
 Red. masses --      2.7059                 1.7227                 1.3654
 Frc consts  --      1.9168                 1.2738                 1.0939
 IR Inten    --     19.4267                10.8678                80.1186

                     16                     17                     18
                      A                      A                      A
 Frequencies --   1183.1976              1323.2907              1382.6286
 Red. masses --      1.3044                 1.2177                 1.4155
 Frc consts  --      1.0759                 1.2563                 1.5944
 IR Inten    --     27.4744                21.4327                34.0417

                     19                     20                     21
                      A                      A                      A
 Frequencies --   1451.3045              1493.7825              1630.6769
 Red. masses --      2.1247                 1.1068                 1.2137
 Frc consts  --      2.6367                 1.4551                 1.9016
 IR Inten    --     42.0232                 1.9333                46.6771

                     22                     23                     24
                      A                      A                      A
 Frequencies --   1657.1166              1743.0067              2962.2535
 Red. masses --      1.1050                 6.2133                 1.0699
 Frc consts  --      1.7878                11.1217                 5.5312
 IR Inten    --     40.4009               170.6177                63.1701

                     25                     26                     27
                      A                      A                      A
 Frequencies --   3036.6728              3468.7522              3509.7105
 Red. masses --      1.0893                 1.0724                 1.0497
 Frc consts  --      5.9182                 7.6025                 7.6181
 IR Inten    --     20.4683                12.8559                 0.4385

                     28                     29                     30
                      A                      A                      A
 Frequencies --   3566.5524              3591.8193              3679.5060
 Red. masses --      1.0462                 1.0929                 1.0993
 Frc consts  --      7.8408                 8.3072                 8.7690
 IR Inten    --     15.2559                 2.2803                17.9400

 - Thermochemistry -
 -------------------
 Temperature   298.150 Kelvin.  Pressure   1.00000 Atm.
 Atom     1 has atomic number  7 and mass  14.00307

 Molecular mass:    73.06400 amu.
 Principal axes and moments of inertia in atomic units:
                           1         2         3
     Eigenvalues --   186.99708 472.41869 634.36895
           X            0.99986   0.01265  -0.01051
           Y           -0.01284   0.99974  -0.01862
           Z            0.01027   0.01876   0.99977
 This molecule is an asymmetric top.
 Rotational symmetry number  1.
 Rotational temperatures (Kelvin)      0.46318     0.18334     0.13654
 Rotational constants (GHZ):           9.65117     3.82022     2.84494
 Zero-point vibrational energy     274319.9 (Joules/Mol)
                                   65.56403 (Kcal/Mol)
 Warning -- explicit consideration of   7 degrees of freedom as
           vibrations may cause significant error
 Vibrational temperatures:    168.60   346.80   422.37   538.37   657.20
          (Kelvin)            737.22   865.62   901.21  1156.42  1236.28
                             1309.69  1443.25  1577.58  1611.81  1677.80
                             1702.36  1903.92  1989.29  2088.10  2149.22
                             2346.18  2384.22  2507.79  4262.02  4369.09
                             4990.75  5049.68  5131.47  5167.82  5293.98

 Zero-point correction=                           0.104483 (Hartree/Particle)
 Thermal correction to Energy=                    0.110409
 Thermal correction to Enthalpy=                  0.111353
 Thermal correction to Gibbs Free Energy=         0.075756
 Sum of electronic and zero-point Energies=           -244.585114
 Sum of electronic and thermal Energies=              -244.579188
 Sum of electronic and thermal Enthalpies=            -244.578243
 Sum of electronic and thermal Free Energies=         -244.613841

                     E (Thermal)             CV                S
                      KCal/Mol        Cal/Mol-Kelvin    Cal/Mol-Kelvin
 Total                   69.283             21.047             74.922
 Electronic               0.000              0.000              0.000
 Translational            0.889              2.981             38.783
 Rotational               0.889              2.981             25.530
 Vibrational             67.505             15.086             10.609
 Vibration     1          0.608              1.935              3.146
 Vibration     2          0.658              1.778              1.795
 Vibration     3          0.688              1.686              1.453
 Vibration     4          0.745              1.525              1.063
 Vibration     5          0.815              1.346              0.776
 Vibration     6          0.867              1.223              0.628
 Vibration     7          0.960              1.028              0.447

 Optimization completed.
    -- Stationary point found.
 Normal termination of Gaussian 09 at Thu Aug 25 11:08:42 2022.

 -----------------------------------------------------------------
 #P Geom=AllCheck Guess=TCheck SCRF=Check CCSD(T,E4T,FrzG4)/GTBas1
 -----------------------------------------------------------------

 Structure from the checkpoint file:  "G4.Frag_590.chk"
 --------
 Frag_590
 --------
 Charge =  0 Multiplicity = 1

 SCF Done:  E(RHF) =  -243.136447405     A.U. after   13 cycles
 E2 =    -0.7444884771D+00 EUMP2 =    -0.24388093588247D+03
 CCSD(T)
 CCSD(T)= -0.24394667129D+03
 SD=-243.9230253\CCSD(T)=-243.9466713\RMSD=3.956e-09\PG=C01 [X(C2H7N3)]
 Normal termination of Gaussian 09 at Thu Aug 25 11:10:37 2022.

 ---------------------------------------------------------
 #P Geom=AllCheck Guess=TCheck SCRF=Check MP4=FrzG4/GTBas2
 ---------------------------------------------------------

 Structure from the checkpoint file:  "G4.Frag_590.chk"
 --------
 Frag_590
 --------
 Charge =  0 Multiplicity = 1

 SCF Done:  E(RHF) =  -243.147521150     A.U. after   13 cycles
 E2 =    -0.7572110724D+00 EUMP2 =    -0.24390473222293D+03
 Normal termination of Gaussian 09 at Thu Aug 25 11:12:40 2022.

 ---------------------------------------------------------
 #P Geom=AllCheck Guess=TCheck SCRF=Check MP4=FrzG4/GTBas3
 ---------------------------------------------------------

 Structure from the checkpoint file:  "G4.Frag_590.chk"
 --------
 Frag_590
 --------
 Charge =  0 Multiplicity = 1

 SCF Done:  E(RHF) =  -243.174346484     A.U. after   11 cycles
 E2 =    -0.9061163983D+00 EUMP2 =    -0.24408046288225D+03
 Normal termination of Gaussian 09 at Thu Aug 25 11:52:02 2022.

 -----------------------------------------------------------
 #P Geom=AllCheck Guess=TCheck SCRF=Check MP2=Full/GTLargeXP
 -----------------------------------------------------------

 Structure from the checkpoint file:  "G4.Frag_590.chk"
 --------
 Frag_590
 --------
 Charge =  0 Multiplicity = 1

 SCF Done:  E(RHF) =  -243.239877120     A.U. after   12 cycles
 E2 =    -0.1185582412D+01 EUMP2 =    -0.24442545953257D+03
 Normal termination of Gaussian 09 at Thu Aug 25 11:54:36 2022.
 SCF Done:  E(RHF) =  -243.258641229     A.U. after    8 cycles
 Normal termination of Gaussian 09 at Thu Aug 25 11:57:32 2022.

                         Standard orientation:
 ---------------------------------------------------------------------
 Center     Atomic      Atomic             Coordinates (Angstroms)
 Number     Number       Type             X           Y           Z
 ---------------------------------------------------------------------
      1          7           0       -0.592292    1.408978    0.071663
      2          6           0       -0.562671    0.137187    0.028929
      3          7           0       -1.723058   -0.593969   -0.163281
      4          6           0        0.695450   -0.725329    0.124578
      5          7           0        1.897767    0.078601   -0.058989
      6          1           0        0.365365    1.749096    0.171603
      7          1           0       -1.737673   -1.534067    0.201708
      8          1           0       -2.568167   -0.070591    0.015434
      9          1           0        0.730261   -1.167131    1.129419
     10          1           0        0.593421   -1.566638   -0.581070
     11          1           0        2.718227   -0.437537    0.237300
     12          1           0        2.024970    0.300452   -1.041181
 ---------------------------------------------------------------------

 SCF Done:  E(RHF) =  -243.262698662     A.U. after    8 cycles

 The electronic state is 1-A.
 Alpha  occ. eigenvalues --  -15.56426 -15.55770 -15.51000 -11.30470 -11.27395
 Alpha  occ. eigenvalues --   -1.25830  -1.19037  -1.12971  -0.94436  -0.77337
 Alpha  occ. eigenvalues --   -0.71254  -0.67904  -0.64741  -0.60490  -0.58579
 Alpha  occ. eigenvalues --   -0.56190  -0.49609  -0.41749  -0.40937  -0.36362
 Alpha virt. eigenvalues --    0.03060   0.04358   0.05313   0.05480   0.07471
 Alpha virt. eigenvalues --    0.07768   0.07913   0.09928   0.10196   0.11598
 Alpha virt. eigenvalues --    0.12143   0.12872   0.14360   0.15017   0.15376

 Mulliken charges:
               1
     1  N   -0.708776
     2  C    0.411582
     3  N   -0.690091
     4  C   -0.207557
     5  N   -0.710674
     6  H    0.308608
     7  H    0.302931
     8  H    0.338786
     9  H    0.180493
    10  H    0.173476
    11  H    0.297113
    12  H    0.304110
 Sum of Mulliken charges =  -0.00000

 Dipole moment (field-independent basis, Debye):
    X=              1.4684    Y=             -3.8428    Z=              0.2480  Tot=              4.1212
 Quadrupole moment (field-independent basis, Debye-Ang):
   XX=            -26.0172   YY=            -33.7232   ZZ=            -32.1133
   XY=              2.1429   XZ=             -3.0247   YZ=             -2.0909

 Normal termination of Gaussian 09 at Thu Aug 25 13:27:05 2022.
