 Gaussian 09, Revision E.01,
 Gaussian 09:  ES64L-G09RevE.01 30-Nov-2015

 -----
 #P G4
 -----

 --------
 Frag_463
 --------
 Symbolic Z-matrix:
 Charge =  0 Multiplicity = 1

 SCF Done:  E(RB3LYP) =  -267.839095758     A.U. after   14 cycles
 SCF Done:  E(RB3LYP) =  -267.874865230     A.U. after   12 cycles
 SCF Done:  E(RB3LYP) =  -267.890460099     A.U. after   13 cycles
 SCF Done:  E(RB3LYP) =  -267.893205704     A.U. after   12 cycles
 SCF Done:  E(RB3LYP) =  -267.893406940     A.U. after   11 cycles
 SCF Done:  E(RB3LYP) =  -267.893418667     A.U. after    8 cycles
 SCF Done:  E(RB3LYP) =  -267.893422589     A.U. after    8 cycles
 SCF Done:  E(RB3LYP) =  -267.893435178     A.U. after   10 cycles
 SCF Done:  E(RB3LYP) =  -267.893421036     A.U. after   10 cycles
 SCF Done:  E(RB3LYP) =  -267.893405528     A.U. after   12 cycles
 SCF Done:  E(RB3LYP) =  -267.894226024     A.U. after    9 cycles
 SCF Done:  E(RB3LYP) =  -267.894227029     A.U. after    8 cycles
 SCF Done:  E(RB3LYP) =  -267.894227080     A.U. after    7 cycles
 Optimization completed.
    -- Stationary point found.
 Normal termination of Gaussian 09 at Tue Aug 30 10:46:36 2022.

 ----------------------------------------------------------
 #P Geom=AllCheck Guess=TCheck SCRF=Check B3LYP/GTBas3 Freq
 ----------------------------------------------------------

 Structure from the checkpoint file:  "G4.Frag_463.chk"
 --------
 Frag_463
 --------
 Charge =  0 Multiplicity = 1

 SCF Done:  E(RB3LYP) =  -267.894227080     A.U. after    1 cycles

  Exact polarizability:  83.303   7.487  67.406  -0.001   0.001  42.103
 Approx polarizability: 136.041  30.812 105.633  -0.002   0.002  63.058

                      1                      2                      3
                      A                      A                      A
 Frequencies --     77.4573               106.9092               117.9782
 Red. masses --      1.1153                 1.1020                 1.5846
 Frc consts  --      0.0039                 0.0074                 0.0130
 IR Inten    --      0.3699                 0.3517                 5.2273

                      4                      5                      6
                      A                      A                      A
 Frequencies --    204.9701               286.2554               310.7927
 Red. masses --      1.3242                 2.6020                 2.9295
 Frc consts  --      0.0328                 0.1256                 0.1667
 IR Inten    --      0.5056                 1.2973                 5.3061

                      7                      8                      9
                      A                      A                      A
 Frequencies --    400.4746               482.1786               493.2916
 Red. masses --      2.4666                 1.4994                 2.7395
 Frc consts  --      0.2331                 0.2054                 0.3928
 IR Inten    --      0.2641                43.9539                 1.4460

                     10                     11                     12
                      A                      A                      A
 Frequencies --    570.5291               631.2281               737.6030
 Red. masses --      4.0443                 1.9804                 3.8159
 Frc consts  --      0.7756                 0.4649                 1.2232
 IR Inten    --     15.8274                 7.4424                 1.3184

                     13                     14                     15
                      A                      A                      A
 Frequencies --    928.5142               995.9347              1000.5571
 Red. masses --      2.3212                 1.2453                 1.3589
 Frc consts  --      1.1790                 0.7278                 0.8015
 IR Inten    --     32.5390                 0.0126                 9.3121

                     16                     17                     18
                      A                      A                      A
 Frequencies --   1075.2681              1075.5269              1143.2237
 Red. masses --      1.4996                 1.5022                 1.3861
 Frc consts  --      1.0215                 1.0238                 1.0674
 IR Inten    --      0.2801                 6.8728                 0.0036

                     19                     20                     21
                      A                      A                      A
 Frequencies --   1156.3161              1255.5922              1341.2670
 Red. masses --      1.9915                 4.4785                 3.0350
 Frc consts  --      1.5688                 4.1599                 3.2169
 IR Inten    --     10.4901               113.9078                28.6264

                     22                     23                     24
                      A                      A                      A
 Frequencies --   1406.2469              1416.2944              1427.8190
 Red. masses --      1.4020                 1.5182                 1.2467
 Frc consts  --      1.6335                 1.7943                 1.4975
 IR Inten    --     53.9484                39.4362                 1.9791

                     25                     26                     27
                      A                      A                      A
 Frequencies --   1441.0529              1452.4263              1477.0965
 Red. masses --      1.1658                 1.0438                 1.0424
 Frc consts  --      1.4264                 1.2974                 1.3399
 IR Inten    --      4.2045                 3.8589                12.6551

                     28                     29                     30
                      A                      A                      A
 Frequencies --   1486.1056              1487.3768              1499.5065
 Red. masses --      1.1355                 1.0769                 1.0431
 Frc consts  --      1.4775                 1.4037                 1.3819
 IR Inten    --      3.9971                14.9247                 0.1535

                     31                     32                     33
                      A                      A                      A
 Frequencies --   1506.4177              1681.0243              2995.4817
 Red. masses --      1.0559                 3.3149                 1.0426
 Frc consts  --      1.4118                 5.5191                 5.5119
 IR Inten    --      7.5339                31.3639                53.3766

                     34                     35                     36
                      A                      A                      A
 Frequencies --   3007.4995              3032.7183              3040.4808
 Red. masses --      1.0391                 1.1005                 1.0965
 Frc consts  --      5.5377                 5.9637                 5.9725
 IR Inten    --     22.3886                31.4541                12.5277

                     37                     38                     39
                      A                      A                      A
 Frequencies --   3062.2841              3117.2426              3128.2260
 Red. masses --      1.0352                 1.0945                 1.0966
 Frc consts  --      5.7194                 6.2663                 6.3229
 IR Inten    --     21.6883                 2.8165                29.3654

                     40                     41                     42
                      A                      A                      A
 Frequencies --   3130.9046              3183.8193              3449.7861
 Red. masses --      1.1041                 1.0999                 1.0747
 Frc consts  --      6.3765                 6.5692                 7.5360
 IR Inten    --      8.0469                 9.8177                 1.3079

 - Thermochemistry -
 -------------------
 Temperature   298.150 Kelvin.  Pressure   1.00000 Atm.
 Atom     1 has atomic number  6 and mass  12.00000

 Molecular mass:    86.08440 amu.
 Principal axes and moments of inertia in atomic units:
                           1         2         3
     Eigenvalues --   388.51740 516.03970 871.01869
           X            0.99648  -0.08380  -0.00000
           Y            0.08380   0.99648  -0.00000
           Z            0.00000   0.00000   1.00000
 This molecule is an asymmetric top.
 Rotational symmetry number  1.
 Rotational temperatures (Kelvin)      0.22293     0.16784     0.09944
 Rotational constants (GHZ):           4.64520     3.49729     2.07199
 Zero-point vibrational energy     369775.7 (Joules/Mol)
                                   88.37852 (Kcal/Mol)
 Warning -- explicit consideration of  10 degrees of freedom as
           vibrations may cause significant error
 Vibrational temperatures:    111.44   153.82   169.74   294.91   411.86
          (Kelvin)            447.16   576.19   693.75   709.74   820.86
                              908.20  1061.24  1335.92  1432.93  1439.58
                             1547.07  1547.44  1644.84  1663.68  1806.51
                             1929.78  2023.27  2037.73  2054.31  2073.35
                             2089.71  2125.21  2138.17  2140.00  2157.45
                             2167.40  2418.62  4309.82  4327.12  4363.40
                             4374.57  4405.94  4485.01  4500.81  4504.67
                             4580.80  4963.47

 Zero-point correction=                           0.140840 (Hartree/Particle)
 Thermal correction to Energy=                    0.148768
 Thermal correction to Enthalpy=                  0.149712
 Thermal correction to Gibbs Free Energy=         0.109066
 Sum of electronic and zero-point Energies=           -267.753387
 Sum of electronic and thermal Energies=              -267.745459
 Sum of electronic and thermal Enthalpies=            -267.744515
 Sum of electronic and thermal Free Energies=         -267.785161

                     E (Thermal)             CV                S
                      KCal/Mol        Cal/Mol-Kelvin    Cal/Mol-Kelvin
 Total                   93.353             27.345             85.547
 Electronic               0.000              0.000              0.000
 Translational            0.889              2.981             39.271
 Rotational               0.889              2.981             26.660
 Vibrational             91.576             21.383             19.616
 Vibration     1          0.599              1.964              3.954
 Vibration     2          0.606              1.944              3.324
 Vibration     3          0.608              1.934              3.133
 Vibration     4          0.640              1.833              2.088
 Vibration     5          0.684              1.699              1.496
 Vibration     6          0.700              1.653              1.358
 Vibration     7          0.766              1.469              0.961
 Vibration     8          0.838              1.290              0.704
 Vibration     9          0.849              1.265              0.675
 Vibration    10          0.927              1.095              0.503

 Optimization completed.
    -- Stationary point found.
 Normal termination of Gaussian 09 at Tue Aug 30 10:47:13 2022.

 -----------------------------------------------------------------
 #P Geom=AllCheck Guess=TCheck SCRF=Check CCSD(T,E4T,FrzG4)/GTBas1
 -----------------------------------------------------------------

 Structure from the checkpoint file:  "G4.Frag_463.chk"
 --------
 Frag_463
 --------
 Charge =  0 Multiplicity = 1

 SCF Done:  E(RHF) =  -266.075110526     A.U. after   14 cycles
 E2 =    -0.8734956260D+00 EUMP2 =    -0.26694860615181D+03
 CCSD(T)
 CCSD(T)= -0.26703464952D+03
 67.0358705\MP4SDQ=-267.0000808\CCSD=-267.0000611\CCSD(T)=-267.0346495\
 Normal termination of Gaussian 09 at Tue Aug 30 10:49:41 2022.

 ---------------------------------------------------------
 #P Geom=AllCheck Guess=TCheck SCRF=Check MP4=FrzG4/GTBas2
 ---------------------------------------------------------

 Structure from the checkpoint file:  "G4.Frag_463.chk"
 --------
 Frag_463
 --------
 Charge =  0 Multiplicity = 1

 SCF Done:  E(RHF) =  -266.085120578     A.U. after   14 cycles
 E2 =    -0.8836126428D+00 EUMP2 =    -0.26696873322085D+03
 Normal termination of Gaussian 09 at Tue Aug 30 10:50:21 2022.

 ---------------------------------------------------------
 #P Geom=AllCheck Guess=TCheck SCRF=Check MP4=FrzG4/GTBas3
 ---------------------------------------------------------

 Structure from the checkpoint file:  "G4.Frag_463.chk"
 --------
 Frag_463
 --------
 Charge =  0 Multiplicity = 1

 SCF Done:  E(RHF) =  -266.111428330     A.U. after   13 cycles
 E2 =    -0.1067610962D+01 EUMP2 =    -0.26717903929178D+03
 Normal termination of Gaussian 09 at Tue Aug 30 10:54:29 2022.

 -----------------------------------------------------------
 #P Geom=AllCheck Guess=TCheck SCRF=Check MP2=Full/GTLargeXP
 -----------------------------------------------------------

 Structure from the checkpoint file:  "G4.Frag_463.chk"
 --------
 Frag_463
 --------
 Charge =  0 Multiplicity = 1

 SCF Done:  E(RHF) =  -266.176532044     A.U. after   14 cycles
 E2 =    -0.1392621784D+01 EUMP2 =    -0.26756915382764D+03
 Normal termination of Gaussian 09 at Tue Aug 30 10:56:44 2022.
 SCF Done:  E(RHF) =  -266.197395342     A.U. after    9 cycles
 Normal termination of Gaussian 09 at Tue Aug 30 10:59:14 2022.

                         Standard orientation:
 ---------------------------------------------------------------------
 Center     Atomic      Atomic             Coordinates (Angstroms)
 Number     Number       Type             X           Y           Z
 ---------------------------------------------------------------------
      1          6           0        1.253625    1.433481   -0.000040
      2          6           0        0.656087    0.053470   -0.000068
      3          6           0        1.503001   -1.176024    0.000099
      4          7           0       -0.648880   -0.161532   -0.000034
      5          6           0       -1.602577    0.961175    0.000079
      6          7           0       -1.146280   -1.394010   -0.000100
      7          1           0        2.341867    1.344016   -0.000264
      8          1           0        0.988685    2.030090    0.883650
      9          1           0        0.988403    2.030253   -0.883550
     10          1           0        1.272383   -1.806470   -0.869703
     11          1           0        2.565923   -0.926995    0.000786
     12          1           0        1.271233   -1.806934    0.869226
     13          1           0       -1.102807    1.926521   -0.000476
     14          1           0       -2.229398    0.875340    0.890866
     15          1           0       -2.230188    0.874712   -0.890121
     16          1           0       -2.160797   -1.284351    0.000110
 ---------------------------------------------------------------------

 SCF Done:  E(RHF) =  -266.201812664     A.U. after    8 cycles

 The electronic state is 1-A.
 Alpha  occ. eigenvalues --  -15.67505 -15.50135 -11.27853 -11.27523 -11.24359
 Alpha  occ. eigenvalues --  -11.21518  -1.34395  -1.08658  -1.02499  -0.95814
 Alpha  occ. eigenvalues --   -0.92921  -0.72857  -0.68475  -0.65721  -0.65418
 Alpha  occ. eigenvalues --   -0.58628  -0.58237  -0.55741  -0.54963  -0.53847
 Alpha  occ. eigenvalues --   -0.51515  -0.48280  -0.40389  -0.26268
 Alpha virt. eigenvalues --    0.02998   0.03592   0.04914   0.04930   0.06198
 Alpha virt. eigenvalues --    0.06881   0.07047   0.07498   0.07880   0.09315
 Alpha virt. eigenvalues --    0.10569   0.10768   0.10988   0.11153   0.12482

 Mulliken charges:
               1
     1  C   -0.576565
     2  C    0.165330
     3  C   -0.538896
     4  N    0.305551
     5  C   -0.527122
     6  N   -0.861006
     7  H    0.190724
     8  H    0.190706
     9  H    0.190678
    10  H    0.207723
    11  H    0.162915
    12  H    0.207850
    13  H    0.204148
    14  H    0.209157
    15  H    0.209158
    16  H    0.259648
 Sum of Mulliken charges =  -0.00000

 Dipole moment (field-independent basis, Debye):
    X=              0.5081    Y=              4.3070    Z=              0.0006  Tot=              4.3368
 Quadrupole moment (field-independent basis, Debye-Ang):
   XX=            -33.8889   YY=            -43.1424   ZZ=            -40.2410
   XY=             -3.9527   XZ=             -0.0012   YZ=             -0.0008

 Normal termination of Gaussian 09 at Tue Aug 30 11:07:43 2022.
