 Gaussian 09, Revision E.01,
 Gaussian 09:  ES64L-G09RevE.01 30-Nov-2015

 -----
 #P G4
 -----

 --------
 Frag_782
 --------
 Symbolic Z-matrix:
 Charge =  0 Multiplicity = 1

 SCF Done:  E(RB3LYP) =  -264.480742795     A.U. after   14 cycles
 SCF Done:  E(RB3LYP) =  -264.510885343     A.U. after   13 cycles
 SCF Done:  E(RB3LYP) =  -264.514490276     A.U. after   13 cycles
 SCF Done:  E(RB3LYP) =  -264.523494766     A.U. after   12 cycles
 SCF Done:  E(RB3LYP) =  -264.524281436     A.U. after   10 cycles
 SCF Done:  E(RB3LYP) =  -264.524761548     A.U. after   11 cycles
 SCF Done:  E(RB3LYP) =  -264.524947279     A.U. after   11 cycles
 SCF Done:  E(RB3LYP) =  -264.525134429     A.U. after   11 cycles
 SCF Done:  E(RB3LYP) =  -264.525288133     A.U. after   11 cycles
 SCF Done:  E(RB3LYP) =  -264.525428351     A.U. after   11 cycles
 SCF Done:  E(RB3LYP) =  -264.525678845     A.U. after    7 cycles
 SCF Done:  E(RB3LYP) =  -264.525679124     A.U. after    8 cycles
 SCF Done:  E(RB3LYP) =  -264.525679215     A.U. after    7 cycles
 Optimization completed.
    -- Stationary point found.
 Normal termination of Gaussian 09 at Tue Aug 30 11:40:19 2022.

 ----------------------------------------------------------
 #P Geom=AllCheck Guess=TCheck SCRF=Check B3LYP/GTBas3 Freq
 ----------------------------------------------------------

 Structure from the checkpoint file:  "G4.Frag_782.chk"
 --------
 Frag_782
 --------
 Charge =  0 Multiplicity = 1

 SCF Done:  E(RB3LYP) =  -264.525679215     A.U. after    1 cycles

  Exact polarizability:  57.676  -3.685  38.919  -1.047  -1.162  27.621
 Approx polarizability:  85.566  -6.546  55.424  -0.210  -2.084  40.697

                      1                      2                      3
                      A                      A                      A
 Frequencies --    121.5201               190.5770               239.4985
 Red. masses --      1.0595                 1.3696                 1.7900
 Frc consts  --      0.0092                 0.0293                 0.0605
 IR Inten    --      3.5192                20.5644                39.8152

                      4                      5                      6
                      A                      A                      A
 Frequencies --    332.4760               344.4963               456.2769
 Red. masses --      1.9573                 1.8297                 3.0394
 Frc consts  --      0.1275                 0.1279                 0.3728
 IR Inten    --      8.8082                56.0205                 1.9895

                      7                      8                      9
                      A                      A                      A
 Frequencies --    531.4682               611.6810               820.3743
 Red. masses --      2.9414                 5.3986                 4.8777
 Frc consts  --      0.4895                 1.1901                 1.9342
 IR Inten    --      3.6438                 7.8857                 5.9562

                     10                     11                     12
                      A                      A                      A
 Frequencies --    909.4127              1013.9806              1054.8012
 Red. masses --      1.9598                 1.4444                 1.6043
 Frc consts  --      0.9549                 0.8750                 1.0516
 IR Inten    --    189.2973                 1.2206                 2.2005

                     13                     14                     15
                      A                      A                      A
 Frequencies --   1112.3094              1255.0467              1323.1822
 Red. masses --      1.8708                 1.5775                 1.5304
 Frc consts  --      1.3637                 1.4640                 1.5787
 IR Inten    --     38.9549                 8.6676               211.2697

                     16                     17                     18
                      A                      A                      A
 Frequencies --   1364.3108              1401.9313              1475.3227
 Red. masses --      1.8606                 1.4314                 1.0626
 Frc consts  --      2.0405                 1.6576                 1.3627
 IR Inten    --     53.8958                46.5739                 4.1469

                     19                     20                     21
                      A                      A                      A
 Frequencies --   1498.7148              1665.3416              1777.3238
 Red. masses --      1.0576                 1.1348                 5.3521
 Frc consts  --      1.3996                 1.8544                 9.9611
 IR Inten    --      7.1879                16.0553                82.7014

                     22                     23                     24
                      A                      A                      A
 Frequencies --   3027.0173              3084.4129              3127.7439
 Red. masses --      1.0381                 1.0994                 1.0989
 Frc consts  --      5.6041                 6.1625                 6.3340
 IR Inten    --     18.3125                16.0582                 2.8583

                     25                     26                     27
                      A                      A                      A
 Frequencies --   3443.7834              3561.7548              3847.1432
 Red. masses --      1.0545                 1.0878                 1.0660
 Frc consts  --      7.3685                 8.1304                 9.2959
 IR Inten    --      3.3252                 5.0153                50.7124

 - Thermochemistry -
 -------------------
 Temperature   298.150 Kelvin.  Pressure   1.00000 Atm.
 Atom     1 has atomic number  6 and mass  12.00000

 Molecular mass:    74.04801 amu.
 Principal axes and moments of inertia in atomic units:
                           1         2         3
     Eigenvalues --   197.95056 430.55026 612.53828
           X            0.99894  -0.04417  -0.01294
           Y            0.04409   0.99901  -0.00653
           Z            0.01322   0.00595   0.99989
 This molecule is an asymmetric top.
 Rotational symmetry number  1.
 Rotational temperatures (Kelvin)      0.43755     0.20117     0.14140
 Rotational constants (GHZ):           9.11713     4.19171     2.94633
 Zero-point vibrational energy     236812.2 (Joules/Mol)
                                   56.59946 (Kcal/Mol)
 Warning -- explicit consideration of   8 degrees of freedom as
           vibrations may cause significant error
 Vibrational temperatures:    174.84   274.20   344.58   478.36   495.65
          (Kelvin)            656.48   764.66   880.07  1180.33  1308.44
                             1458.89  1517.62  1600.36  1805.73  1903.76
                             1962.94  2017.06  2122.66  2156.31  2396.05
                             2557.17  4355.20  4437.78  4500.12  4954.83
                             5124.56  5535.17

 Zero-point correction=                           0.090197 (Hartree/Particle)
 Thermal correction to Energy=                    0.096431
 Thermal correction to Enthalpy=                  0.097375
 Thermal correction to Gibbs Free Energy=         0.061124
 Sum of electronic and zero-point Energies=           -264.435482
 Sum of electronic and thermal Energies=              -264.429249
 Sum of electronic and thermal Enthalpies=            -264.428304
 Sum of electronic and thermal Free Energies=         -264.464555

                     E (Thermal)             CV                S
                      KCal/Mol        Cal/Mol-Kelvin    Cal/Mol-Kelvin
 Total                   60.511             21.075             76.297
 Electronic               0.000              0.000              0.000
 Translational            0.889              2.981             38.822
 Rotational               0.889              2.981             25.460
 Vibrational             58.734             15.113             12.014
 Vibration     1          0.609              1.931              3.076
 Vibration     2          0.634              1.853              2.222
 Vibration     3          0.657              1.780              1.807
 Vibration     4          0.714              1.611              1.248
 Vibration     5          0.723              1.586              1.191
 Vibration     6          0.815              1.347              0.777
 Vibration     7          0.886              1.180              0.584
 Vibration     8          0.971              1.007              0.430

 Optimization completed.
    -- Stationary point found.
 Normal termination of Gaussian 09 at Tue Aug 30 11:40:38 2022.

 -----------------------------------------------------------------
 #P Geom=AllCheck Guess=TCheck SCRF=Check CCSD(T,E4T,FrzG4)/GTBas1
 -----------------------------------------------------------------

 Structure from the checkpoint file:  "G4.Frag_782.chk"
 --------
 Frag_782
 --------
 Charge =  0 Multiplicity = 1

 SCF Done:  E(RHF) =  -262.926566610     A.U. after   13 cycles
 E2 =    -0.7632235675D+00 EUMP2 =    -0.26368979017716D+03
 CCSD(T)
 CCSD(T)= -0.26375124909D+03
 7519117\MP4SDQ=-263.7266715\CCSD=-263.7267161\CCSD(T)=-263.7512491\RMS
 Normal termination of Gaussian 09 at Tue Aug 30 11:41:35 2022.

 ---------------------------------------------------------
 #P Geom=AllCheck Guess=TCheck SCRF=Check MP4=FrzG4/GTBas2
 ---------------------------------------------------------

 Structure from the checkpoint file:  "G4.Frag_782.chk"
 --------
 Frag_782
 --------
 Charge =  0 Multiplicity = 1

 SCF Done:  E(RHF) =  -262.936215780     A.U. after   13 cycles
 E2 =    -0.7757788716D+00 EUMP2 =    -0.26371199465201D+03
 Normal termination of Gaussian 09 at Tue Aug 30 11:41:50 2022.

 ---------------------------------------------------------
 #P Geom=AllCheck Guess=TCheck SCRF=Check MP4=FrzG4/GTBas3
 ---------------------------------------------------------

 Structure from the checkpoint file:  "G4.Frag_782.chk"
 --------
 Frag_782
 --------
 Charge =  0 Multiplicity = 1

 SCF Done:  E(RHF) =  -262.964758145     A.U. after   12 cycles
 E2 =    -0.9313566961D+00 EUMP2 =    -0.26389611484113D+03
 Normal termination of Gaussian 09 at Tue Aug 30 11:43:05 2022.

 -----------------------------------------------------------
 #P Geom=AllCheck Guess=TCheck SCRF=Check MP2=Full/GTLargeXP
 -----------------------------------------------------------

 Structure from the checkpoint file:  "G4.Frag_782.chk"
 --------
 Frag_782
 --------
 Charge =  0 Multiplicity = 1

 SCF Done:  E(RHF) =  -263.036118374     A.U. after   12 cycles
 E2 =    -0.1216112664D+01 EUMP2 =    -0.26425223103790D+03
 Normal termination of Gaussian 09 at Tue Aug 30 11:43:53 2022.
 SCF Done:  E(RHF) =  -263.057319456     A.U. after    9 cycles
 Normal termination of Gaussian 09 at Tue Aug 30 11:44:47 2022.

                         Standard orientation:
 ---------------------------------------------------------------------
 Center     Atomic      Atomic             Coordinates (Angstroms)
 Number     Number       Type             X           Y           Z
 ---------------------------------------------------------------------
      1          6           0       -0.575180    1.367867    0.025506
      2          6           0       -0.407302   -0.128147    0.010155
      3          8           0       -1.544707   -0.880730   -0.040353
      4          7           0        0.686058   -0.773495    0.029675
      5          7           0        1.864463    0.012195    0.076602
      6          1           0       -1.464735    1.656966    0.595882
      7          1           0        0.300274    1.830395    0.487057
      8          1           0       -0.686035    1.772751   -0.987909
      9          1           0       -2.305659   -0.295991    0.016437
     10          1           0        1.924596    0.619627   -0.740079
     11          1           0        2.630455   -0.647131   -0.006469
 ---------------------------------------------------------------------

 SCF Done:  E(RHF) =  -263.061869794     A.U. after    8 cycles

 The electronic state is 1-A.
 Alpha  occ. eigenvalues --  -20.59079 -15.57484 -15.56585 -11.33077 -11.24968
 Alpha  occ. eigenvalues --   -1.41697  -1.27931  -1.07596  -0.99799  -0.79331
 Alpha  occ. eigenvalues --   -0.70564  -0.69075  -0.63236  -0.61615  -0.59884
 Alpha  occ. eigenvalues --   -0.55590  -0.54313  -0.51321  -0.42112  -0.34353
 Alpha virt. eigenvalues --    0.03079   0.04559   0.05289   0.05730   0.07423
 Alpha virt. eigenvalues --    0.07748   0.07935   0.09143   0.10125   0.11946
 Alpha virt. eigenvalues --    0.13800   0.14631   0.15101   0.15423   0.16160

 Mulliken charges:
               1
     1  C   -0.585769
     2  C    0.412478
     3  O   -0.508086
     4  N   -0.323331
     5  N   -0.593845
     6  H    0.176334
     7  H    0.232084
     8  H    0.197157
     9  H    0.373540
    10  H    0.297151
    11  H    0.322286
 Sum of Mulliken charges =  -0.00000

 Dipole moment (field-independent basis, Debye):
    X=             -1.0398    Y=              3.3951    Z=             -1.1407  Tot=              3.7295
 Quadrupole moment (field-independent basis, Debye-Ang):
   XX=            -23.4462   YY=            -33.5432   ZZ=            -31.2692
   XY=             -3.2303   XZ=             -3.0544   YZ=             -1.0677

 Normal termination of Gaussian 09 at Tue Aug 30 11:50:07 2022.
