 Gaussian 09, Revision E.01,
 Gaussian 09:  ES64L-G09RevE.01 30-Nov-2015

 -----
 #P G4
 -----

 --------
 Frag_661
 --------
 Symbolic Z-matrix:
 Charge =  0 Multiplicity = 1

 SCF Done:  E(RB3LYP) =  -305.018760507     A.U. after   12 cycles
 SCF Done:  E(RB3LYP) =  -305.024950648     A.U. after   11 cycles
 SCF Done:  E(RB3LYP) =  -305.026201062     A.U. after   11 cycles
 SCF Done:  E(RB3LYP) =  -305.026605380     A.U. after   11 cycles
 SCF Done:  E(RB3LYP) =  -305.026674923     A.U. after   11 cycles
 SCF Done:  E(RB3LYP) =  -305.026708625     A.U. after    9 cycles
 SCF Done:  E(RB3LYP) =  -305.026717464     A.U. after    8 cycles
 SCF Done:  E(RB3LYP) =  -305.026718416     A.U. after    7 cycles
 Optimization completed.
    -- Stationary point found.
 Normal termination of Gaussian 09 at Thu Aug 25 22:26:19 2022.

 ----------------------------------------------------------
 #P Geom=AllCheck Guess=TCheck SCRF=Check B3LYP/GTBas3 Freq
 ----------------------------------------------------------

 Structure from the checkpoint file:  "G4.Frag_661.chk"
 --------
 Frag_661
 --------
 Charge =  0 Multiplicity = 1

 SCF Done:  E(RB3LYP) =  -305.026718416     A.U. after    1 cycles

  Exact polarizability:  58.355   0.102  57.352   2.673  -0.813  47.813
 Approx polarizability:  75.416  -1.737  79.160   3.728  -1.207  74.456

                      1                      2                      3
                      A                      A                      A
 Frequencies --    113.6033               203.7830               239.4623
 Red. masses --      3.1218                 1.0828                 1.4917
 Frc consts  --      0.0237                 0.0265                 0.0504
 IR Inten    --      1.4827                 0.2553                 2.5882

                      4                      5                      6
                      A                      A                      A
 Frequencies --    292.0976               311.7690               359.0338
 Red. masses --      1.3552                 1.4153                 2.2508
 Frc consts  --      0.0681                 0.0811                 0.1709
 IR Inten    --     24.8953                21.1416                 5.0285

                      7                      8                      9
                      A                      A                      A
 Frequencies --    391.3508               439.0172               456.7824
 Red. masses --      2.4230                 2.0017                 1.3601
 Frc consts  --      0.2186                 0.2273                 0.1672
 IR Inten    --      6.0559                 8.5229                74.8454

                     10                     11                     12
                      A                      A                      A
 Frequencies --    520.1136               559.1373               769.6906
 Red. masses --      3.2571                 2.5665                 2.9242
 Frc consts  --      0.5191                 0.4727                 1.0207
 IR Inten    --     12.3203                 3.4140                27.4869

                     13                     14                     15
                      A                      A                      A
 Frequencies --    906.2342               918.4504               956.1389
 Red. masses --      2.8984                 1.7807                 1.8883
 Frc consts  --      1.4025                 0.8850                 1.0171
 IR Inten    --     35.3094               138.9310                17.4047

                     16                     17                     18
                      A                      A                      A
 Frequencies --   1017.5097              1078.2577              1116.7657
 Red. masses --      1.4120                 1.8927                 2.4452
 Frc consts  --      0.8613                 1.2965                 1.7967
 IR Inten    --      2.1436                32.8554                30.2147

                     19                     20                     21
                      A                      A                      A
 Frequencies --   1146.8949              1198.8208              1224.3313
 Red. masses --      1.4932                 1.8917                 2.4966
 Frc consts  --      1.1573                 1.6018                 2.2050
 IR Inten    --      9.5669                 6.3036                24.1292

                     22                     23                     24
                      A                      A                      A
 Frequencies --   1285.2652              1349.0108              1392.9279
 Red. masses --      1.7475                 1.1735                 1.2181
 Frc consts  --      1.7008                 1.2582                 1.3925
 IR Inten    --     10.6026                21.6158                 0.6810

                     25                     26                     27
                      A                      A                      A
 Frequencies --   1417.5759              1427.3169              1443.7488
 Red. masses --      1.1868                 1.4895                 1.2059
 Frc consts  --      1.4051                 1.7879                 1.4810
 IR Inten    --     34.6452                16.5597                20.0385

                     28                     29                     30
                      A                      A                      A
 Frequencies --   1483.9557              1495.9235              1497.8825
 Red. masses --      1.0587                 1.0646                 1.0462
 Frc consts  --      1.3736                 1.4036                 1.3829
 IR Inten    --     14.0098                 5.0407                 4.1767

                     31                     32                     33
                      A                      A                      A
 Frequencies --   1499.8865              1675.2848              2892.4241
 Red. masses --      1.0539                 1.0900                 1.0805
 Frc consts  --      1.3970                 1.8024                 5.3260
 IR Inten    --     12.9589                26.9350                45.9304

                     34                     35                     36
                      A                      A                      A
 Frequencies --   2917.4851              3045.8137              3094.1308
 Red. masses --      1.0612                 1.0378                 1.0697
 Frc consts  --      5.3219                 5.6727                 6.0338
 IR Inten    --     89.4577                11.9100                21.7941

                     37                     38                     39
                      A                      A                      A
 Frequencies --   3119.8046              3136.0529              3142.8524
 Red. masses --      1.0985                 1.1026                 1.1027
 Frc consts  --      6.2995                 6.3891                 6.4174
 IR Inten    --     18.0821                21.6528                10.1014

                     40                     41                     42
                      A                      A                      A
 Frequencies --   3477.7994              3556.8961              3575.1689
 Red. masses --      1.0505                 1.0887                 1.0668
 Frc consts  --      7.4863                 8.1155                 8.0339
 IR Inten    --      1.0481                 3.1352                 4.3327

 - Thermochemistry -
 -------------------
 Temperature   298.150 Kelvin.  Pressure   1.00000 Atm.
 Atom     1 has atomic number  6 and mass  12.00000

 Molecular mass:    90.07931 amu.
 Principal axes and moments of inertia in atomic units:
                           1         2         3
     Eigenvalues --   384.16107 562.83801 874.06748
           X            0.99942   0.02745   0.02006
           Y           -0.02742   0.99962  -0.00182
           Z           -0.02010   0.00127   0.99980
 This molecule is an asymmetric top.
 Rotational symmetry number  1.
 Rotational temperatures (Kelvin)      0.22546     0.15389     0.09909
 Rotational constants (GHZ):           4.69788     3.20650     2.06476
 Zero-point vibrational energy     371718.3 (Joules/Mol)
                                   88.84281 (Kcal/Mol)
 Warning -- explicit consideration of  11 degrees of freedom as
           vibrations may cause significant error
 Vibrational temperatures:    163.45   293.20   344.53   420.26   448.57
          (Kelvin)            516.57   563.07   631.65   657.21   748.33
                              804.47  1107.41  1303.87  1321.44  1375.67
                             1463.97  1551.37  1606.77  1650.12  1724.83
                             1761.54  1849.21  1940.92  2004.11  2039.57
                             2053.59  2077.23  2135.08  2152.30  2155.12
                             2158.00  2410.36  4161.55  4197.61  4382.24
                             4451.76  4488.70  4512.07  4521.86  5003.77
                             5117.57  5143.86

 Zero-point correction=                           0.141580 (Hartree/Particle)
 Thermal correction to Energy=                    0.149051
 Thermal correction to Enthalpy=                  0.149995
 Thermal correction to Gibbs Free Energy=         0.111006
 Sum of electronic and zero-point Energies=           -304.885138
 Sum of electronic and thermal Energies=              -304.877668
 Sum of electronic and thermal Enthalpies=            -304.876723
 Sum of electronic and thermal Free Energies=         -304.915713

                     E (Thermal)             CV                S
                      KCal/Mol        Cal/Mol-Kelvin    Cal/Mol-Kelvin
 Total                   93.531             27.637             82.059
 Electronic               0.000              0.000              0.000
 Translational            0.889              2.981             39.407
 Rotational               0.889              2.981             26.738
 Vibrational             91.753             21.675             15.915
 Vibration     1          0.607              1.938              3.206
 Vibration     2          0.639              1.835              2.099
 Vibration     3          0.657              1.780              1.807
 Vibration     4          0.687              1.688              1.462
 Vibration     5          0.700              1.651              1.353
 Vibration     6          0.734              1.557              1.126
 Vibration     7          0.759              1.489              0.995
 Vibration     8          0.799              1.385              0.830
 Vibration     9          0.815              1.346              0.776
 Vibration    10          0.875              1.205              0.610
 Vibration    11          0.915              1.120              0.526

 Optimization completed.
    -- Stationary point found.
 Normal termination of Gaussian 09 at Thu Aug 25 22:29:21 2022.

 -----------------------------------------------------------------
 #P Geom=AllCheck Guess=TCheck SCRF=Check CCSD(T,E4T,FrzG4)/GTBas1
 -----------------------------------------------------------------

 Structure from the checkpoint file:  "G4.Frag_661.chk"
 --------
 Frag_661
 --------
 Charge =  0 Multiplicity = 1

 SCF Done:  E(RHF) =  -303.100436345     A.U. after   12 cycles
 E2 =    -0.9081049952D+00 EUMP2 =    -0.30400854134019D+03
 CCSD(T)
 CCSD(T)= -0.30409322825D+03
 DTQ=-304.0923891\MP4SDQ=-304.0650813\CCSD=-304.0659351\CCSD(T)=-304.09
 Normal termination of Gaussian 09 at Thu Aug 25 22:36:08 2022.

 ---------------------------------------------------------
 #P Geom=AllCheck Guess=TCheck SCRF=Check MP4=FrzG4/GTBas2
 ---------------------------------------------------------

 Structure from the checkpoint file:  "G4.Frag_661.chk"
 --------
 Frag_661
 --------
 Charge =  0 Multiplicity = 1

 SCF Done:  E(RHF) =  -303.109826809     A.U. after   12 cycles
 E2 =    -0.9229577941D+00 EUMP2 =    -0.30403278460294D+03
 Normal termination of Gaussian 09 at Thu Aug 25 22:45:48 2022.

 ---------------------------------------------------------
 #P Geom=AllCheck Guess=TCheck SCRF=Check MP4=FrzG4/GTBas3
 ---------------------------------------------------------

 Structure from the checkpoint file:  "G4.Frag_661.chk"
 --------
 Frag_661
 --------
 Charge =  0 Multiplicity = 1

 SCF Done:  E(RHF) =  -303.143615604     A.U. after   11 cycles
 E2 =    -0.1124212989D+01 EUMP2 =    -0.30426782859237D+03
 Normal termination of Gaussian 09 at Fri Aug 26 02:26:58 2022.

 -----------------------------------------------------------
 #P Geom=AllCheck Guess=TCheck SCRF=Check MP2=Full/GTLargeXP
 -----------------------------------------------------------

 Structure from the checkpoint file:  "G4.Frag_661.chk"
 --------
 Frag_661
 --------
 Charge =  0 Multiplicity = 1

 SCF Done:  E(RHF) =  -303.222074609     A.U. after   11 cycles
 E2 =    -0.1465075361D+01 EUMP2 =    -0.30468714996969D+03
 Normal termination of Gaussian 09 at Fri Aug 26 02:34:07 2022.
 SCF Done:  E(RHF) =  -303.246065331     A.U. after    8 cycles
 Normal termination of Gaussian 09 at Fri Aug 26 02:40:32 2022.

                         Standard orientation:
 ---------------------------------------------------------------------
 Center     Atomic      Atomic             Coordinates (Angstroms)
 Number     Number       Type             X           Y           Z
 ---------------------------------------------------------------------
      1          6           0       -1.469340    1.224217   -0.005838
      2          6           0       -0.665771   -0.035622    0.313758
      3          7           0       -1.438769   -1.209813   -0.042017
      4          7           0        0.644226   -0.012290   -0.376312
      5          6           0        1.497137    1.111463   -0.021246
      6          8           0        1.339911   -1.205208   -0.011795
      7          1           0       -2.481489    1.099663    0.384385
      8          1           0       -1.035724    2.121007    0.441380
      9          1           0       -1.528342    1.370697   -1.089832
     10          1           0       -0.484875   -0.084296    1.407177
     11          1           0       -0.838505   -2.023024    0.065195
     12          1           0       -1.655957   -1.161963   -1.035688
     13          1           0        1.067472    2.039347   -0.403889
     14          1           0        2.473644    0.961914   -0.485605
     15          1           0        1.638398    1.213468    1.073088
     16          1           0        1.515731   -1.140781    0.946401
 ---------------------------------------------------------------------

 SCF Done:  E(RHF) =  -303.251362894     A.U. after    8 cycles

 The electronic state is 1-A.
 Alpha  occ. eigenvalues --  -20.58781 -15.60883 -15.53553 -11.28999 -11.25506
 Alpha  occ. eigenvalues --  -11.22123  -1.41064  -1.20223  -1.11894  -0.98727
 Alpha  occ. eigenvalues --   -0.91379  -0.80889  -0.69866  -0.67583  -0.66832
 Alpha  occ. eigenvalues --   -0.62320  -0.60221  -0.55971  -0.55720  -0.53888
 Alpha  occ. eigenvalues --   -0.51788  -0.49520  -0.47731  -0.41124  -0.39151
 Alpha virt. eigenvalues --    0.03360   0.04074   0.04546   0.05448   0.06806
 Alpha virt. eigenvalues --    0.06983   0.07353   0.07655   0.08629   0.10022
 Alpha virt. eigenvalues --    0.11396   0.12013   0.12507   0.13118   0.13740

 Mulliken charges:
               1
     1  C   -0.554642
     2  C    0.073996
     3  N   -0.690248
     4  N    0.048754
     5  C   -0.488529
     6  O   -0.522417
     7  H    0.204242
     8  H    0.165881
     9  H    0.176565
    10  H    0.136659
    11  H    0.301087
    12  H    0.280733
    13  H    0.183622
    14  H    0.199233
    15  H    0.136861
    16  H    0.348206
 Sum of Mulliken charges =  -0.00000

 Dipole moment (field-independent basis, Debye):
    X=              0.6883    Y=              1.7100    Z=              1.2070  Tot=              2.2034
 Quadrupole moment (field-independent basis, Debye-Ang):
   XX=            -41.4134   YY=            -38.2026   ZZ=            -37.5065
   XY=              0.0005   XZ=              4.6518   YZ=             -0.8497

 Normal termination of Gaussian 09 at Fri Aug 26 05:50:20 2022.
