 Gaussian 09, Revision E.01,
 Gaussian 09:  ES64L-G09RevE.01 30-Nov-2015

 -----
 #P G4
 -----

 --------
 Frag_518
 --------
 Symbolic Z-matrix:
 Charge =  0 Multiplicity = 1

 SCF Done:  E(RB3LYP) =  -251.763025989     A.U. after   13 cycles
 SCF Done:  E(RB3LYP) =  -251.865571153     A.U. after   12 cycles
 SCF Done:  E(RB3LYP) =  -251.897258895     A.U. after   13 cycles
 SCF Done:  E(RB3LYP) =  -251.903695541     A.U. after   11 cycles
 SCF Done:  E(RB3LYP) =  -251.904544030     A.U. after   11 cycles
 SCF Done:  E(RB3LYP) =  -251.904690060     A.U. after   11 cycles
 SCF Done:  E(RB3LYP) =  -251.904717569     A.U. after   11 cycles
 SCF Done:  E(RB3LYP) =  -251.904725283     A.U. after   10 cycles
 SCF Done:  E(RB3LYP) =  -251.904741377     A.U. after   10 cycles
 SCF Done:  E(RB3LYP) =  -251.904728264     A.U. after    9 cycles
 SCF Done:  E(RB3LYP) =  -251.907339752     A.U. after   11 cycles
 SCF Done:  E(RB3LYP) =  -251.907340575     A.U. after    8 cycles
 SCF Done:  E(RB3LYP) =  -251.907340744     A.U. after    7 cycles
 Optimization completed.
    -- Stationary point found.
 Normal termination of Gaussian 09 at Tue Aug 30 11:15:41 2022.

 ----------------------------------------------------------
 #P Geom=AllCheck Guess=TCheck SCRF=Check B3LYP/GTBas3 Freq
 ----------------------------------------------------------

 Structure from the checkpoint file:  "G4.Frag_518.chk"
 --------
 Frag_518
 --------
 Charge =  0 Multiplicity = 1

 SCF Done:  E(RB3LYP) =  -251.907340744     A.U. after    1 cycles

  Exact polarizability:  74.746  -1.675  58.455   0.002  -0.004  53.739
 Approx polarizability: 105.017  -5.770  84.606   0.007  -0.009  74.707

                      1                      2                      3
                      A                      A                      A
 Frequencies --    103.9360               213.1626               260.3240
 Red. masses --      2.8335                 1.0192                 1.0315
 Frc consts  --      0.0180                 0.0273                 0.0412
 IR Inten    --      6.4373                 0.0900                 0.1688

                      4                      5                      6
                      A                      A                      A
 Frequencies --    292.5662               316.0688               338.4964
 Red. masses --      1.0349                 2.4489                 2.2714
 Frc consts  --      0.0522                 0.1441                 0.1533
 IR Inten    --      0.0008                 0.8346                 3.3973

                      7                      8                      9
                      A                      A                      A
 Frequencies --    364.2708               407.0910               414.0785
 Red. masses --      2.3987                 2.2911                 1.9464
 Frc consts  --      0.1875                 0.2237                 0.1966
 IR Inten    --      1.6503                 0.5456                 4.0218

                     10                     11                     12
                      A                      A                      A
 Frequencies --    532.1194               716.7647               750.1242
 Red. masses --      2.7419                 3.7449                 1.3674
 Frc consts  --      0.4574                 1.1336                 0.4533
 IR Inten    --      4.4145                 2.3812                 2.1143

                     13                     14                     15
                      A                      A                      A
 Frequencies --    861.9619               923.0485               926.8379
 Red. masses --      2.4334                 1.6194                 1.6719
 Frc consts  --      1.0652                 0.8129                 0.8462
 IR Inten    --      5.1022                 0.0088                 0.2923

                     16                     17                     18
                      A                      A                      A
 Frequencies --    958.6492              1042.9289              1047.0281
 Red. masses --      1.2075                 1.4185                 1.3803
 Frc consts  --      0.6538                 0.9090                 0.8915
 IR Inten    --      0.0035                 0.7880                 1.3426

                     19                     20                     21
                      A                      A                      A
 Frequencies --   1061.9060              1207.7902              1234.9513
 Red. masses --      1.3701                 1.5839                 2.4192
 Frc consts  --      0.9103                 1.3614                 2.1738
 IR Inten    --     13.0392                 0.3215                24.6577

                     22                     23                     24
                      A                      A                      A
 Frequencies --   1247.2802              1269.2358              1390.8980
 Red. masses --      2.8798                 2.4428                 1.2337
 Frc consts  --      2.6396                 2.3186                 1.4062
 IR Inten    --      9.8402                21.8093                 4.7135

                     25                     26                     27
                      A                      A                      A
 Frequencies --   1393.1236              1420.7581              1472.9937
 Red. masses --      1.2579                 1.2226                 1.0485
 Frc consts  --      1.4384                 1.4540                 1.3404
 IR Inten    --     10.0763                 2.5438                 0.0268

                     28                     29                     30
                      A                      A                      A
 Frequencies --   1483.7009              1485.6044              1496.3086
 Red. masses --      1.0511                 1.0447                 1.0592
 Frc consts  --      1.3633                 1.3585                 1.3972
 IR Inten    --      0.3324                 0.2144                 3.5417

                     31                     32                     33
                      A                      A                      A
 Frequencies --   1501.3374              1504.0811              1522.7785
 Red. masses --      1.0525                 1.1018                 1.0871
 Frc consts  --      1.3978                 1.4686                 1.4852
 IR Inten    --      3.6191                 7.7154                 4.5569

                     34                     35                     36
                      A                      A                      A
 Frequencies --   1742.8784              3028.0076              3034.0016
 Red. masses --      6.5472                 1.0442                 1.0343
 Frc consts  --     11.7176                 5.6408                 5.6094
 IR Inten    --     17.4378                 2.1753                27.5740

                     37                     38                     39
                      A                      A                      A
 Frequencies --   3035.2853              3041.0608              3099.5142
 Red. masses --      1.0475                 1.0380                 1.1019
 Frc consts  --      5.6858                 5.6558                 6.2369
 IR Inten    --     56.0323                 7.8372                 8.9247

                     40                     41                     42
                      A                      A                      A
 Frequencies --   3103.0043              3105.0867              3110.2591
 Red. masses --      1.1011                 1.1018                 1.1007
 Frc consts  --      6.2467                 6.2588                 6.2734
 IR Inten    --      0.4212                33.3700                63.5838

                     43                     44                     45
                      A                      A                      A
 Frequencies --   3119.9992              3121.0697              3124.7817
 Red. masses --      1.1019                 1.1094                 1.1012
 Frc consts  --      6.3198                 6.3673                 6.3353
 IR Inten    --      2.5745                26.8169                47.2474

 - Thermochemistry -
 -------------------
 Temperature   298.150 Kelvin.  Pressure   1.00000 Atm.
 Atom     1 has atomic number  6 and mass  12.00000

 Molecular mass:    85.08915 amu.
 Principal axes and moments of inertia in atomic units:
                           1         2         3
     Eigenvalues --   408.92760 630.25234 641.81270
           X            0.99917  -0.04066   0.00002
           Y            0.04066   0.99917   0.00009
           Z           -0.00002  -0.00009   1.00000
 This molecule is an asymmetric top.
 Rotational symmetry number  1.
 Rotational temperatures (Kelvin)      0.21181     0.13743     0.13495
 Rotational constants (GHZ):           4.41335     2.86352     2.81194
 Zero-point vibrational energy     399715.1 (Joules/Mol)
                                   95.53421 (Kcal/Mol)
 Warning -- explicit consideration of  10 degrees of freedom as
           vibrations may cause significant error
 Vibrational temperatures:    149.54   306.69   374.55   420.94   454.75
          (Kelvin)            487.02   524.10   585.71   595.77   765.60
                             1031.26  1079.26  1240.17  1328.06  1333.51
                             1379.28  1500.54  1506.44  1527.84  1737.74
                             1776.82  1794.56  1826.14  2001.19  2004.39
                             2044.15  2119.31  2134.71  2137.45  2152.85
                             2160.09  2164.03  2190.94  2507.61  4356.62
                             4365.25  4367.09  4375.40  4459.50  4464.53
                             4467.52  4474.96  4488.98  4490.52  4495.86

 Zero-point correction=                           0.152243 (Hartree/Particle)
 Thermal correction to Energy=                    0.159777
 Thermal correction to Enthalpy=                  0.160721
 Thermal correction to Gibbs Free Energy=         0.121751
 Sum of electronic and zero-point Energies=           -251.755097
 Sum of electronic and thermal Energies=              -251.747564
 Sum of electronic and thermal Enthalpies=            -251.746620
 Sum of electronic and thermal Free Energies=         -251.785589

                     E (Thermal)             CV                S
                      KCal/Mol        Cal/Mol-Kelvin    Cal/Mol-Kelvin
 Total                  100.261             28.049             82.018
 Electronic               0.000              0.000              0.000
 Translational            0.889              2.981             39.237
 Rotational               0.889              2.981             26.606
 Vibrational             98.484             22.088             16.176
 Vibration     1          0.605              1.946              3.379
 Vibration     2          0.644              1.821              2.016
 Vibration     3          0.668              1.745              1.660
 Vibration     4          0.688              1.688              1.459
 Vibration     5          0.703              1.643              1.330
 Vibration     6          0.719              1.599              1.219
 Vibration     7          0.738              1.546              1.104
 Vibration     8          0.772              1.455              0.937
 Vibration     9          0.778              1.440              0.912
 Vibration    10          0.887              1.179              0.582

 Optimization completed.
    -- Stationary point found.
 Normal termination of Gaussian 09 at Tue Aug 30 11:16:23 2022.

 -----------------------------------------------------------------
 #P Geom=AllCheck Guess=TCheck SCRF=Check CCSD(T,E4T,FrzG4)/GTBas1
 -----------------------------------------------------------------

 Structure from the checkpoint file:  "G4.Frag_518.chk"
 --------
 Frag_518
 --------
 Charge =  0 Multiplicity = 1

 SCF Done:  E(RHF) =  -250.167294357     A.U. after   12 cycles
 E2 =    -0.8192598653D+00 EUMP2 =    -0.25098655422214D+03
 CCSD(T)
 CCSD(T)= -0.25107996120D+03
 1.0493009\CCSD=-251.0505743\CCSD(T)=-251.0799612\RMSD=5.025e-09\PG=C01
 Normal termination of Gaussian 09 at Tue Aug 30 11:18:35 2022.

 ---------------------------------------------------------
 #P Geom=AllCheck Guess=TCheck SCRF=Check MP4=FrzG4/GTBas2
 ---------------------------------------------------------

 Structure from the checkpoint file:  "G4.Frag_518.chk"
 --------
 Frag_518
 --------
 Charge =  0 Multiplicity = 1

 SCF Done:  E(RHF) =  -250.172339597     A.U. after   12 cycles
 E2 =    -0.8289186015D+00 EUMP2 =    -0.25100125819811D+03
 Normal termination of Gaussian 09 at Tue Aug 30 11:19:20 2022.

 ---------------------------------------------------------
 #P Geom=AllCheck Guess=TCheck SCRF=Check MP4=FrzG4/GTBas3
 ---------------------------------------------------------

 Structure from the checkpoint file:  "G4.Frag_518.chk"
 --------
 Frag_518
 --------
 Charge =  0 Multiplicity = 1

 SCF Done:  E(RHF) =  -250.198174294     A.U. after   11 cycles
 E2 =    -0.1011028222D+01 EUMP2 =    -0.25120920251572D+03
 Normal termination of Gaussian 09 at Tue Aug 30 11:23:58 2022.

 -----------------------------------------------------------
 #P Geom=AllCheck Guess=TCheck SCRF=Check MP2=Full/GTLargeXP
 -----------------------------------------------------------

 Structure from the checkpoint file:  "G4.Frag_518.chk"
 --------
 Frag_518
 --------
 Charge =  0 Multiplicity = 1

 SCF Done:  E(RHF) =  -250.252613132     A.U. after   12 cycles
 E2 =    -0.1330919646D+01 EUMP2 =    -0.25158353277814D+03
 Normal termination of Gaussian 09 at Tue Aug 30 11:26:26 2022.
 SCF Done:  E(RHF) =  -250.272058628     A.U. after    8 cycles
 Normal termination of Gaussian 09 at Tue Aug 30 11:29:04 2022.

                         Standard orientation:
 ---------------------------------------------------------------------
 Center     Atomic      Atomic             Coordinates (Angstroms)
 Number     Number       Type             X           Y           Z
 ---------------------------------------------------------------------
      1          6           0       -2.063529   -0.150607   -0.000004
      2          7           0       -0.948153   -0.742488    0.000572
      3          6           0        0.322115    0.001737   -0.000042
      4          6           0        1.077940   -0.466635   -1.258168
      5          6           0        0.200486    1.533762   -0.001329
      6          6           0        1.077616   -0.464313    1.259146
      7          1           0       -2.975003   -0.752118    0.000618
      8          1           0       -2.205597    0.936422   -0.000950
      9          1           0        0.556287   -0.146433   -2.165685
     10          1           0        1.147819   -1.557242   -1.274514
     11          1           0        2.089314   -0.048206   -1.277801
     12          1           0       -0.326246    1.899221   -0.889062
     13          1           0       -0.326673    1.900677    0.885569
     14          1           0        1.197313    1.984631   -0.001456
     15          1           0        1.147622   -1.554874    1.277380
     16          1           0        2.088924   -0.045719    1.278392
     17          1           0        0.555543   -0.142598    2.165884
 ---------------------------------------------------------------------

 SCF Done:  E(RHF) =  -250.276095230     A.U. after    8 cycles

 The electronic state is 1-A.
 Alpha  occ. eigenvalues --  -15.55554 -11.26657 -11.26421 -11.21603 -11.20958
 Alpha  occ. eigenvalues --  -11.20956  -1.22848  -1.06418  -0.93878  -0.92956
 Alpha  occ. eigenvalues --   -0.84931  -0.73133  -0.65871  -0.63383  -0.60455
 Alpha  occ. eigenvalues --   -0.58375  -0.54534  -0.53864  -0.51855  -0.51356
 Alpha  occ. eigenvalues --   -0.48336  -0.46773  -0.41177  -0.39502
 Alpha virt. eigenvalues --    0.03277   0.04068   0.04412   0.04521   0.06160
 Alpha virt. eigenvalues --    0.06592   0.06663   0.07396   0.07455   0.09452
 Alpha virt. eigenvalues --    0.09701   0.09981   0.10020   0.12003   0.13243

 Mulliken charges:
               1
     1  C   -0.236001
     2  N   -0.380230
     3  C    0.420393
     4  C   -0.562933
     5  C   -0.618328
     6  C   -0.562904
     7  H    0.210027
     8  H    0.175963
     9  H    0.167027
    10  H    0.184447
    11  H    0.164009
    12  H    0.170755
    13  H    0.170758
    14  H    0.181553
    15  H    0.184433
    16  H    0.164001
    17  H    0.167030
 Sum of Mulliken charges =  -0.00000

 Dipole moment (field-independent basis, Debye):
    X=             -0.2272    Y=              1.6371    Z=             -0.0014  Tot=              1.6528
 Quadrupole moment (field-independent basis, Debye-Ang):
   XX=            -36.0438   YY=            -41.7549   ZZ=            -40.5223
   XY=             -1.6059   XZ=              0.0011   YZ=              0.0012

 Normal termination of Gaussian 09 at Tue Aug 30 11:38:36 2022.
