 Gaussian 09, Revision E.01,
 Gaussian 09:  ES64L-G09RevE.01 30-Nov-2015

 -----
 #P G4
 -----

 --------
 Frag_596
 --------
 Symbolic Z-matrix:
 Charge =  0 Multiplicity = 1

 SCF Done:  E(RB3LYP) =  -307.668295986     A.U. after   13 cycles
 SCF Done:  E(RB3LYP) =  -307.683750987     A.U. after   12 cycles
 SCF Done:  E(RB3LYP) =  -307.684912271     A.U. after   11 cycles
 SCF Done:  E(RB3LYP) =  -307.685359655     A.U. after   11 cycles
 SCF Done:  E(RB3LYP) =  -307.685477364     A.U. after   10 cycles
 SCF Done:  E(RB3LYP) =  -307.685514168     A.U. after    9 cycles
 SCF Done:  E(RB3LYP) =  -307.685525802     A.U. after    8 cycles
 SCF Done:  E(RB3LYP) =  -307.685533113     A.U. after    9 cycles
 SCF Done:  E(RB3LYP) =  -307.685534086     A.U. after    8 cycles
 Optimization completed.
    -- Stationary point found.
 Normal termination of Gaussian 09 at Fri Aug 26 14:54:51 2022.

 ----------------------------------------------------------
 #P Geom=AllCheck Guess=TCheck SCRF=Check B3LYP/GTBas3 Freq
 ----------------------------------------------------------

 Structure from the checkpoint file:  "G4.Frag_596.chk"
 --------
 Frag_596
 --------
 Charge =  0 Multiplicity = 1

 SCF Done:  E(RB3LYP) =  -307.685534086     A.U. after    1 cycles

  Exact polarizability:  61.609  -4.146  49.683   2.532  -6.251  42.945
 Approx polarizability:  83.054 -11.185  74.843   3.420 -12.037  63.048

                      1                      2                      3
                      A                      A                      A
 Frequencies --     81.5848               227.4511               239.1969
 Red. masses --      4.0737                 1.5749                 1.6695
 Frc consts  --      0.0160                 0.0480                 0.0563
 IR Inten    --      1.4701                 5.3156                 2.0067

                      4                      5                      6
                      A                      A                      A
 Frequencies --    272.8564               342.9676               366.6630
 Red. masses --      2.2560                 1.4682                 2.1994
 Frc consts  --      0.0990                 0.1018                 0.1742
 IR Inten    --     10.3198                54.3899                55.8176

                      7                      8                      9
                      A                      A                      A
 Frequencies --    419.8465               464.0637               606.0452
 Red. masses --      1.1188                 2.4313                 2.8286
 Frc consts  --      0.1162                 0.3085                 0.6121
 IR Inten    --     84.1161                22.3275                13.3311

                     10                     11                     12
                      A                      A                      A
 Frequencies --    667.3032               731.4822               782.2308
 Red. masses --      2.5766                 1.3160                 2.5365
 Frc consts  --      0.6760                 0.4149                 0.9144
 IR Inten    --      6.3548                 0.1835                 8.4163

                     13                     14                     15
                      A                      A                      A
 Frequencies --    829.6439               921.6598               978.9473
 Red. masses --      1.4362                 2.1695                 1.8204
 Frc consts  --      0.5825                 1.0858                 1.0279
 IR Inten    --     49.5730                 5.1384                23.0222

                     16                     17                     18
                      A                      A                      A
 Frequencies --   1025.6233              1092.3389              1106.0251
 Red. masses --      1.6626                 2.7832                 1.8677
 Frc consts  --      1.0304                 1.9566                 1.3461
 IR Inten    --     69.4698                14.7173                87.6448

                     19                     20                     21
                      A                      A                      A
 Frequencies --   1192.7141              1291.5857              1339.0856
 Red. masses --      1.5681                 1.3429                 1.3287
 Frc consts  --      1.3143                 1.3199                 1.4038
 IR Inten    --    120.3686                 9.5714                12.8098

                     22                     23                     24
                      A                      A                      A
 Frequencies --   1374.7993              1397.6864              1422.4164
 Red. masses --      2.2361                 1.3119                 1.1828
 Frc consts  --      2.4902                 1.5100                 1.4100
 IR Inten    --      8.8099                 7.3632                66.8465

                     25                     26                     27
                      A                      A                      A
 Frequencies --   1460.8535              1488.6438              1499.0816
 Red. masses --      1.1741                 1.0531                 1.0809
 Frc consts  --      1.4763                 1.3750                 1.4312
 IR Inten    --     15.5527                10.4810                 3.5875

                     28                     29                     30
                      A                      A                      A
 Frequencies --   1731.6087              3039.8377              3074.2333
 Red. masses --      6.0630                 1.0341                 1.0865
 Frc consts  --     10.7113                 5.6300                 6.0501
 IR Inten    --     98.9118                14.2565                12.4018

                     31                     32                     33
                      A                      A                      A
 Frequencies --   3115.2058              3125.3206              3152.6809
 Red. masses --      1.1011                 1.1027                 1.0651
 Frc consts  --      6.2956                 6.3457                 6.2373
 IR Inten    --     26.7177                21.5059                 5.4808

                     34                     35                     36
                      A                      A                      A
 Frequencies --   3249.6586              3800.5597              3815.4956
 Red. masses --      1.1112                 1.0654                 1.0657
 Frc consts  --      6.9138                 9.0671                 9.1407
 IR Inten    --      6.5656                25.6420                36.4905

 - Thermochemistry -
 -------------------
 Temperature   298.150 Kelvin.  Pressure   1.00000 Atm.
 Atom     1 has atomic number  6 and mass  12.00000

 Molecular mass:    88.05243 amu.
 Principal axes and moments of inertia in atomic units:
                           1         2         3
     Eigenvalues --   363.82849 663.03112 707.37537
           X            0.99886   0.02147   0.04270
           Y           -0.01829   0.99713  -0.07343
           Z           -0.04415   0.07257   0.99639
 This molecule is an asymmetric top.
 Rotational symmetry number  1.
 Rotational temperatures (Kelvin)      0.23806     0.13063     0.12244
 Rotational constants (GHZ):           4.96042     2.72196     2.55132
 Zero-point vibrational energy     309398.5 (Joules/Mol)
                                   73.94803 (Kcal/Mol)
 Warning -- explicit consideration of   9 degrees of freedom as
           vibrations may cause significant error
 Vibrational temperatures:    117.38   327.25   344.15   392.58   493.45
          (Kelvin)            527.55   604.06   667.68   871.96   960.10
                             1052.44  1125.45  1193.67  1326.06  1408.49
                             1475.64  1571.63  1591.32  1716.05  1858.30
                             1926.64  1978.03  2010.96  2046.54  2101.84
                             2141.82  2156.84  2491.40  4373.64  4423.13
                             4482.08  4496.63  4536.00  4675.53  5468.15
                             5489.64

 Zero-point correction=                           0.117844 (Hartree/Particle)
 Thermal correction to Energy=                    0.124967
 Thermal correction to Enthalpy=                  0.125911
 Thermal correction to Gibbs Free Energy=         0.087356
 Sum of electronic and zero-point Energies=           -307.567690
 Sum of electronic and thermal Energies=              -307.560567
 Sum of electronic and thermal Enthalpies=            -307.559623
 Sum of electronic and thermal Free Energies=         -307.598178

                     E (Thermal)             CV                S
                      KCal/Mol        Cal/Mol-Kelvin    Cal/Mol-Kelvin
 Total                   78.418             25.947             81.147
 Electronic               0.000              0.000              0.000
 Translational            0.889              2.981             39.339
 Rotational               0.889              2.981             26.637
 Vibrational             76.641             19.986             15.172
 Vibration     1          0.600              1.962              3.852
 Vibration     2          0.651              1.799              1.899
 Vibration     3          0.657              1.781              1.809
 Vibration     4          0.676              1.723              1.578
 Vibration     5          0.722              1.590              1.198
 Vibration     6          0.740              1.541              1.094
 Vibration     7          0.783              1.427              0.892
 Vibration     8          0.822              1.330              0.754
 Vibration     9          0.965              1.019              0.439

 Normal termination of Gaussian 09 at Fri Aug 26 14:55:22 2022.

 -----------------------------------------------------------------
 #P Geom=AllCheck Guess=TCheck SCRF=Check CCSD(T,E4T,FrzG4)/GTBas1
 -----------------------------------------------------------------

 Structure from the checkpoint file:  "G4.Frag_596.chk"
 --------
 Frag_596
 --------
 Charge =  0 Multiplicity = 1

 SCF Done:  E(RHF) =  -305.815386974     A.U. after   12 cycles
 E2 =    -0.8729329072D+00 EUMP2 =    -0.30668831988081D+03
 CCSD(T)
 CCSD(T)= -0.30676434380D+03
 -306.7371202\CCSD=-306.7372892\CCSD(T)=-306.7643438\RMSD=5.271e-09\PG=
 Normal termination of Gaussian 09 at Fri Aug 26 14:57:20 2022.

 ---------------------------------------------------------
 #P Geom=AllCheck Guess=TCheck SCRF=Check MP4=FrzG4/GTBas2
 ---------------------------------------------------------

 Structure from the checkpoint file:  "G4.Frag_596.chk"
 --------
 Frag_596
 --------
 Charge =  0 Multiplicity = 1

 SCF Done:  E(RHF) =  -305.826332150     A.U. after   12 cycles
 E2 =    -0.8868921354D+00 EUMP2 =    -0.30671322428560D+03
 Normal termination of Gaussian 09 at Fri Aug 26 14:58:02 2022.

 ---------------------------------------------------------
 #P Geom=AllCheck Guess=TCheck SCRF=Check MP4=FrzG4/GTBas3
 ---------------------------------------------------------

 Structure from the checkpoint file:  "G4.Frag_596.chk"
 --------
 Frag_596
 --------
 Charge =  0 Multiplicity = 1

 SCF Done:  E(RHF) =  -305.858478130     A.U. after   11 cycles
 E2 =    -0.1080535881D+01 EUMP2 =    -0.30693901401038D+03
 Normal termination of Gaussian 09 at Fri Aug 26 15:01:32 2022.

 -----------------------------------------------------------
 #P Geom=AllCheck Guess=TCheck SCRF=Check MP2=Full/GTLargeXP
 -----------------------------------------------------------

 Structure from the checkpoint file:  "G4.Frag_596.chk"
 --------
 Frag_596
 --------
 Charge =  0 Multiplicity = 1

 SCF Done:  E(RHF) =  -305.940328046     A.U. after   12 cycles
 E2 =    -0.1418702327D+01 EUMP2 =    -0.30735903037304D+03
 Normal termination of Gaussian 09 at Fri Aug 26 15:03:33 2022.
 SCF Done:  E(RHF) =  -305.965440656     A.U. after    8 cycles
 Normal termination of Gaussian 09 at Fri Aug 26 15:05:18 2022.

                         Standard orientation:
 ---------------------------------------------------------------------
 Center     Atomic      Atomic             Coordinates (Angstroms)
 Number     Number       Type             X           Y           Z
 ---------------------------------------------------------------------
      1          6           0       -1.840724    0.760284   -0.457356
      2          6           0       -0.795938    0.053573   -0.033105
      3          8           0       -0.874906   -1.027483    0.804365
      4          6           0        0.648777    0.316585   -0.391591
      5          6           0        1.446116    0.833407    0.813229
      6          8           0        1.244656   -0.853273   -0.941245
      7          1           0       -1.701817    1.592191   -1.134422
      8          1           0       -2.856290    0.535301   -0.146480
      9          1           0       -1.800227   -1.227456    0.982437
     10          1           0        0.669965    1.063084   -1.190731
     11          1           0        1.395492    0.118989    1.640600
     12          1           0        1.050248    1.791808    1.163815
     13          1           0        2.493109    0.964348    0.527798
     14          1           0        1.042136   -1.575320   -0.335036
 ---------------------------------------------------------------------

 SCF Done:  E(RHF) =  -305.970825143     A.U. after    8 cycles

 The electronic state is 1-A.
 Alpha  occ. eigenvalues --  -20.59763 -20.55222 -11.30492 -11.28986 -11.21777
 Alpha  occ. eigenvalues --  -11.21730  -1.41779  -1.35760  -1.06184  -0.99233
 Alpha  occ. eigenvalues --   -0.87323  -0.80809  -0.69537  -0.68854  -0.62685
 Alpha  occ. eigenvalues --   -0.61415  -0.60225  -0.58345  -0.55320  -0.53734
 Alpha  occ. eigenvalues --   -0.52300  -0.48950  -0.44484  -0.35438
 Alpha virt. eigenvalues --    0.03244   0.04260   0.04528   0.05464   0.06559
 Alpha virt. eigenvalues --    0.06914   0.07471   0.07971   0.08067   0.09753
 Alpha virt. eigenvalues --    0.10096   0.10465   0.12171   0.13816   0.14576

 Mulliken charges:
               1
     1  C   -0.516538
     2  C    0.280566
     3  O   -0.586427
     4  C    0.138480
     5  C   -0.537546
     6  O   -0.589728
     7  H    0.181477
     8  H    0.152607
     9  H    0.389437
    10  H    0.168388
    11  H    0.181203
    12  H    0.173112
    13  H    0.184513
    14  H    0.380455
 Sum of Mulliken charges =  -0.00000

 Dipole moment (field-independent basis, Debye):
    X=             -1.7904    Y=              0.4008    Z=              1.4137  Tot=              2.3163
 Quadrupole moment (field-independent basis, Debye-Ang):
   XX=            -34.5367   YY=            -35.2961   ZZ=            -40.3019
   XY=              2.8253   XZ=              0.4638   YZ=             -3.4443

 Normal termination of Gaussian 09 at Fri Aug 26 15:12:28 2022.
