 Gaussian 09, Revision E.01,
 Gaussian 09:  ES64L-G09RevE.01 30-Nov-2015

 -----
 #P G4
 -----

 --------
 Frag_700
 --------
 Symbolic Z-matrix:
 Charge =  0 Multiplicity = 1

 SCF Done:  E(RB3LYP) =  -245.816214072     A.U. after   12 cycles
 SCF Done:  E(RB3LYP) =  -245.822941814     A.U. after   10 cycles
 SCF Done:  E(RB3LYP) =  -245.824090968     A.U. after   10 cycles
 SCF Done:  E(RB3LYP) =  -245.824307007     A.U. after   10 cycles
 SCF Done:  E(RB3LYP) =  -245.824336585     A.U. after    9 cycles
 SCF Done:  E(RB3LYP) =  -245.824362309     A.U. after   10 cycles
 SCF Done:  E(RB3LYP) =  -245.824397031     A.U. after   10 cycles
 SCF Done:  E(RB3LYP) =  -245.824418369     A.U. after   10 cycles
 SCF Done:  E(RB3LYP) =  -245.824435692     A.U. after   10 cycles
 SCF Done:  E(RB3LYP) =  -245.824439548     A.U. after   10 cycles
 SCF Done:  E(RB3LYP) =  -245.824440177     A.U. after    9 cycles
 SCF Done:  E(RB3LYP) =  -245.824440246     A.U. after    7 cycles
 Optimization completed.
    -- Stationary point found.
 Normal termination of Gaussian 09 at Fri Aug 26 11:00:33 2022.

 ----------------------------------------------------------
 #P Geom=AllCheck Guess=TCheck SCRF=Check B3LYP/GTBas3 Freq
 ----------------------------------------------------------

 Structure from the checkpoint file:  "G4.Frag_700.chk"
 --------
 Frag_700
 --------
 Charge =  0 Multiplicity = 1

 SCF Done:  E(RB3LYP) =  -245.824440246     A.U. after    1 cycles

  Exact polarizability:  55.470  -1.280  47.998   1.962  -0.143  39.645
 Approx polarizability:  72.155  -0.969  64.819   1.878  -0.793  58.822

                      1                      2                      3
                      A                      A                      A
 Frequencies --     74.7091               243.7042               257.2498
 Red. masses --      2.5148                 1.1386                 1.0676
 Frc consts  --      0.0083                 0.0398                 0.0416
 IR Inten    --      3.1780                 0.5270                 0.3984

                      4                      5                      6
                      A                      A                      A
 Frequencies --    310.6241               349.3652               408.2947
 Red. masses --      2.2390                 1.2847                 2.2524
 Frc consts  --      0.1273                 0.0924                 0.2212
 IR Inten    --      3.2781                21.4349                 1.9302

                      7                      8                      9
                      A                      A                      A
 Frequencies --    470.7970               525.4561               776.2310
 Red. masses --      1.9760                 2.8371                 3.2868
 Frc consts  --      0.2580                 0.4615                 1.1668
 IR Inten    --     24.1324                11.3839                31.6813

                     10                     11                     12
                      A                      A                      A
 Frequencies --    911.3455               944.9115              1030.0916
 Red. masses --      3.4457                 2.2508                 1.5741
 Frc consts  --      1.6862                 1.1840                 0.9841
 IR Inten    --     61.1144               105.5912                12.6809

                     13                     14                     15
                      A                      A                      A
 Frequencies --   1044.9461              1110.2452              1149.6208
 Red. masses --      1.4772                 1.2503                 2.0388
 Frc consts  --      0.9503                 0.9081                 1.5876
 IR Inten    --     13.8486                 5.2789                36.2734

                     16                     17                     18
                      A                      A                      A
 Frequencies --   1193.2436              1253.4433              1266.0064
 Red. masses --      1.6155                 2.0642                 1.8628
 Frc consts  --      1.3552                 1.9107                 1.7591
 IR Inten    --      6.8716                 6.7636                 7.9640

                     19                     20                     21
                      A                      A                      A
 Frequencies --   1346.9581              1429.9021              1459.1481
 Red. masses --      1.4631                 1.1726                 1.1857
 Frc consts  --      1.5640                 1.4126                 1.4874
 IR Inten    --     11.1506                 0.7745                 0.1011

                     22                     23                     24
                      A                      A                      A
 Frequencies --   1476.6992              1488.5381              1494.4612
 Red. masses --      1.0486                 1.0455                 1.0456
 Frc consts  --      1.3473                 1.3649                 1.3760
 IR Inten    --     10.7684                 4.0880                 3.0428

                     25                     26                     27
                      A                      A                      A
 Frequencies --   1509.9969              1535.1463              1683.6494
 Red. masses --      1.0533                 1.1275                 1.0629
 Frc consts  --      1.4150                 1.5655                 1.7752
 IR Inten    --      9.7379                 3.1497                15.7194

                     28                     29                     30
                      A                      A                      A
 Frequencies --   2948.7353              2972.5737              3057.6597
 Red. masses --      1.0551                 1.0517                 1.0800
 Frc consts  --      5.4052                 5.4753                 5.9489
 IR Inten    --     64.1933                72.2765                32.0232

                     31                     32                     33
                      A                      A                      A
 Frequencies --   3076.2288              3109.1111              3113.8600
 Red. masses --      1.0807                 1.1017                 1.0997
 Frc consts  --      6.0253                 6.2745                 6.2826
 IR Inten    --     29.5170                 9.6736                36.3942

                     34                     35                     36
                      A                      A                      A
 Frequencies --   3403.5050              3479.0929              3537.2546
 Red. masses --      1.0536                 1.0757                 1.0858
 Frc consts  --      7.1906                 7.6711                 8.0047
 IR Inten    --     12.3121                 1.6297                 0.5480

 - Thermochemistry -
 -------------------
 Temperature   298.150 Kelvin.  Pressure   1.00000 Atm.
 Atom     1 has atomic number  6 and mass  12.00000

 Molecular mass:    75.07965 amu.
 Principal axes and moments of inertia in atomic units:
                           1         2         3
     Eigenvalues --   220.95670 469.08914 618.09030
           X            0.99945  -0.02979   0.01432
           Y            0.02970   0.99954   0.00687
           Z           -0.01452  -0.00644   0.99987
 This molecule is an asymmetric top.
 Rotational symmetry number  1.
 Rotational temperatures (Kelvin)      0.39199     0.18464     0.14013
 Rotational constants (GHZ):           8.16785     3.84733     2.91987
 Zero-point vibrational energy     331621.6 (Joules/Mol)
                                   79.25947 (Kcal/Mol)
 Warning -- explicit consideration of   8 degrees of freedom as
           vibrations may cause significant error
 Vibrational temperatures:    107.49   350.64   370.12   446.92   502.66
          (Kelvin)            587.44   677.37   756.01  1116.82  1311.22
                             1359.52  1482.07  1503.44  1597.39  1654.05
                             1716.81  1803.42  1821.50  1937.97  2057.31
                             2099.39  2124.64  2141.67  2150.19  2172.55
                             2208.73  2422.39  4242.57  4276.87  4399.28
                             4426.00  4473.31  4480.14  4896.88  5005.63
                             5089.31

 Zero-point correction=                           0.126308 (Hartree/Particle)
 Thermal correction to Energy=                    0.132803
 Thermal correction to Enthalpy=                  0.133747
 Thermal correction to Gibbs Free Energy=         0.096793
 Sum of electronic and zero-point Energies=           -245.698132
 Sum of electronic and thermal Energies=              -245.691638
 Sum of electronic and thermal Enthalpies=            -245.690694
 Sum of electronic and thermal Free Energies=         -245.727647

                     E (Thermal)             CV                S
                      KCal/Mol        Cal/Mol-Kelvin    Cal/Mol-Kelvin
 Total                   83.335             22.716             77.775
 Electronic               0.000              0.000              0.000
 Translational            0.889              2.981             38.864
 Rotational               0.889              2.981             25.663
 Vibrational             81.557             16.755             13.248
 Vibration     1          0.599              1.966              4.025
 Vibration     2          0.659              1.773              1.776
 Vibration     3          0.667              1.751              1.680
 Vibration     4          0.699              1.653              1.359
 Vibration     5          0.727              1.577              1.169
 Vibration     6          0.773              1.452              0.933
 Vibration     7          0.828              1.315              0.735
 Vibration     8          0.880              1.194              0.597

 Optimization completed.
    -- Stationary point found.
 Normal termination of Gaussian 09 at Fri Aug 26 11:00:58 2022.

 -----------------------------------------------------------------
 #P Geom=AllCheck Guess=TCheck SCRF=Check CCSD(T,E4T,FrzG4)/GTBas1
 -----------------------------------------------------------------

 Structure from the checkpoint file:  "G4.Frag_700.chk"
 --------
 Frag_700
 --------
 Charge =  0 Multiplicity = 1

 SCF Done:  E(RHF) =  -244.222121228     A.U. after   12 cycles
 E2 =    -0.7589158098D+00 EUMP2 =    -0.24498103703833D+03
 CCSD(T)
 CCSD(T)= -0.24505657975D+03
 Q=-245.0321887\CCSD=-245.0334963\CCSD(T)=-245.0565797\RMSD=9.073e-09\P
 Normal termination of Gaussian 09 at Fri Aug 26 11:02:02 2022.

 ---------------------------------------------------------
 #P Geom=AllCheck Guess=TCheck SCRF=Check MP4=FrzG4/GTBas2
 ---------------------------------------------------------

 Structure from the checkpoint file:  "G4.Frag_700.chk"
 --------
 Frag_700
 --------
 Charge =  0 Multiplicity = 1

 SCF Done:  E(RHF) =  -244.230446638     A.U. after   12 cycles
 E2 =    -0.7714054488D+00 EUMP2 =    -0.24500185208642D+03
 Normal termination of Gaussian 09 at Fri Aug 26 11:02:21 2022.

 ---------------------------------------------------------
 #P Geom=AllCheck Guess=TCheck SCRF=Check MP4=FrzG4/GTBas3
 ---------------------------------------------------------

 Structure from the checkpoint file:  "G4.Frag_700.chk"
 --------
 Frag_700
 --------
 Charge =  0 Multiplicity = 1

 SCF Done:  E(RHF) =  -244.256397335     A.U. after   11 cycles
 E2 =    -0.9358250316D+00 EUMP2 =    -0.24519222236626D+03
 Normal termination of Gaussian 09 at Fri Aug 26 11:04:12 2022.

 -----------------------------------------------------------
 #P Geom=AllCheck Guess=TCheck SCRF=Check MP2=Full/GTLargeXP
 -----------------------------------------------------------

 Structure from the checkpoint file:  "G4.Frag_700.chk"
 --------
 Frag_700
 --------
 Charge =  0 Multiplicity = 1

 SCF Done:  E(RHF) =  -244.319405919     A.U. after   12 cycles
 E2 =    -0.1217796946D+01 EUMP2 =    -0.24553720286536D+03
 Normal termination of Gaussian 09 at Fri Aug 26 11:05:20 2022.
 SCF Done:  E(RHF) =  -244.338437355     A.U. after    9 cycles
 Normal termination of Gaussian 09 at Fri Aug 26 11:06:45 2022.

                         Standard orientation:
 ---------------------------------------------------------------------
 Center     Atomic      Atomic             Coordinates (Angstroms)
 Number     Number       Type             X           Y           Z
 ---------------------------------------------------------------------
      1          6           0        0.708577    1.373628    0.083059
      2          7           0        0.389388    0.008579   -0.324152
      3          6           0        1.514038   -0.881248   -0.072937
      4          7           0       -0.749211   -0.444624    0.488552
      5          7           0       -1.980618   -0.138928   -0.153783
      6          1           0        1.517946    1.753512   -0.547451
      7          1           0       -0.165039    2.012647   -0.073972
      8          1           0        1.006832    1.444756    1.142007
      9          1           0        1.791483   -0.938242    0.994829
     10          1           0        1.274812   -1.890774   -0.426090
     11          1           0        2.381034   -0.525388   -0.635440
     12          1           0       -0.686622   -1.459520    0.462085
     13          1           0       -2.237130    0.806073    0.115276
     14          1           0       -1.835924   -0.132540   -1.166291
 ---------------------------------------------------------------------

 SCF Done:  E(RHF) =  -244.342652411     A.U. after    8 cycles

 The electronic state is 1-A.
 Alpha  occ. eigenvalues --  -15.60101 -15.57904 -15.56644 -11.25093 -11.24406
 Alpha  occ. eigenvalues --   -1.31770  -1.17672  -0.99314  -0.95561  -0.83018
 Alpha  occ. eigenvalues --   -0.68765  -0.66422  -0.64986  -0.62127  -0.57202
 Alpha  occ. eigenvalues --   -0.54601  -0.54021  -0.51556  -0.45577  -0.41422
 Alpha  occ. eigenvalues --   -0.34998
 Alpha virt. eigenvalues --    0.03941   0.04250   0.05122   0.05427   0.06825
 Alpha virt. eigenvalues --    0.07441   0.07584   0.08937   0.09201   0.11302
 Alpha virt. eigenvalues --    0.11983   0.12733   0.13952   0.14611   0.15021

 Mulliken charges:
               1
     1  C   -0.445818
     2  N   -0.013364
     3  C   -0.483586
     4  N   -0.308183
     5  N   -0.622724
     6  H    0.168641
     7  H    0.157877
     8  H    0.157204
     9  H    0.156896
    10  H    0.156192
    11  H    0.181747
    12  H    0.299490
    13  H    0.298849
    14  H    0.296778
 Sum of Mulliken charges =  -0.00000

 Dipole moment (field-independent basis, Debye):
    X=              1.4495    Y=              0.4508    Z=             -0.7543  Tot=              1.6950
 Quadrupole moment (field-independent basis, Debye-Ang):
   XX=            -34.1817   YY=            -29.2664   ZZ=            -34.9074
   XY=             -2.8952   XZ=              1.7938   YZ=              0.1227

 Normal termination of Gaussian 09 at Fri Aug 26 11:11:43 2022.
