 Gaussian 09, Revision E.01,
 Gaussian 09:  ES64L-G09RevE.01 30-Nov-2015

 -----
 #P G4
 -----

 ---------
 Frag_1097
 ---------
 Symbolic Z-matrix:
 Charge =  0 Multiplicity = 1

 SCF Done:  E(RB3LYP) =  -320.289019389     A.U. after   14 cycles
 SCF Done:  E(RB3LYP) =  -320.289018992     A.U. after    9 cycles
 SCF Done:  E(RB3LYP) =  -320.289024574     A.U. after    9 cycles
 SCF Done:  E(RB3LYP) =  -320.289029901     A.U. after    8 cycles
 SCF Done:  E(RB3LYP) =  -320.289035468     A.U. after    9 cycles
 SCF Done:  E(RB3LYP) =  -320.289039252     A.U. after    9 cycles
 SCF Done:  E(RB3LYP) =  -320.289040658     A.U. after    8 cycles
 SCF Done:  E(RB3LYP) =  -320.289041196     A.U. after    8 cycles
 Optimization completed.
    -- Stationary point found.
 Normal termination of Gaussian 09 at Thu Sep  1 17:12:17 2022.

 ----------------------------------------------------------
 #P Geom=AllCheck Guess=TCheck SCRF=Check B3LYP/GTBas3 Freq
 ----------------------------------------------------------

 Structure from the checkpoint file:  "G4.Frag_1097.chk"
 ---------
 Frag_1097
 ---------
 Charge =  0 Multiplicity = 1

 SCF Done:  E(RB3LYP) =  -320.289041196     A.U. after    1 cycles

  Exact polarizability:  41.206  -3.085  31.034   0.112   0.006  17.076
 Approx polarizability:  57.250  -5.428  53.291  -0.261   0.269  24.607

                      1                      2                      3
                      A                      A                      A
 Frequencies --    166.8862               283.9007               341.9895
 Red. masses --     10.3556                 1.2176                 4.4951
 Frc consts  --      0.1699                 0.0578                 0.3098
 IR Inten    --      0.2184               244.4685                22.4963

                      4                      5                      6
                      A                      A                      A
 Frequencies --    456.6371               478.2500               499.4964
 Red. masses --      1.2900                 1.4392                 1.5615
 Frc consts  --      0.1585                 0.1939                 0.2295
 IR Inten    --     21.9334                50.1760                19.4709

                      7                      8                      9
                      A                      A                      A
 Frequencies --    698.2694               768.5449               892.6115
 Red. masses --      5.8791                 8.0752                 4.5425
 Frc consts  --      1.6889                 2.8102                 2.1324
 IR Inten    --      3.6096                38.2465                51.2912

                     10                     11                     12
                      A                      A                      A
 Frequencies --   1046.7160              1112.4421              1387.7059
 Red. masses --      9.7165                 2.0573                 3.9819
 Frc consts  --      6.2721                 1.5000                 4.5178
 IR Inten    --     13.2546                 0.8276               259.0250

                     13                     14                     15
                      A                      A                      A
 Frequencies --   1524.1220              1614.4344              1833.4713
 Red. masses --      1.1803                 1.2139                 7.8783
 Frc consts  --      1.6154                 1.8641                15.6039
 IR Inten    --    138.7692               139.3881               283.1472

                     16                     17                     18
                      A                      A                      A
 Frequencies --   3458.2322              3616.0607              3745.4158
 Red. masses --      1.0659                 1.0451                 1.1042
 Frc consts  --      7.5107                 8.0513                 9.1265
 IR Inten    --     98.5047                66.0237                68.5218

 - Thermochemistry -
 -------------------
 Temperature   298.150 Kelvin.  Pressure   1.00000 Atm.
 Atom     1 has atomic number  7 and mass  14.00307

 Molecular mass:    77.01129 amu.
 Principal axes and moments of inertia in atomic units:
                           1         2         3
     Eigenvalues --   159.95648 397.19745 556.71993
           X            0.99873  -0.05020   0.00518
           Y            0.05022   0.99873  -0.00405
           Z           -0.00497   0.00430   0.99998
 This molecule is an asymmetric top.
 Rotational symmetry number  1.
 Rotational temperatures (Kelvin)      0.54148     0.21806     0.15558
 Rotational constants (GHZ):          11.28270     4.54369     3.24174
 Zero-point vibrational energy     143104.4 (Joules/Mol)
                                   34.20277 (Kcal/Mol)
 Warning -- explicit consideration of   6 degrees of freedom as
           vibrations may cause significant error
 Vibrational temperatures:    240.11   408.47   492.05   657.00   688.09
          (Kelvin)            718.66  1004.65  1105.76  1284.27  1505.99
                             1600.55  1996.60  2192.87  2322.81  2637.95
                             4975.62  5202.70  5388.81

 Zero-point correction=                           0.054506 (Hartree/Particle)
 Thermal correction to Energy=                    0.059815
 Thermal correction to Enthalpy=                  0.060759
 Thermal correction to Gibbs Free Energy=         0.026450
 Sum of electronic and zero-point Energies=           -320.234536
 Sum of electronic and thermal Energies=              -320.229226
 Sum of electronic and thermal Enthalpies=            -320.228282
 Sum of electronic and thermal Free Energies=         -320.262591

                     E (Thermal)             CV                S
                      KCal/Mol        Cal/Mol-Kelvin    Cal/Mol-Kelvin
 Total                   37.534             17.932             72.209
 Electronic               0.000              0.000              0.000
 Translational            0.889              2.981             38.939
 Rotational               0.889              2.981             25.073
 Vibrational             35.757             11.970              8.196
 Vibration     1          0.624              1.883              2.470
 Vibration     2          0.682              1.704              1.510
 Vibration     3          0.721              1.592              1.203
 Vibration     4          0.815              1.346              0.776
 Vibration     5          0.835              1.298              0.715
 Vibration     6          0.855              1.251              0.659

 Optimization completed.
    -- Stationary point found.
 Normal termination of Gaussian 09 at Thu Sep  1 17:12:32 2022.

 -----------------------------------------------------------------
 #P Geom=AllCheck Guess=TCheck SCRF=Check CCSD(T,E4T,FrzG4)/GTBas1
 -----------------------------------------------------------------

 Structure from the checkpoint file:  "G4.Frag_1097.chk"
 ---------
 Frag_1097
 ---------
 Charge =  0 Multiplicity = 1

 SCF Done:  E(RHF) =  -318.564359508     A.U. after   13 cycles
 E2 =    -0.8249975559D+00 EUMP2 =    -0.31938935706417D+03
 CCSD(T)
 CCSD(T)= -0.31943295768D+03
 319.4373368\MP4SDQ=-319.4090073\CCSD=-319.4073142\CCSD(T)=-319.4329577
 Normal termination of Gaussian 09 at Thu Sep  1 17:13:20 2022.

 ---------------------------------------------------------
 #P Geom=AllCheck Guess=TCheck SCRF=Check MP4=FrzG4/GTBas2
 ---------------------------------------------------------

 Structure from the checkpoint file:  "G4.Frag_1097.chk"
 ---------
 Frag_1097
 ---------
 Charge =  0 Multiplicity = 1

 SCF Done:  E(RHF) =  -318.573769740     A.U. after   12 cycles
 E2 =    -0.8388113624D+00 EUMP2 =    -0.31941258110284D+03
 Normal termination of Gaussian 09 at Thu Sep  1 17:13:33 2022.

 ---------------------------------------------------------
 #P Geom=AllCheck Guess=TCheck SCRF=Check MP4=FrzG4/GTBas3
 ---------------------------------------------------------

 Structure from the checkpoint file:  "G4.Frag_1097.chk"
 ---------
 Frag_1097
 ---------
 Charge =  0 Multiplicity = 1

 SCF Done:  E(RHF) =  -318.604793797     A.U. after   12 cycles
 E2 =    -0.1007615191D+01 EUMP2 =    -0.31961240898778D+03
 Normal termination of Gaussian 09 at Thu Sep  1 17:14:26 2022.

 -----------------------------------------------------------
 #P Geom=AllCheck Guess=TCheck SCRF=Check MP2=Full/GTLargeXP
 -----------------------------------------------------------

 Structure from the checkpoint file:  "G4.Frag_1097.chk"
 ---------
 Frag_1097
 ---------
 Charge =  0 Multiplicity = 1

 SCF Done:  E(RHF) =  -318.696573847     A.U. after   12 cycles
 E2 =    -0.1308304709D+01 EUMP2 =    -0.32000487855624D+03
 Normal termination of Gaussian 09 at Thu Sep  1 17:15:01 2022.
 SCF Done:  E(RHF) =  -318.724400461     A.U. after    9 cycles
 Normal termination of Gaussian 09 at Thu Sep  1 17:15:36 2022.

                         Standard orientation:
 ---------------------------------------------------------------------
 Center     Atomic      Atomic             Coordinates (Angstroms)
 Number     Number       Type             X           Y           Z
 ---------------------------------------------------------------------
      1          7           0        1.670572   -0.446450   -0.045816
      2          6           0        0.449738    0.140344   -0.002229
      3          8           0        0.211745    1.330116    0.004337
      4          8           0       -0.529625   -0.806401    0.003582
      5          8           0       -1.816421   -0.173522    0.000437
      6          1           0        2.464528    0.142914    0.135351
      7          1           0        1.754075   -1.433687    0.129170
      8          1           0       -1.536631    0.772308    0.002725
 ---------------------------------------------------------------------

 SCF Done:  E(RHF) =  -318.730001622     A.U. after    8 cycles

 The electronic state is 1-A.
 Alpha  occ. eigenvalues --  -20.66533 -20.64187 -20.55977 -15.61386 -11.43296
 Alpha  occ. eigenvalues --   -1.54086  -1.41118  -1.28692  -1.21357  -0.86008
 Alpha  occ. eigenvalues --   -0.79798  -0.74259  -0.70217  -0.68491  -0.61419
 Alpha  occ. eigenvalues --   -0.59556  -0.58360  -0.49887  -0.47672  -0.45800
 Alpha virt. eigenvalues --    0.03203   0.05610   0.05748   0.06158   0.08871
 Alpha virt. eigenvalues --    0.09173   0.10723   0.12305   0.13073   0.14219
 Alpha virt. eigenvalues --    0.14709   0.16045   0.16311   0.16706   0.17811

 Mulliken charges:
               1
     1  N   -0.680965
     2  C    0.763910
     3  O   -0.637751
     4  O   -0.208681
     5  O   -0.364304
     6  H    0.360685
     7  H    0.349162
     8  H    0.417943
 Sum of Mulliken charges =   0.00000

 Dipole moment (field-independent basis, Debye):
    X=              3.0829    Y=             -1.1662    Z=              0.5552  Tot=              3.3426
 Quadrupole moment (field-independent basis, Debye-Ang):
   XX=            -23.2219   YY=            -30.0689   ZZ=            -29.3110
   XY=             -4.7957   XZ=              1.3373   YZ=             -0.4212

 Normal termination of Gaussian 09 at Thu Sep  1 17:19:07 2022.
