 Gaussian 09, Revision E.01,
 Gaussian 09:  ES64L-G09RevE.01 30-Nov-2015

 -----
 #P G4
 -----

 ---------
 Frag_1083
 ---------
 Symbolic Z-matrix:
 Charge =  0 Multiplicity = 1

 SCF Done:  E(RB3LYP) =  -319.800259292     A.U. after   14 cycles
 SCF Done:  E(RB3LYP) =  -319.826489240     A.U. after   12 cycles
 SCF Done:  E(RB3LYP) =  -319.830130333     A.U. after   12 cycles
 SCF Done:  E(RB3LYP) =  -319.830939054     A.U. after   11 cycles
 SCF Done:  E(RB3LYP) =  -319.831266246     A.U. after   11 cycles
 SCF Done:  E(RB3LYP) =  -319.831324349     A.U. after   10 cycles
 SCF Done:  E(RB3LYP) =  -319.831358523     A.U. after   10 cycles
 SCF Done:  E(RB3LYP) =  -319.831378729     A.U. after    9 cycles
 SCF Done:  E(RB3LYP) =  -319.831389325     A.U. after    9 cycles
 SCF Done:  E(RB3LYP) =  -319.831394531     A.U. after    8 cycles
 SCF Done:  E(RB3LYP) =  -319.831397802     A.U. after    8 cycles
 SCF Done:  E(RB3LYP) =  -319.831399050     A.U. after    8 cycles
 SCF Done:  E(RB3LYP) =  -319.831399313     A.U. after    7 cycles
 Optimization completed.
    -- Stationary point found.
 Normal termination of Gaussian 09 at Tue Aug 30 12:07:28 2022.

 ----------------------------------------------------------
 #P Geom=AllCheck Guess=TCheck SCRF=Check B3LYP/GTBas3 Freq
 ----------------------------------------------------------

 Structure from the checkpoint file:  "G4.Frag_1083.chk"
 ---------
 Frag_1083
 ---------
 Charge =  0 Multiplicity = 1

 SCF Done:  E(RB3LYP) =  -319.831399313     A.U. after    1 cycles

  Exact polarizability:  58.949   6.199  56.646   0.875   0.839  32.942
 Approx polarizability:  79.506  11.457  86.683   3.252   3.565  50.780

                      1                      2                      3
                      A                      A                      A
 Frequencies --     78.6200               229.3974               312.3763
 Red. masses --      4.4233                 1.6492                 1.5077
 Frc consts  --      0.0161                 0.0511                 0.0867
 IR Inten    --      2.3737                35.2341                35.4801

                      4                      5                      6
                      A                      A                      A
 Frequencies --    323.3894               367.9060               379.0592
 Red. masses --      3.0801                 1.0675                 1.2088
 Frc consts  --      0.1898                 0.0851                 0.1023
 IR Inten    --      3.9382               104.1416                 6.3608

                      7                      8                      9
                      A                      A                      A
 Frequencies --    445.3634               519.6773               550.8960
 Red. masses --      3.2683                 2.2284                 4.8924
 Frc consts  --      0.3819                 0.3546                 0.8748
 IR Inten    --     27.1544                 7.4014                 4.7536

                     10                     11                     12
                      A                      A                      A
 Frequencies --    670.0422               679.9547               714.8741
 Red. masses --      1.4206                 1.2859                 3.0105
 Frc consts  --      0.3758                 0.3503                 0.9065
 IR Inten    --     15.7760                 7.4073                64.9396

                     13                     14                     15
                      A                      A                      A
 Frequencies --    773.9809               909.8219               954.3145
 Red. masses --      4.4405                 2.0260                 1.6166
 Frc consts  --      1.5672                 0.9881                 0.8675
 IR Inten    --     26.7448               151.8375                31.8219

                     16                     17                     18
                      A                      A                      A
 Frequencies --    983.7750              1130.8709              1232.0530
 Red. masses --      1.8403                 2.2896                 1.9144
 Frc consts  --      1.0494                 1.7252                 1.7121
 IR Inten    --     51.2564                86.3248               136.7967

                     19                     20                     21
                      A                      A                      A
 Frequencies --   1262.4558              1317.7441              1352.3364
 Red. masses --      2.0359                 1.2231                 1.2205
 Frc consts  --      1.9118                 1.2513                 1.3151
 IR Inten    --      2.3883                 1.3711                21.3107

                     22                     23                     24
                      A                      A                      A
 Frequencies --   1421.0492              1474.2248              1677.1619
 Red. masses --      1.9641                 1.5199                 1.0845
 Frc consts  --      2.3368                 1.9463                 1.7973
 IR Inten    --     36.5831                10.2388                14.4986

                     25                     26                     27
                      A                      A                      A
 Frequencies --   1684.9161              1704.6997              3182.7341
 Red. masses --      2.0482                 1.6649                 1.0652
 Frc consts  --      3.4259                 2.8505                 6.3573
 IR Inten    --    154.3378               106.1185                 2.0244

                     28                     29                     30
                      A                      A                      A
 Frequencies --   3282.2139              3383.8276              3407.8562
 Red. masses --      1.1095                 1.0553                 1.0562
 Frc consts  --      7.0425                 7.1191                 7.2271
 IR Inten    --      6.5426                13.2685                11.1947

                     31                     32                     33
                      A                      A                      A
 Frequencies --   3528.1991              3546.2072              3828.5516
 Red. masses --      1.0853                 1.0848                 1.0654
 Frc consts  --      7.9595                 8.0376                 9.2008
 IR Inten    --      1.6350                 2.8075                37.3075

 - Thermochemistry -
 -------------------
 Temperature   298.150 Kelvin.  Pressure   1.00000 Atm.
 Atom     1 has atomic number  6 and mass  12.00000

 Molecular mass:    89.05891 amu.
 Principal axes and moments of inertia in atomic units:
                           1         2         3
     Eigenvalues --   352.21530 503.43138 819.87749
           X            0.99762   0.06890  -0.00048
           Y           -0.06890   0.99762  -0.00212
           Z            0.00034   0.00215   1.00000
 This molecule is an asymmetric top.
 Rotational symmetry number  1.
 Rotational temperatures (Kelvin)      0.24591     0.17205     0.10564
 Rotational constants (GHZ):           5.12397     3.58488     2.20123
 Zero-point vibrational energy     282979.9 (Joules/Mol)
                                   67.63383 (Kcal/Mol)
 Warning -- explicit consideration of   9 degrees of freedom as
           vibrations may cause significant error
 Vibrational temperatures:    113.12   330.05   449.44   465.28   529.33
          (Kelvin)            545.38   640.78   747.70   792.62   964.04
                              978.30  1028.54  1113.58  1309.03  1373.04
                             1415.43  1627.07  1772.65  1816.39  1895.94
                             1945.71  2044.57  2121.08  2413.06  2424.22
                             2452.68  4579.24  4722.37  4868.57  4903.14
                             5076.29  5102.19  5508.42

 Zero-point correction=                           0.107781 (Hartree/Particle)
 Thermal correction to Energy=                    0.114705
 Thermal correction to Enthalpy=                  0.115649
 Thermal correction to Gibbs Free Energy=         0.077567
 Sum of electronic and zero-point Energies=           -319.723618
 Sum of electronic and thermal Energies=              -319.716694
 Sum of electronic and thermal Enthalpies=            -319.715750
 Sum of electronic and thermal Free Energies=         -319.753833

                     E (Thermal)             CV                S
                      KCal/Mol        Cal/Mol-Kelvin    Cal/Mol-Kelvin
 Total                   71.978             25.498             80.151
 Electronic               0.000              0.000              0.000
 Translational            0.889              2.981             39.373
 Rotational               0.889              2.981             26.478
 Vibrational             70.201             19.536             14.301
 Vibration     1          0.600              1.964              3.925
 Vibration     2          0.652              1.796              1.884
 Vibration     3          0.701              1.650              1.350
 Vibration     4          0.708              1.629              1.293
 Vibration     5          0.741              1.538              1.089
 Vibration     6          0.749              1.515              1.043
 Vibration     7          0.805              1.371              0.810
 Vibration     8          0.875              1.206              0.611
 Vibration     9          0.906              1.138              0.542

 Normal termination of Gaussian 09 at Tue Aug 30 12:07:58 2022.

 -----------------------------------------------------------------
 #P Geom=AllCheck Guess=TCheck SCRF=Check CCSD(T,E4T,FrzG4)/GTBas1
 -----------------------------------------------------------------

 Structure from the checkpoint file:  "G4.Frag_1083.chk"
 ---------
 Frag_1083
 ---------
 Charge =  0 Multiplicity = 1

 SCF Done:  E(RHF) =  -317.899928103     A.U. after   13 cycles
 E2 =    -0.9225188948D+00 EUMP2 =    -0.31882244699762D+03
 CCSD(T)
 CCSD(T)= -0.31889551887D+03
 DTQ=-318.8960275\MP4SDQ=-318.8661167\CCSD=-318.8663381\CCSD(T)=-318.89
 Normal termination of Gaussian 09 at Tue Aug 30 12:09:48 2022.

 ---------------------------------------------------------
 #P Geom=AllCheck Guess=TCheck SCRF=Check MP4=FrzG4/GTBas2
 ---------------------------------------------------------

 Structure from the checkpoint file:  "G4.Frag_1083.chk"
 ---------
 Frag_1083
 ---------
 Charge =  0 Multiplicity = 1

 SCF Done:  E(RHF) =  -317.912655778     A.U. after   12 cycles
 E2 =    -0.9379444340D+00 EUMP2 =    -0.31885060021175D+03
 Normal termination of Gaussian 09 at Tue Aug 30 12:10:22 2022.

 ---------------------------------------------------------
 #P Geom=AllCheck Guess=TCheck SCRF=Check MP4=FrzG4/GTBas3
 ---------------------------------------------------------

 Structure from the checkpoint file:  "G4.Frag_1083.chk"
 ---------
 Frag_1083
 ---------
 Charge =  0 Multiplicity = 1

 SCF Done:  E(RHF) =  -317.948134263     A.U. after   11 cycles
 E2 =    -0.1126547734D+01 EUMP2 =    -0.31907468199668D+03
 Normal termination of Gaussian 09 at Tue Aug 30 12:13:45 2022.

 -----------------------------------------------------------
 #P Geom=AllCheck Guess=TCheck SCRF=Check MP2=Full/GTLargeXP
 -----------------------------------------------------------

 Structure from the checkpoint file:  "G4.Frag_1083.chk"
 ---------
 Frag_1083
 ---------
 Charge =  0 Multiplicity = 1

 SCF Done:  E(RHF) =  -318.035705842     A.U. after   12 cycles
 E2 =    -0.1469601732D+01 EUMP2 =    -0.31950530757414D+03
 Normal termination of Gaussian 09 at Tue Aug 30 12:15:38 2022.
 SCF Done:  E(RHF) =  -318.061148536     A.U. after    9 cycles
 Normal termination of Gaussian 09 at Tue Aug 30 12:17:22 2022.

                         Standard orientation:
 ---------------------------------------------------------------------
 Center     Atomic      Atomic             Coordinates (Angstroms)
 Number     Number       Type             X           Y           Z
 ---------------------------------------------------------------------
      1          6           0        1.451504    1.133125    0.158836
      2          6           0        0.735615    0.012858   -0.042986
      3          8           0        1.279981   -1.226854   -0.109571
      4          7           0       -0.645305   -0.023941   -0.277344
      5          7           0       -1.364048    1.171565   -0.048256
      6          7           0       -1.300967   -1.182436    0.190031
      7          1           0        2.529633    1.077044    0.243050
      8          1           0        1.006527    2.114172    0.180336
      9          1           0        2.232548   -1.129648   -0.008204
     10          1           0       -1.001481    1.638870    0.787453
     11          1           0       -1.200142    1.794463   -0.834491
     12          1           0       -2.131531   -1.290920   -0.383471
     13          1           0       -1.625880   -1.021355    1.145769
 ---------------------------------------------------------------------

 SCF Done:  E(RHF) =  -318.066595455     A.U. after    8 cycles

 The electronic state is 1-A.
 Alpha  occ. eigenvalues --  -20.58945 -15.62614 -15.58682 -15.57721 -11.33918
 Alpha  occ. eigenvalues --  -11.20123  -1.42312  -1.33886  -1.16022  -1.05437
 Alpha  occ. eigenvalues --   -0.95881  -0.80556  -0.72225  -0.69933  -0.69503
 Alpha  occ. eigenvalues --   -0.65126  -0.64052  -0.59183  -0.56887  -0.54649
 Alpha  occ. eigenvalues --   -0.45565  -0.43917  -0.41849  -0.32176
 Alpha virt. eigenvalues --    0.03755   0.04742   0.05128   0.05787   0.07033
 Alpha virt. eigenvalues --    0.07600   0.08057   0.08926   0.09191   0.10569
 Alpha virt. eigenvalues --    0.11217   0.11834   0.13553   0.14949   0.15498

 Mulliken charges:
               1
     1  C   -0.597644
     2  C    0.389077
     3  O   -0.520961
     4  N   -0.025436
     5  N   -0.616724
     6  N   -0.553837
     7  H    0.157035
     8  H    0.172624
     9  H    0.392464
    10  H    0.295356
    11  H    0.320064
    12  H    0.311873
    13  H    0.276110
 Sum of Mulliken charges =  -0.00000

 Dipole moment (field-independent basis, Debye):
    X=              0.2870    Y=              1.5170    Z=              0.6475  Tot=              1.6742
 Quadrupole moment (field-independent basis, Debye-Ang):
   XX=            -31.0846   YY=            -37.3168   ZZ=            -36.9621
   XY=             -0.3381   XZ=             -0.1277   YZ=             -0.8576

 Normal termination of Gaussian 09 at Tue Aug 30 12:23:59 2022.
