 Gaussian 09, Revision E.01,
 Gaussian 09:  ES64L-G09RevE.01 30-Nov-2015

 -----
 #P G4
 -----

 --------
 Frag_469
 --------
 Symbolic Z-matrix:
 Charge =  0 Multiplicity = 1

 SCF Done:  E(RB3LYP) =  -249.715626599     A.U. after   13 cycles
 SCF Done:  E(RB3LYP) =  -249.720204304     A.U. after   11 cycles
 SCF Done:  E(RB3LYP) =  -249.720868443     A.U. after   11 cycles
 SCF Done:  E(RB3LYP) =  -249.721306761     A.U. after   11 cycles
 SCF Done:  E(RB3LYP) =  -249.721389360     A.U. after    9 cycles
 SCF Done:  E(RB3LYP) =  -249.721447343     A.U. after    9 cycles
 SCF Done:  E(RB3LYP) =  -249.721458142     A.U. after    8 cycles
 SCF Done:  E(RB3LYP) =  -249.721459855     A.U. after    7 cycles
 Optimization completed.
    -- Stationary point found.
 Normal termination of Gaussian 09 at Sun Aug 21 04:37:52 2022.

 ----------------------------------------------------------
 #P Geom=AllCheck Guess=TCheck SCRF=Check B3LYP/GTBas3 Freq
 ----------------------------------------------------------

 Structure from the checkpoint file:  "G4.Frag_469.chk"
 --------
 Frag_469
 --------
 Charge =  0 Multiplicity = 1

 SCF Done:  E(RB3LYP) =  -249.721459855     A.U. after    1 cycles

  Exact polarizability:  52.443  -0.816  45.356  -1.289  -0.463  40.905
 Approx polarizability:  65.690  -1.596  60.206  -1.420   0.387  60.365

                      1                      2                      3
                      A                      A                      A
 Frequencies --     91.9131               201.2246               226.0898
 Red. masses --      1.9088                 1.1401                 1.1695
 Frc consts  --      0.0095                 0.0272                 0.0352
 IR Inten    --      1.7001                 0.7992                 0.2453

                      4                      5                      6
                      A                      A                      A
 Frequencies --    295.6214               313.3165               400.9922
 Red. masses --      1.9224                 1.3031                 2.3986
 Frc consts  --      0.0990                 0.0754                 0.2272
 IR Inten    --     11.8003                32.0329                12.7618

                      7                      8                      9
                      A                      A                      A
 Frequencies --    445.6858               535.3146               818.1626
 Red. masses --      2.8297                 2.4868                 2.5113
 Frc consts  --      0.3312                 0.4199                 0.9905
 IR Inten    --     12.0027                 7.6437                16.5815

                     10                     11                     12
                      A                      A                      A
 Frequencies --    876.6221               927.8388              1007.7672
 Red. masses --      1.6445                 2.2333                 1.3558
 Frc consts  --      0.7446                 1.1328                 0.8113
 IR Inten    --    203.2385                22.9352                12.8069

                     13                     14                     15
                      A                      A                      A
 Frequencies --   1090.3246              1116.6913              1176.2490
 Red. masses --      1.7789                 7.3289                 1.8431
 Frc consts  --      1.2460                 5.3846                 1.5024
 IR Inten    --     50.5947               144.2777                30.7688

                     16                     17                     18
                      A                      A                      A
 Frequencies --   1182.1709              1219.4759              1296.6656
 Red. masses --      1.3007                 1.4714                 1.8891
 Frc consts  --      1.0710                 1.2892                 1.8714
 IR Inten    --      3.5778                29.6548                13.3953

                     19                     20                     21
                      A                      A                      A
 Frequencies --   1377.6688              1396.2223              1432.7562
 Red. masses --      1.1617                 1.2187                 1.5071
 Frc consts  --      1.2991                 1.3998                 1.8228
 IR Inten    --     21.7096                 7.9472                30.9569

                     22                     23                     24
                      A                      A                      A
 Frequencies --   1476.1429              1484.1017              1487.1407
 Red. masses --      1.1154                 1.0567                 1.0497
 Frc consts  --      1.4320                 1.3713                 1.3678
 IR Inten    --      1.0942                 3.8536                 1.3760

                     25                     26                     27
                      A                      A                      A
 Frequencies --   1501.6197              1511.8386              1670.6280
 Red. masses --      1.0677                 1.0590                 1.0953
 Frc consts  --      1.4185                 1.4261                 1.8012
 IR Inten    --      1.7529                 5.6522                26.9191

                     28                     29                     30
                      A                      A                      A
 Frequencies --   2963.8690              2972.3030              3016.2554
 Red. masses --      1.0679                 1.0539                 1.0997
 Frc consts  --      5.5274                 5.4857                 5.8946
 IR Inten    --     21.3923                85.4382                55.7661

                     31                     32                     33
                      A                      A                      A
 Frequencies --   3042.5979              3104.7024              3114.8276
 Red. masses --      1.0373                 1.0956                 1.0993
 Frc consts  --      5.6580                 6.2222                 6.2841
 IR Inten    --     17.6424                31.2088                28.4580

                     34                     35                     36
                      A                      A                      A
 Frequencies --   3130.5083              3487.3320              3565.2853
 Red. masses --      1.1020                 1.0490                 1.0914
 Frc consts  --      6.3628                 7.5165                 8.1738
 IR Inten    --     19.7537                 0.0878                 0.7035

 - Thermochemistry -
 -------------------
 Temperature   298.150 Kelvin.  Pressure   1.00000 Atm.
 Atom     1 has atomic number  6 and mass  12.00000

 Molecular mass:    75.06841 amu.
 Principal axes and moments of inertia in atomic units:
                           1         2         3
     Eigenvalues --   229.15709 471.47276 630.39321
           X            0.99978   0.00027  -0.02087
           Y           -0.00048   0.99995  -0.01000
           Z            0.02087   0.01001   0.99973
 This molecule is an asymmetric top.
 Rotational symmetry number  1.
 Rotational temperatures (Kelvin)      0.37797     0.18371     0.13740
 Rotational constants (GHZ):           7.87556     3.82788     2.86288
 Zero-point vibrational energy     328721.4 (Joules/Mol)
                                   78.56630 (Kcal/Mol)
 Warning -- explicit consideration of   8 degrees of freedom as
           vibrations may cause significant error
 Vibrational temperatures:    132.24   289.52   325.29   425.33   450.79
          (Kelvin)            576.94   641.24   770.20  1177.15  1261.26
                             1334.95  1449.95  1568.73  1606.67  1692.36
                             1700.88  1754.55  1865.61  1982.16  2008.85
                             2061.41  2123.84  2135.29  2139.66  2160.49
                             2175.20  2403.66  4264.34  4276.48  4339.71
                             4377.61  4466.97  4481.54  4504.10  5017.49
                             5129.64

 Zero-point correction=                           0.125203 (Hartree/Particle)
 Thermal correction to Energy=                    0.131850
 Thermal correction to Enthalpy=                  0.132794
 Thermal correction to Gibbs Free Energy=         0.095577
 Sum of electronic and zero-point Energies=           -249.596256
 Sum of electronic and thermal Energies=              -249.589610
 Sum of electronic and thermal Enthalpies=            -249.588666
 Sum of electronic and thermal Free Energies=         -249.625883

                     E (Thermal)             CV                S
                      KCal/Mol        Cal/Mol-Kelvin    Cal/Mol-Kelvin
 Total                   82.737             22.960             78.329
 Electronic               0.000              0.000              0.000
 Translational            0.889              2.981             38.863
 Rotational               0.889              2.981             25.724
 Vibrational             80.959             16.998             13.742
 Vibration     1          0.602              1.955              3.619
 Vibration     2          0.638              1.838              2.122
 Vibration     3          0.650              1.801              1.910
 Vibration     4          0.690              1.682              1.442
 Vibration     5          0.701              1.648              1.345
 Vibration     6          0.767              1.468              0.959
 Vibration     7          0.805              1.370              0.809
 Vibration     8          0.890              1.172              0.575

 Normal termination of Gaussian 09 at Sun Aug 21 04:39:44 2022.

 -----------------------------------------------------------------
 #P Geom=AllCheck Guess=TCheck SCRF=Check CCSD(T,E4T,FrzG4)/GTBas1
 -----------------------------------------------------------------

 Structure from the checkpoint file:  "G4.Frag_469.chk"
 --------
 Frag_469
 --------
 Charge =  0 Multiplicity = 1

 SCF Done:  E(RHF) =  -248.133850461     A.U. after   12 cycles
 E2 =    -0.7360330566D+00 EUMP2 =    -0.24886988351720D+03
 CCSD(T)
 CCSD(T)= -0.24894205954D+03
 Q=-248.9204678\CCSD=-248.921128\CCSD(T)=-248.9420595\RMSD=3.335e-09\PG
 Normal termination of Gaussian 09 at Sun Aug 21 04:42:29 2022.

 ---------------------------------------------------------
 #P Geom=AllCheck Guess=TCheck SCRF=Check MP4=FrzG4/GTBas2
 ---------------------------------------------------------

 Structure from the checkpoint file:  "G4.Frag_469.chk"
 --------
 Frag_469
 --------
 Charge =  0 Multiplicity = 1

 SCF Done:  E(RHF) =  -248.141679160     A.U. after   11 cycles
 E2 =    -0.7474660708D+00 EUMP2 =    -0.24888914523104D+03
 Normal termination of Gaussian 09 at Sun Aug 21 04:46:17 2022.

 ---------------------------------------------------------
 #P Geom=AllCheck Guess=TCheck SCRF=Check MP4=FrzG4/GTBas3
 ---------------------------------------------------------

 Structure from the checkpoint file:  "G4.Frag_469.chk"
 --------
 Frag_469
 --------
 Charge =  0 Multiplicity = 1

 SCF Done:  E(RHF) =  -248.167170145     A.U. after   10 cycles
 E2 =    -0.9185292435D+00 EUMP2 =    -0.24908569938868D+03
 Normal termination of Gaussian 09 at Sun Aug 21 05:47:07 2022.

 -----------------------------------------------------------
 #P Geom=AllCheck Guess=TCheck SCRF=Check MP2=Full/GTLargeXP
 -----------------------------------------------------------

 Structure from the checkpoint file:  "G4.Frag_469.chk"
 --------
 Frag_469
 --------
 Charge =  0 Multiplicity = 1

 SCF Done:  E(RHF) =  -248.231838178     A.U. after   10 cycles
 E2 =    -0.1200539340D+01 EUMP2 =    -0.24943237751779D+03
 Normal termination of Gaussian 09 at Sun Aug 21 05:50:24 2022.
 SCF Done:  E(RHF) =  -248.251654473     A.U. after    8 cycles
 Normal termination of Gaussian 09 at Sun Aug 21 05:54:02 2022.

                         Standard orientation:
 ---------------------------------------------------------------------
 Center     Atomic      Atomic             Coordinates (Angstroms)
 Number     Number       Type             X           Y           Z
 ---------------------------------------------------------------------
      1          6           0       -1.942702   -0.037581    0.082264
      2          8           0       -0.709002   -0.526605   -0.388114
      3          6           0        0.442053   -0.042382    0.316983
      4          6           0        0.780797    1.392555   -0.081555
      5          7           0        1.563733   -0.904974    0.059658
      6          1           0       -2.060261   -0.201029    1.165966
      7          1           0       -2.082369    1.035597   -0.116545
      8          1           0       -2.730491   -0.587359   -0.439673
      9          1           0        0.220932   -0.086871    1.396515
     10          1           0        0.995270    1.440544   -1.154780
     11          1           0        1.659638    1.737512    0.468443
     12          1           0       -0.048685    2.072245    0.129355
     13          1           0        1.790856   -0.873703   -0.931099
     14          1           0        1.300110   -1.864827    0.262965
 ---------------------------------------------------------------------

 SCF Done:  E(RHF) =  -248.256054319     A.U. after    8 cycles

 The electronic state is 1-A.
 Alpha  occ. eigenvalues --  -20.54920 -15.53949 -11.30615 -11.27004 -11.21508
 Alpha  occ. eigenvalues --   -1.37434  -1.17944  -0.99033  -0.92550  -0.81333
 Alpha  occ. eigenvalues --   -0.68581  -0.66783  -0.63690  -0.62179  -0.56624
 Alpha  occ. eigenvalues --   -0.54984  -0.52870  -0.50893  -0.47476  -0.42806
 Alpha  occ. eigenvalues --   -0.41103
 Alpha virt. eigenvalues --    0.03803   0.04299   0.04793   0.05280   0.07034
 Alpha virt. eigenvalues --    0.07225   0.07629   0.07787   0.09282   0.10444
 Alpha virt. eigenvalues --    0.11908   0.12611   0.13407   0.14826   0.15144

 Mulliken charges:
               1
     1  C   -0.350012
     2  O   -0.360737
     3  C    0.191822
     4  C   -0.515366
     5  N   -0.683222
     6  H    0.149011
     7  H    0.156055
     8  H    0.179553
     9  H    0.144140
    10  H    0.163166
    11  H    0.188956
    12  H    0.164520
    13  H    0.282598
    14  H    0.289517
 Sum of Mulliken charges =  -0.00000

 Dipole moment (field-independent basis, Debye):
    X=             -1.0012    Y=              0.4987    Z=              0.2820  Tot=              1.1535
 Quadrupole moment (field-independent basis, Debye-Ang):
   XX=            -33.7123   YY=            -31.1012   ZZ=            -32.2520
   XY=             -0.6341   XZ=             -2.9150   YZ=             -0.1839

 Normal termination of Gaussian 09 at Sun Aug 21 07:42:31 2022.
