 Gaussian 09, Revision E.01,
 Gaussian 09:  ES64L-G09RevE.01 30-Nov-2015

 -----
 #P G4
 -----

 --------
 Frag_715
 --------
 Symbolic Z-matrix:
 Charge =  0 Multiplicity = 1

 SCF Done:  E(RB3LYP) =  -247.267860548     A.U. after   15 cycles
 SCF Done:  E(RB3LYP) =  -247.285619218     A.U. after   13 cycles
 SCF Done:  E(RB3LYP) =  -247.286671098     A.U. after   12 cycles
 SCF Done:  E(RB3LYP) =  -247.283425543     A.U. after   14 cycles
 SCF Done:  E(RB3LYP) =  -247.286752164     A.U. after    9 cycles
 SCF Done:  E(RB3LYP) =  -247.286808885     A.U. after   12 cycles
 SCF Done:  E(RB3LYP) =  -247.286819104     A.U. after   10 cycles
 SCF Done:  E(RB3LYP) =  -247.286822123     A.U. after    9 cycles
 SCF Done:  E(RB3LYP) =  -247.286824227     A.U. after    9 cycles
 SCF Done:  E(RB3LYP) =  -247.286824683     A.U. after    8 cycles
 SCF Done:  E(RB3LYP) =  -247.286824785     A.U. after    8 cycles
 Optimization completed.
    -- Stationary point found.
 Normal termination of Gaussian 09 at Tue Aug 30 12:20:23 2022.

 ----------------------------------------------------------
 #P Geom=AllCheck Guess=TCheck SCRF=Check B3LYP/GTBas3 Freq
 ----------------------------------------------------------

 Structure from the checkpoint file:  "G4.Frag_715.chk"
 --------
 Frag_715
 --------
 Charge =  0 Multiplicity = 1

 SCF Done:  E(RB3LYP) =  -247.286824785     A.U. after    1 cycles

  Exact polarizability:  49.137   0.675  57.637   0.375   0.017  21.855
 Approx polarizability:  73.922  -1.070  94.451  -0.361   1.227  33.286

                      1                      2                      3
                      A                      A                      A
 Frequencies --    145.9876               277.3619               290.5201
 Red. masses --      2.5573                 1.0946                 3.6273
 Frc consts  --      0.0321                 0.0496                 0.1804
 IR Inten    --      5.3535                23.6738                 7.2792

                      4                      5                      6
                      A                      A                      A
 Frequencies --    417.3075               475.3444               601.8611
 Red. masses --      2.5642                 2.2037                 3.1421
 Frc consts  --      0.2631                 0.2934                 0.6706
 IR Inten    --      5.5261                27.5484                69.0532

                      7                      8                      9
                      A                      A                      A
 Frequencies --    641.5400               741.2183               874.8526
 Red. masses --      1.3374                 1.2943                 1.3681
 Frc consts  --      0.3243                 0.4190                 0.6169
 IR Inten    --    154.9944                24.2484                45.5317

                     10                     11                     12
                      A                      A                      A
 Frequencies --    898.4255               992.0105              1034.3013
 Red. masses --      3.5927                 1.6389                 1.8136
 Frc consts  --      1.7086                 0.9503                 1.1431
 IR Inten    --     49.5397                22.4193                 2.1482

                     13                     14                     15
                      A                      A                      A
 Frequencies --   1115.8926              1345.0457              1429.2004
 Red. masses --      1.4666                 2.2517                 1.2024
 Frc consts  --      1.0760                 2.4001                 1.4471
 IR Inten    --      6.4590                39.8277                22.1524

                     16                     17                     18
                      A                      A                      A
 Frequencies --   1446.2157              1646.7422              1690.4797
 Red. masses --      1.3533                 1.1984                 4.5256
 Frc consts  --      1.6677                 1.9147                 7.6199
 IR Inten    --     11.2264                17.6584               147.2216

                     19                     20                     21
                      A                      A                      A
 Frequencies --   1823.5978              2854.2820              3167.6163
 Red. masses --      9.7792                 1.0817                 1.0604
 Frc consts  --     19.1607                 5.1924                 6.2686
 IR Inten    --     88.0901               137.9290                 7.7106

                     22                     23                     24
                      A                      A                      A
 Frequencies --   3267.0907              3550.5843              3649.7980
 Red. masses --      1.1147                 1.0479                 1.0968
 Frc consts  --      7.0103                 7.7835                 8.6080
 IR Inten    --      0.8011                12.6298                13.7039

 - Thermochemistry -
 -------------------
 Temperature   298.150 Kelvin.  Pressure   1.00000 Atm.
 Atom     1 has atomic number  6 and mass  12.00000

 Molecular mass:    71.03711 amu.
 Principal axes and moments of inertia in atomic units:
                           1         2         3
     Eigenvalues --   184.01571 425.99523 607.98906
           X            0.99995   0.00273   0.00926
           Y           -0.00263   0.99994  -0.01082
           Z           -0.00929   0.01079   0.99990
 This molecule is an asymmetric top.
 Rotational symmetry number  1.
 Rotational temperatures (Kelvin)      0.47069     0.20332     0.14246
 Rotational constants (GHZ):           9.80754     4.23653     2.96838
 Zero-point vibrational energy     205621.8 (Joules/Mol)
                                   49.14478 (Kcal/Mol)
 Warning -- explicit consideration of   6 degrees of freedom as
           vibrations may cause significant error
 Vibrational temperatures:    210.04   399.06   417.99   600.41   683.91
          (Kelvin)            865.94   923.03  1066.45  1258.72  1292.63
                             1427.28  1488.13  1605.52  1935.22  2056.30
                             2080.78  2369.29  2432.22  2623.75  4106.67
                             4557.49  4700.61  5108.49  5251.24

 Zero-point correction=                           0.078317 (Hartree/Particle)
 Thermal correction to Energy=                    0.083847
 Thermal correction to Enthalpy=                  0.084792
 Thermal correction to Gibbs Free Energy=         0.050047
 Sum of electronic and zero-point Energies=           -247.208508
 Sum of electronic and thermal Energies=              -247.202977
 Sum of electronic and thermal Enthalpies=            -247.202033
 Sum of electronic and thermal Free Energies=         -247.236778

                     E (Thermal)             CV                S
                      KCal/Mol        Cal/Mol-Kelvin    Cal/Mol-Kelvin
 Total                   52.615             19.189             73.127
 Electronic               0.000              0.000              0.000
 Translational            0.889              2.981             38.699
 Rotational               0.889              2.981             25.369
 Vibrational             50.838             13.228              9.058
 Vibration     1          0.617              1.907              2.724
 Vibration     2          0.678              1.715              1.550
 Vibration     3          0.686              1.691              1.471
 Vibration     4          0.780              1.433              0.901
 Vibration     5          0.832              1.305              0.723
 Vibration     6          0.960              1.028              0.446

 Optimization completed.
    -- Stationary point found.
 Normal termination of Gaussian 09 at Tue Aug 30 12:20:41 2022.

 -----------------------------------------------------------------
 #P Geom=AllCheck Guess=TCheck SCRF=Check CCSD(T,E4T,FrzG4)/GTBas1
 -----------------------------------------------------------------

 Structure from the checkpoint file:  "G4.Frag_715.chk"
 --------
 Frag_715
 --------
 Charge =  0 Multiplicity = 1

 SCF Done:  E(RHF) =  -245.785145952     A.U. after   14 cycles
 E2 =    -0.7165628652D+00 EUMP2 =    -0.24650170881761D+03
 CCSD(T)
 CCSD(T)= -0.24656143716D+03
 Normal termination of Gaussian 09 at Tue Aug 30 12:21:32 2022.

 ---------------------------------------------------------
 #P Geom=AllCheck Guess=TCheck SCRF=Check MP4=FrzG4/GTBas2
 ---------------------------------------------------------

 Structure from the checkpoint file:  "G4.Frag_715.chk"
 --------
 Frag_715
 --------
 Charge =  0 Multiplicity = 1

 SCF Done:  E(RHF) =  -245.794449326     A.U. after   13 cycles
 E2 =    -0.7266505840D+00 EUMP2 =    -0.24652109991003D+03
 Normal termination of Gaussian 09 at Tue Aug 30 12:21:46 2022.

 ---------------------------------------------------------
 #P Geom=AllCheck Guess=TCheck SCRF=Check MP4=FrzG4/GTBas3
 ---------------------------------------------------------

 Structure from the checkpoint file:  "G4.Frag_715.chk"
 --------
 Frag_715
 --------
 Charge =  0 Multiplicity = 1

 SCF Done:  E(RHF) =  -245.815748345     A.U. after   12 cycles
 E2 =    -0.8694335364D+00 EUMP2 =    -0.24668518188164D+03
 Normal termination of Gaussian 09 at Tue Aug 30 12:22:47 2022.

 -----------------------------------------------------------
 #P Geom=AllCheck Guess=TCheck SCRF=Check MP2=Full/GTLargeXP
 -----------------------------------------------------------

 Structure from the checkpoint file:  "G4.Frag_715.chk"
 --------
 Frag_715
 --------
 Charge =  0 Multiplicity = 1

 SCF Done:  E(RHF) =  -245.880699538     A.U. after   13 cycles
 E2 =    -0.1144704035D+01 EUMP2 =    -0.24702540357271D+03
 Normal termination of Gaussian 09 at Tue Aug 30 12:23:31 2022.
 SCF Done:  E(RHF) =  -245.900121165     A.U. after   10 cycles
 Normal termination of Gaussian 09 at Tue Aug 30 12:24:21 2022.

                         Standard orientation:
 ---------------------------------------------------------------------
 Center     Atomic      Atomic             Coordinates (Angstroms)
 Number     Number       Type             X           Y           Z
 ---------------------------------------------------------------------
      1          6           0        0.514013    1.429390    0.006587
      2          6           0        0.458053    0.090150   -0.004439
      3          7           0        1.544611   -0.784353   -0.075435
      4          6           0       -0.869908   -0.592168   -0.027677
      5          8           0       -1.938612   -0.037136    0.027100
      6          1           0       -0.410902    1.989348   -0.023495
      7          1           0        1.450062    1.975679    0.025150
      8          1           0        1.412129   -1.664907    0.403722
      9          1           0        2.436880   -0.373099    0.158765
     10          1           0       -0.804500   -1.703702   -0.099722
 ---------------------------------------------------------------------

 SCF Done:  E(RHF) =  -245.904084572     A.U. after    8 cycles

 The electronic state is 1-A.
 Alpha  occ. eigenvalues --  -20.56212 -15.58069 -11.34143 -11.28704 -11.23035
 Alpha  occ. eigenvalues --   -1.40129  -1.23484  -1.02866  -0.90100  -0.75695
 Alpha  occ. eigenvalues --   -0.71234  -0.69427  -0.62930  -0.60862  -0.56844
 Alpha  occ. eigenvalues --   -0.55300  -0.49779  -0.43627  -0.33831
 Alpha virt. eigenvalues --    0.03248   0.04206   0.05238   0.05983   0.06274
 Alpha virt. eigenvalues --    0.07019   0.07598   0.08811   0.09566   0.10008
 Alpha virt. eigenvalues --    0.10294   0.12696   0.13047   0.13213   0.15657

 Mulliken charges:
               1
     1  C   -0.409743
     2  C    0.183210
     3  N   -0.716785
     4  C    0.275161
     5  O   -0.513347
     6  H    0.231147
     7  H    0.175972
     8  H    0.303147
     9  H    0.312313
    10  H    0.158925
 Sum of Mulliken charges =  -0.00000

 Dipole moment (field-independent basis, Debye):
    X=              3.3895    Y=             -1.2382    Z=              0.9127  Tot=              3.7222
 Quadrupole moment (field-independent basis, Debye-Ang):
   XX=            -32.9627   YY=            -25.7680   ZZ=            -32.2477
   XY=              0.8741   XZ=              2.3169   YZ=             -1.6598

 Normal termination of Gaussian 09 at Tue Aug 30 12:29:21 2022.
