 Gaussian 09, Revision E.01,
 Gaussian 09:  ES64L-G09RevE.01 30-Nov-2015

 -----
 #P G4
 -----

 --------
 Frag_689
 --------
 Symbolic Z-matrix:
 Charge =  0 Multiplicity = 1

 SCF Done:  E(RB3LYP) =  -302.624985057     A.U. after   15 cycles
 SCF Done:  E(RB3LYP) =  -302.647857684     A.U. after   13 cycles
 SCF Done:  E(RB3LYP) =  -302.650310326     A.U. after   12 cycles
 SCF Done:  E(RB3LYP) =  -302.650394629     A.U. after   11 cycles
 SCF Done:  E(RB3LYP) =  -302.650454830     A.U. after   10 cycles
 SCF Done:  E(RB3LYP) =  -302.650588329     A.U. after   11 cycles
 SCF Done:  E(RB3LYP) =  -302.649343816     A.U. after   12 cycles
 SCF Done:  E(RB3LYP) =  -302.650665608     A.U. after   11 cycles
 SCF Done:  E(RB3LYP) =  -302.650751785     A.U. after   10 cycles
 SCF Done:  E(RB3LYP) =  -302.650923212     A.U. after   11 cycles
 SCF Done:  E(RB3LYP) =  -302.651034156     A.U. after   10 cycles
 SCF Done:  E(RB3LYP) =  -302.651041913     A.U. after    9 cycles
 SCF Done:  E(RB3LYP) =  -302.651042402     A.U. after    8 cycles
 Optimization completed.
    -- Stationary point found.
 Normal termination of Gaussian 09 at Fri Aug 26 05:54:35 2022.

 ----------------------------------------------------------
 #P Geom=AllCheck Guess=TCheck SCRF=Check B3LYP/GTBas3 Freq
 ----------------------------------------------------------

 Structure from the checkpoint file:  "G4.Frag_689.chk"
 --------
 Frag_689
 --------
 Charge =  0 Multiplicity = 1

 SCF Done:  E(RB3LYP) =  -302.651042402     A.U. after    1 cycles

  Exact polarizability:  60.681   4.106  60.824   2.245  -0.540  27.520
 Approx polarizability:  85.424   5.754 101.687   5.252  -1.781  43.157

                      1                      2                      3
                      A                      A                      A
 Frequencies --     79.8725               293.5362               342.8306
 Red. masses --      4.4814                 3.6273                 2.1868
 Frc consts  --      0.0168                 0.1841                 0.1514
 IR Inten    --      1.7027                 3.5412                44.2774

                      4                      5                      6
                      A                      A                      A
 Frequencies --    407.5869               423.0772               436.4546
 Red. masses --      1.8926                 1.2197                 1.5594
 Frc consts  --      0.1853                 0.1286                 0.1750
 IR Inten    --     39.6121                60.3143                49.2605

                      7                      8                      9
                      A                      A                      A
 Frequencies --    527.4262               538.6390               583.6280
 Red. masses --      1.3821                 2.4876                 3.1033
 Frc consts  --      0.2265                 0.4252                 0.6228
 IR Inten    --    171.7834                10.2128                21.1361

                     10                     11                     12
                      A                      A                      A
 Frequencies --    722.8957               766.1653               779.6577
 Red. masses --      1.2466                 3.7183                 3.3609
 Frc consts  --      0.3838                 1.2860                 1.2037
 IR Inten    --      3.9362                 8.8662                12.0380

                     13                     14                     15
                      A                      A                      A
 Frequencies --    835.4829               845.7788               971.9672
 Red. masses --      1.1563                 1.4449                 1.8803
 Frc consts  --      0.4755                 0.6090                 1.0466
 IR Inten    --     93.5667                 6.6671                17.9918

                     16                     17                     18
                      A                      A                      A
 Frequencies --   1120.8158              1143.2841              1183.6385
 Red. masses --      1.8128                 1.4100                 1.6254
 Frc consts  --      1.3417                 1.0859                 1.3417
 IR Inten    --     56.8198                 9.8733               262.6319

                     19                     20                     21
                      A                      A                      A
 Frequencies --   1343.1803              1425.0331              1463.8703
 Red. masses --      1.8524                 1.5944                 1.7401
 Frc consts  --      1.9691                 1.9076                 2.1970
 IR Inten    --     22.9191                29.1161                54.4492

                     22                     23                     24
                      A                      A                      A
 Frequencies --   1614.5326              1696.9670              1729.7574
 Red. masses --      1.2578                 6.8818                 5.7299
 Frc consts  --      1.9318                11.6761                10.1010
 IR Inten    --     91.0968               216.4291                26.3697

                     25                     26                     27
                      A                      A                      A
 Frequencies --   3164.5444              3262.8781              3520.5437
 Red. masses --      1.0647                 1.1116                 1.0742
 Frc consts  --      6.2823                 6.9728                 7.8440
 IR Inten    --      3.8057                 3.0088                 1.0339

                     28                     29                     30
                      A                      A                      A
 Frequencies --   3595.9259              3721.0844              3810.4359
 Red. masses --      1.0456                 1.1012                 1.0657
 Frc consts  --      7.9656                 8.9834                 9.1166
 IR Inten    --     33.0104                47.6438                31.1553

 - Thermochemistry -
 -------------------
 Temperature   298.150 Kelvin.  Pressure   1.00000 Atm.
 Atom     1 has atomic number  6 and mass  12.00000

 Molecular mass:    86.04801 amu.
 Principal axes and moments of inertia in atomic units:
                           1         2         3
     Eigenvalues --   333.62705 519.47540 814.33371
           X            0.99607   0.08842   0.00568
           Y           -0.08842   0.99608   0.00108
           Z           -0.00556  -0.00158   0.99998
 This molecule is an asymmetric top.
 Rotational symmetry number  1.
 Rotational temperatures (Kelvin)      0.25961     0.16673     0.10636
 Rotational constants (GHZ):           5.40946     3.47416     2.21622
 Zero-point vibrational energy     253318.2 (Joules/Mol)
                                   60.54449 (Kcal/Mol)
 Warning -- explicit consideration of   9 degrees of freedom as
           vibrations may cause significant error
 Vibrational temperatures:    114.92   422.33   493.26   586.43   608.71
          (Kelvin)            627.96   758.85   774.98   839.71  1040.08
                             1102.34  1121.75  1202.07  1216.89  1398.44
                             1612.60  1644.93  1702.99  1932.53  2050.30
                             2106.18  2322.95  2441.55  2488.73  4553.07
                             4694.55  5065.27  5173.73  5353.80  5482.36

 Zero-point correction=                           0.096484 (Hartree/Particle)
 Thermal correction to Energy=                    0.102868
 Thermal correction to Enthalpy=                  0.103812
 Thermal correction to Gibbs Free Energy=         0.066760
 Sum of electronic and zero-point Energies=           -302.554559
 Sum of electronic and thermal Energies=              -302.548175
 Sum of electronic and thermal Enthalpies=            -302.547231
 Sum of electronic and thermal Free Energies=         -302.584282

                     E (Thermal)             CV                S
                      KCal/Mol        Cal/Mol-Kelvin    Cal/Mol-Kelvin
 Total                   64.550             23.799             77.982
 Electronic               0.000              0.000              0.000
 Translational            0.889              2.981             39.270
 Rotational               0.889              2.981             26.448
 Vibrational             62.773             17.838             12.263
 Vibration     1          0.600              1.963              3.894
 Vibration     2          0.688              1.686              1.453
 Vibration     3          0.722              1.590              1.199
 Vibration     4          0.772              1.454              0.935
 Vibration     5          0.785              1.420              0.882
 Vibration     6          0.797              1.391              0.838
 Vibration     7          0.882              1.189              0.593
 Vibration     8          0.894              1.165              0.568
 Vibration     9          0.941              1.067              0.479

 Optimization completed.
    -- Stationary point found.
 Normal termination of Gaussian 09 at Fri Aug 26 05:55:03 2022.

 -----------------------------------------------------------------
 #P Geom=AllCheck Guess=TCheck SCRF=Check CCSD(T,E4T,FrzG4)/GTBas1
 -----------------------------------------------------------------

 Structure from the checkpoint file:  "G4.Frag_689.chk"
 --------
 Frag_689
 --------
 Charge =  0 Multiplicity = 1

 SCF Done:  E(RHF) =  -300.814933513     A.U. after   13 cycles
 E2 =    -0.8816914463D+00 EUMP2 =    -0.30169662495940D+03
 CCSD(T)
 CCSD(T)= -0.30176646110D+03
 SD=-301.7354473\CCSD(T)=-301.7664611\RMSD=5.551e-09\PG=C01 [X(C3H6N2O1
 Normal termination of Gaussian 09 at Fri Aug 26 05:56:43 2022.

 ---------------------------------------------------------
 #P Geom=AllCheck Guess=TCheck SCRF=Check MP4=FrzG4/GTBas2
 ---------------------------------------------------------

 Structure from the checkpoint file:  "G4.Frag_689.chk"
 --------
 Frag_689
 --------
 Charge =  0 Multiplicity = 1

 SCF Done:  E(RHF) =  -300.827138809     A.U. after   13 cycles
 E2 =    -0.8957637252D+00 EUMP2 =    -0.30172290253379D+03
 Normal termination of Gaussian 09 at Fri Aug 26 05:57:14 2022.

 ---------------------------------------------------------
 #P Geom=AllCheck Guess=TCheck SCRF=Check MP4=FrzG4/GTBas3
 ---------------------------------------------------------

 Structure from the checkpoint file:  "G4.Frag_689.chk"
 --------
 Frag_689
 --------
 Charge =  0 Multiplicity = 1

 SCF Done:  E(RHF) =  -300.858619244     A.U. after   12 cycles
 E2 =    -0.1068134711D+01 EUMP2 =    -0.30192675395517D+03
 Normal termination of Gaussian 09 at Fri Aug 26 05:59:58 2022.

 -----------------------------------------------------------
 #P Geom=AllCheck Guess=TCheck SCRF=Check MP2=Full/GTLargeXP
 -----------------------------------------------------------

 Structure from the checkpoint file:  "G4.Frag_689.chk"
 --------
 Frag_689
 --------
 Charge =  0 Multiplicity = 1

 SCF Done:  E(RHF) =  -300.939662099     A.U. after   13 cycles
 E2 =    -0.1402790144D+01 EUMP2 =    -0.30234245224317D+03
 Normal termination of Gaussian 09 at Fri Aug 26 06:01:39 2022.
 SCF Done:  E(RHF) =  -300.963538168     A.U. after    9 cycles
 Normal termination of Gaussian 09 at Fri Aug 26 06:03:17 2022.

                         Standard orientation:
 ---------------------------------------------------------------------
 Center     Atomic      Atomic             Coordinates (Angstroms)
 Number     Number       Type             X           Y           Z
 ---------------------------------------------------------------------
      1          6           0        1.564728    1.032562    0.266041
      2          6           0        0.727879    0.031398   -0.007154
      3          8           0        1.121028   -1.247865   -0.291765
      4          6           0       -0.767122    0.169287   -0.015449
      5          7           0       -1.413425    1.244827   -0.266314
      6          7           0       -1.429243   -0.983980    0.331011
      7          1           0        1.188036    2.010582    0.529356
      8          1           0        2.641123    0.898822    0.252244
      9          1           0        2.077825   -1.313960   -0.198287
     10          1           0       -0.771825    1.999702   -0.496263
     11          1           0       -2.417566   -0.984430    0.133156
     12          1           0       -0.940051   -1.853218    0.200409
 ---------------------------------------------------------------------

 SCF Done:  E(RHF) =  -300.968516436     A.U. after    8 cycles

 The electronic state is 1-A.
 Alpha  occ. eigenvalues --  -20.60904 -15.56573 -15.52304 -11.32341 -11.32260
 Alpha  occ. eigenvalues --  -11.23658  -1.42833  -1.25976  -1.14239  -1.04497
 Alpha  occ. eigenvalues --   -0.89190  -0.77884  -0.73033  -0.70764  -0.66178
 Alpha  occ. eigenvalues --   -0.62346  -0.60790  -0.58039  -0.56099  -0.52383
 Alpha  occ. eigenvalues --   -0.42987  -0.38303  -0.35066
 Alpha virt. eigenvalues --    0.03092   0.04383   0.04943   0.05742   0.06509
 Alpha virt. eigenvalues --    0.07061   0.07788   0.08348   0.09339   0.09946
 Alpha virt. eigenvalues --    0.11338   0.12027   0.12906   0.13856   0.14081

 Mulliken charges:
               1
     1  C   -0.482208
     2  C    0.273128
     3  O   -0.569422
     4  C    0.449681
     5  N   -0.722702
     6  N   -0.683378
     7  H    0.202183
     8  H    0.166344
     9  H    0.392247
    10  H    0.286950
    11  H    0.343675
    12  H    0.343502
 Sum of Mulliken charges =  -0.00000

 Dipole moment (field-independent basis, Debye):
    X=              3.2124    Y=             -1.5983    Z=             -0.0629  Tot=              3.5886
 Quadrupole moment (field-independent basis, Debye-Ang):
   XX=            -32.2705   YY=            -33.4597   ZZ=            -40.1460
   XY=              4.2788   XZ=              0.3329   YZ=              0.3925

 Normal termination of Gaussian 09 at Fri Aug 26 06:09:20 2022.
