 Gaussian 09, Revision E.01,
 Gaussian 09:  ES64L-G09RevE.01 30-Nov-2015

 -----
 #P G4
 -----

 --------
 Frag_934
 --------
 Symbolic Z-matrix:
 Charge =  0 Multiplicity = 1

 SCF Done:  E(RB3LYP) =  -303.843127293     A.U. after   14 cycles
 SCF Done:  E(RB3LYP) =  -303.850198908     A.U. after   12 cycles
 SCF Done:  E(RB3LYP) =  -303.851386545     A.U. after   12 cycles
 SCF Done:  E(RB3LYP) =  -303.853205744     A.U. after   13 cycles
 SCF Done:  E(RB3LYP) =  -303.854326926     A.U. after   13 cycles
 SCF Done:  E(RB3LYP) =  -303.855094283     A.U. after   13 cycles
 SCF Done:  E(RB3LYP) =  -303.855388880     A.U. after   12 cycles
 SCF Done:  E(RB3LYP) =  -303.855519023     A.U. after   10 cycles
 SCF Done:  E(RB3LYP) =  -303.855583205     A.U. after   10 cycles
 SCF Done:  E(RB3LYP) =  -303.855610544     A.U. after   10 cycles
 SCF Done:  E(RB3LYP) =  -303.855617522     A.U. after   10 cycles
 SCF Done:  E(RB3LYP) =  -303.855619730     A.U. after    8 cycles
 SCF Done:  E(RB3LYP) =  -303.855621022     A.U. after    7 cycles
 Optimization completed.
    -- Stationary point found.
 Normal termination of Gaussian 09 at Fri Aug 26 14:20:04 2022.

 ----------------------------------------------------------
 #P Geom=AllCheck Guess=TCheck SCRF=Check B3LYP/GTBas3 Freq
 ----------------------------------------------------------

 Structure from the checkpoint file:  "G4.Frag_934.chk"
 --------
 Frag_934
 --------
 Charge =  0 Multiplicity = 1

 SCF Done:  E(RB3LYP) =  -303.855621022     A.U. after    1 cycles

  Exact polarizability:  61.278   2.081  47.329  -1.616  -3.260  45.473
 Approx polarizability:  85.978   3.974  68.525  -7.251  -6.686  67.390

                      1                      2                      3
                      A                      A                      A
 Frequencies --    114.2411               214.8498               297.9332
 Red. masses --      3.2390                 1.0317                 1.3688
 Frc consts  --      0.0249                 0.0281                 0.0716
 IR Inten    --      4.3533                 1.7837                24.3452

                      4                      5                      6
                      A                      A                      A
 Frequencies --    325.3556               341.3301               369.8731
 Red. masses --      2.1097                 1.4062                 2.0895
 Frc consts  --      0.1316                 0.0965                 0.1684
 IR Inten    --     18.4039                61.2735                13.4757

                      7                      8                      9
                      A                      A                      A
 Frequencies --    400.8366               479.6880               506.0127
 Red. masses --      1.9778                 2.4123                 2.8761
 Frc consts  --      0.1872                 0.3270                 0.4339
 IR Inten    --     19.5743                22.7843                12.2262

                     10                     11                     12
                      A                      A                      A
 Frequencies --    567.8382               737.2632               756.6808
 Red. masses --      2.4450                 3.9990                 1.5193
 Frc consts  --      0.4645                 1.2807                 0.5125
 IR Inten    --     37.0504                 1.4359                20.0845

                     13                     14                     15
                      A                      A                      A
 Frequencies --    774.4461               888.1649               981.7832
 Red. masses --      1.5656                 2.6287                 1.5408
 Frc consts  --      0.5532                 1.2217                 0.8750
 IR Inten    --    162.2343                22.6183                10.6475

                     16                     17                     18
                      A                      A                      A
 Frequencies --   1020.9684              1073.1013              1110.4563
 Red. masses --      1.9175                 1.3623                 1.6814
 Frc consts  --      1.1776                 0.9243                 1.2216
 IR Inten    --     72.5669                 8.0583                26.8746

                     19                     20                     21
                      A                      A                      A
 Frequencies --   1196.5375              1235.9959              1328.5057
 Red. masses --      1.9298                 1.9247                 1.9813
 Frc consts  --      1.6279                 1.7324                 2.0602
 IR Inten    --     64.7491               118.5156                41.6197

                     22                     23                     24
                      A                      A                      A
 Frequencies --   1379.4993              1398.3093              1480.9660
 Red. masses --      1.5811                 1.3532                 1.0742
 Frc consts  --      1.7728                 1.5589                 1.3881
 IR Inten    --     85.5786                25.7483                 0.3454

                     25                     26                     27
                      A                      A                      A
 Frequencies --   1485.3322              1490.1056              1635.1980
 Red. masses --      1.0533                 1.1212                 1.1231
 Frc consts  --      1.3691                 1.4668                 1.7693
 IR Inten    --      1.8685                23.4662                19.3361

                     28                     29                     30
                      A                      A                      A
 Frequencies --   1747.8044              3012.8507              3045.2609
 Red. masses --      6.9226                 1.0633                 1.0374
 Frc consts  --     12.4596                 5.6868                 5.6680
 IR Inten    --     28.6290                40.2353                13.3261

                     31                     32                     33
                      A                      A                      A
 Frequencies --   3120.6921              3132.9432              3148.1243
 Red. masses --      1.0977                 1.1048                 1.1036
 Frc consts  --      6.2982                 6.3889                 6.4440
 IR Inten    --     18.9385                27.2199                12.1880

                     34                     35                     36
                      A                      A                      A
 Frequencies --   3519.3629              3619.5000              3801.5617
 Red. masses --      1.0479                 1.0944                 1.0648
 Frc consts  --      7.6469                 8.4474                 9.0669
 IR Inten    --      1.2861                 2.5789                33.2253

 - Thermochemistry -
 -------------------
 Temperature   298.150 Kelvin.  Pressure   1.00000 Atm.
 Atom     1 has atomic number  6 and mass  12.00000

 Molecular mass:    88.06366 amu.
 Principal axes and moments of inertia in atomic units:
                           1         2         3
     Eigenvalues --   380.17470 601.91775 607.16207
           X            0.99718   0.06987   0.02753
           Y           -0.06965   0.99753  -0.00896
           Z           -0.02809   0.00702   0.99958
 This molecule is an asymmetric top.
 Rotational symmetry number  1.
 Rotational temperatures (Kelvin)      0.22783     0.14390     0.14265
 Rotational constants (GHZ):           4.74714     2.99832     2.97242
 Zero-point vibrational energy     309470.2 (Joules/Mol)
                                   73.96515 (Kcal/Mol)
 Warning -- explicit consideration of  10 degrees of freedom as
           vibrations may cause significant error
 Vibrational temperatures:    164.37   309.12   428.66   468.11   491.10
          (Kelvin)            532.16   576.71   690.16   728.04   816.99
                             1060.76  1088.69  1114.25  1277.87  1412.57
                             1468.94  1543.95  1597.70  1721.55  1778.32
                             1911.42  1984.79  2011.85  2130.78  2137.06
                             2143.93  2352.68  2514.70  4334.81  4381.45
                             4489.97  4507.60  4529.44  5063.57  5207.65
                             5469.59

 Zero-point correction=                           0.117871 (Hartree/Particle)
 Thermal correction to Energy=                    0.124954
 Thermal correction to Enthalpy=                  0.125898
 Thermal correction to Gibbs Free Energy=         0.087802
 Sum of electronic and zero-point Energies=           -303.737750
 Sum of electronic and thermal Energies=              -303.730667
 Sum of electronic and thermal Enthalpies=            -303.729723
 Sum of electronic and thermal Free Energies=         -303.767819

                     E (Thermal)             CV                S
                      KCal/Mol        Cal/Mol-Kelvin    Cal/Mol-Kelvin
 Total                   78.410             26.328             80.179
 Electronic               0.000              0.000              0.000
 Translational            0.889              2.981             39.339
 Rotational               0.889              2.981             26.433
 Vibrational             76.632             20.367             14.407
 Vibration     1          0.607              1.938              3.196
 Vibration     2          0.645              1.818              2.002
 Vibration     3          0.691              1.678              1.428
 Vibration     4          0.709              1.625              1.283
 Vibration     5          0.721              1.593              1.206
 Vibration     6          0.742              1.534              1.080
 Vibration     7          0.767              1.468              0.960
 Vibration     8          0.836              1.295              0.711
 Vibration     9          0.861              1.237              0.643
 Vibration    10          0.924              1.101              0.508

 Optimization completed.
    -- Stationary point found.
 Normal termination of Gaussian 09 at Fri Aug 26 14:20:37 2022.

 -----------------------------------------------------------------
 #P Geom=AllCheck Guess=TCheck SCRF=Check CCSD(T,E4T,FrzG4)/GTBas1
 -----------------------------------------------------------------

 Structure from the checkpoint file:  "G4.Frag_934.chk"
 --------
 Frag_934
 --------
 Charge =  0 Multiplicity = 1

 SCF Done:  E(RHF) =  -301.983093473     A.U. after   13 cycles
 E2 =    -0.8947136495D+00 EUMP2 =    -0.30287780712221D+03
 CCSD(T)
 CCSD(T)= -0.30295475513D+03
 4SDQ=-302.9252874\CCSD=-302.9257239\CCSD(T)=-302.9547551\RMSD=7.788e-0
 Normal termination of Gaussian 09 at Fri Aug 26 14:22:49 2022.

 ---------------------------------------------------------
 #P Geom=AllCheck Guess=TCheck SCRF=Check MP4=FrzG4/GTBas2
 ---------------------------------------------------------

 Structure from the checkpoint file:  "G4.Frag_934.chk"
 --------
 Frag_934
 --------
 Charge =  0 Multiplicity = 1

 SCF Done:  E(RHF) =  -301.994392496     A.U. after   13 cycles
 E2 =    -0.9093075994D+00 EUMP2 =    -0.30290370009545D+03
 Normal termination of Gaussian 09 at Fri Aug 26 14:23:26 2022.

 ---------------------------------------------------------
 #P Geom=AllCheck Guess=TCheck SCRF=Check MP4=FrzG4/GTBas3
 ---------------------------------------------------------

 Structure from the checkpoint file:  "G4.Frag_934.chk"
 --------
 Frag_934
 --------
 Charge =  0 Multiplicity = 1

 SCF Done:  E(RHF) =  -302.025157126     A.U. after   12 cycles
 E2 =    -0.1094708982D+01 EUMP2 =    -0.30311986610746D+03
 Normal termination of Gaussian 09 at Fri Aug 26 14:26:54 2022.

 -----------------------------------------------------------
 #P Geom=AllCheck Guess=TCheck SCRF=Check MP2=Full/GTLargeXP
 -----------------------------------------------------------

 Structure from the checkpoint file:  "G4.Frag_934.chk"
 --------
 Frag_934
 --------
 Charge =  0 Multiplicity = 1

 SCF Done:  E(RHF) =  -302.105084938     A.U. after   12 cycles
 E2 =    -0.1432132195D+01 EUMP2 =    -0.30353721713312D+03
 Normal termination of Gaussian 09 at Fri Aug 26 14:28:54 2022.
 SCF Done:  E(RHF) =  -302.128536884     A.U. after    9 cycles
 Normal termination of Gaussian 09 at Fri Aug 26 14:30:56 2022.

                         Standard orientation:
 ---------------------------------------------------------------------
 Center     Atomic      Atomic             Coordinates (Angstroms)
 Number     Number       Type             X           Y           Z
 ---------------------------------------------------------------------
      1          6           0       -2.018882    0.136740    0.076205
      2          7           0       -0.937171    0.632382   -0.340557
      3          6           0        0.356781   -0.035211   -0.037756
      4          6           0        1.109517    0.876962    0.939423
      5          7           0        0.344786   -1.381239    0.473422
      6          8           0        1.018091   -0.119120   -1.283651
      7          1           0       -2.082587   -0.784385    0.670987
      8          1           0       -2.961225    0.633649   -0.158841
      9          1           0        1.119557    1.899839    0.557177
     10          1           0        2.133964    0.514116    1.040581
     11          1           0        0.629728    0.884789    1.923868
     12          1           0       -0.144851   -2.006309   -0.157555
     13          1           0       -0.062615   -1.440373    1.398427
     14          1           0        0.685497    0.622686   -1.802716
 ---------------------------------------------------------------------

 SCF Done:  E(RHF) =  -302.133644873     A.U. after    8 cycles

 The electronic state is 1-A.
 Alpha  occ. eigenvalues --  -20.55224 -15.57044 -15.54821 -11.34729 -11.28610
 Alpha  occ. eigenvalues --  -11.21526  -1.38371  -1.23549  -1.16781  -0.99394
 Alpha  occ. eigenvalues --   -0.87550  -0.79065  -0.71909  -0.68389  -0.65834
 Alpha  occ. eigenvalues --   -0.61808  -0.58281  -0.57237  -0.53458  -0.52556
 Alpha  occ. eigenvalues --   -0.46280  -0.45708  -0.43800  -0.39536
 Alpha virt. eigenvalues --    0.03124   0.04164   0.04807   0.05085   0.06378
 Alpha virt. eigenvalues --    0.06775   0.07454   0.07673   0.08258   0.09812
 Alpha virt. eigenvalues --    0.11362   0.12393   0.12721   0.13600   0.13951

 Mulliken charges:
               1
     1  C   -0.239451
     2  N   -0.355856
     3  C    0.543240
     4  C   -0.546766
     5  N   -0.716436
     6  O   -0.603916
     7  H    0.170516
     8  H    0.213450
     9  H    0.186448
    10  H    0.194658
    11  H    0.163531
    12  H    0.306153
    13  H    0.297980
    14  H    0.386449
 Sum of Mulliken charges =  -0.00000

 Dipole moment (field-independent basis, Debye):
    X=             -2.7631    Y=             -0.0236    Z=              1.5227  Tot=              3.1550
 Quadrupole moment (field-independent basis, Debye-Ang):
   XX=            -36.3757   YY=            -37.6133   ZZ=            -35.9392
   XY=              4.9973   XZ=             -0.1533   YZ=             -1.7567

 Normal termination of Gaussian 09 at Fri Aug 26 14:38:31 2022.
