 Gaussian 09, Revision E.01,
 Gaussian 09:  ES64L-G09RevE.01 30-Nov-2015

 -----
 #P G4
 -----

 --------
 Frag_724
 --------
 Symbolic Z-matrix:
 Charge =  0 Multiplicity = 1

 SCF Done:  E(RB3LYP) =  -267.931051121     A.U. after   13 cycles
 SCF Done:  E(RB3LYP) =  -267.937955244     A.U. after   12 cycles
 SCF Done:  E(RB3LYP) =  -267.939445972     A.U. after   11 cycles
 SCF Done:  E(RB3LYP) =  -267.941367802     A.U. after   13 cycles
 SCF Done:  E(RB3LYP) =  -267.941917731     A.U. after   11 cycles
 SCF Done:  E(RB3LYP) =  -267.942168423     A.U. after   10 cycles
 SCF Done:  E(RB3LYP) =  -267.942216508     A.U. after   10 cycles
 SCF Done:  E(RB3LYP) =  -267.942222439     A.U. after    9 cycles
 SCF Done:  E(RB3LYP) =  -267.942223586     A.U. after    7 cycles
 SCF Done:  E(RB3LYP) =  -267.942223864     A.U. after    7 cycles
 Optimization completed.
    -- Stationary point found.
 Normal termination of Gaussian 09 at Wed Aug 24 21:04:50 2022.

 ----------------------------------------------------------
 #P Geom=AllCheck Guess=TCheck SCRF=Check B3LYP/GTBas3 Freq
 ----------------------------------------------------------

 Structure from the checkpoint file:  "G4.Frag_724.chk"
 --------
 Frag_724
 --------
 Charge =  0 Multiplicity = 1

 SCF Done:  E(RB3LYP) =  -267.942223864     A.U. after    1 cycles

  Exact polarizability:  70.927   3.073  56.766   2.187   2.232  49.494
 Approx polarizability: 100.051   8.060  83.069   6.773   3.829  70.834

                      1                      2                      3
                      A                      A                      A
 Frequencies --    118.8022               233.8879               270.1673
 Red. masses --      2.4906                 1.0441                 1.5050
 Frc consts  --      0.0207                 0.0337                 0.0647
 IR Inten    --      0.1107                 6.5576                14.1269

                      4                      5                      6
                      A                      A                      A
 Frequencies --    282.9527               312.1958               325.7505
 Red. masses --      1.1816                 1.7529                 1.5531
 Frc consts  --      0.0557                 0.1007                 0.0971
 IR Inten    --     26.4827                 3.1506                14.9461

                      7                      8                      9
                      A                      A                      A
 Frequencies --    379.1933               422.0761               476.4989
 Red. masses --      2.3467                 2.2547                 2.6100
 Frc consts  --      0.1988                 0.2367                 0.3492
 IR Inten    --     10.8012                 3.8919                 1.4077

                     10                     11                     12
                      A                      A                      A
 Frequencies --    560.6517               709.6263               744.6683
 Red. masses --      2.6723                 1.7291                 3.3826
 Frc consts  --      0.4949                 0.5130                 1.1052
 IR Inten    --      2.7889                15.1430                 3.8136

                     13                     14                     15
                      A                      A                      A
 Frequencies --    878.3609               902.3319               934.5670
 Red. masses --      1.6751                 2.0183                 1.2982
 Frc consts  --      0.7614                 0.9682                 0.6680
 IR Inten    --    124.4667                74.2240                84.8059

                     16                     17                     18
                      A                      A                      A
 Frequencies --    961.9684               990.9545              1006.2644
 Red. masses --      1.3752                 1.4787                 1.7546
 Frc consts  --      0.7498                 0.8555                 1.0468
 IR Inten    --     21.2559                37.6752                 8.6970

                     19                     20                     21
                      A                      A                      A
 Frequencies --   1045.3467              1047.1478              1116.3088
 Red. masses --      1.1191                 1.3220                 1.6646
 Frc consts  --      0.7205                 0.8541                 1.2222
 IR Inten    --      6.5508                17.2022                16.9921

                     22                     23                     24
                      A                      A                      A
 Frequencies --   1255.3345              1289.1527              1329.2280
 Red. masses --      2.4744                 1.6813                 1.5069
 Frc consts  --      2.2974                 1.6463                 1.5687
 IR Inten    --     53.7125                10.8545                 5.5922

                     25                     26                     27
                      A                      A                      A
 Frequencies --   1355.1403              1400.2388              1440.4227
 Red. masses --      1.6242                 1.2707                 1.1970
 Frc consts  --      1.7574                 1.4679                 1.4633
 IR Inten    --      6.4229                 8.6335                10.1322

                     28                     29                     30
                      A                      A                      A
 Frequencies --   1483.3749              1494.1657              1631.9882
 Red. masses --      1.0614                 1.0592                 1.1161
 Frc consts  --      1.3760                 1.3933                 1.7514
 IR Inten    --      0.5823                 2.3373                34.6210

                     31                     32                     33
                      A                      A                      A
 Frequencies --   1644.1247              1707.8993              3025.4267
 Red. masses --      1.1020                 4.8461                 1.0366
 Frc consts  --      1.7551                 8.3286                 5.5904
 IR Inten    --     27.4162                 4.7341                19.7837

                     34                     35                     36
                      A                      A                      A
 Frequencies --   3093.1012              3116.7810              3127.0627
 Red. masses --      1.0981                 1.1029                 1.0815
 Frc consts  --      6.1896                 6.3124                 6.2306
 IR Inten    --     25.8787                21.9287                20.4769

                     37                     38                     39
                      A                      A                      A
 Frequencies --   3153.4552              3236.9953              3480.4528
 Red. masses --      1.0675                 1.1143                 1.0492
 Frc consts  --      6.2544                 6.8792                 7.4883
 IR Inten    --      9.0125                 8.2258                 0.2908

                     40                     41                     42
                      A                      A                      A
 Frequencies --   3490.9282              3564.2058              3577.3276
 Red. masses --      1.0486                 1.0919                 1.0927
 Frc consts  --      7.5291                 8.1729                 8.2389
 IR Inten    --      0.3045                 0.3745                 0.7234

 - Thermochemistry -
 -------------------
 Temperature   298.150 Kelvin.  Pressure   1.00000 Atm.
 Atom     1 has atomic number  6 and mass  12.00000

 Molecular mass:    86.08440 amu.
 Principal axes and moments of inertia in atomic units:
                           1         2         3
     Eigenvalues --   383.12095 653.49694 671.64363
           X            0.99945   0.02452  -0.02250
           Y           -0.02095   0.98888   0.14721
           Z            0.02586  -0.14665   0.98885
 This molecule is an asymmetric top.
 Rotational symmetry number  1.
 Rotational temperatures (Kelvin)      0.22607     0.13254     0.12896
 Rotational constants (GHZ):           4.71063     2.76167     2.68705
 Zero-point vibrational energy     374530.0 (Joules/Mol)
                                   89.51482 (Kcal/Mol)
 Warning -- explicit consideration of  10 degrees of freedom as
           vibrations may cause significant error
 Vibrational temperatures:    170.93   336.51   388.71   407.11   449.18
          (Kelvin)            468.68   545.57   607.27   685.57   806.65
                             1020.99  1071.41  1263.76  1298.25  1344.63
                             1384.06  1425.76  1447.79  1504.02  1506.61
                             1606.12  1806.14  1854.80  1912.46  1949.74
                             2014.63  2072.44  2134.24  2149.77  2348.06
                             2365.53  2457.28  4352.91  4450.28  4484.35
                             4499.14  4537.11  4657.31  5007.59  5022.66
                             5128.09  5146.97

 Zero-point correction=                           0.142651 (Hartree/Particle)
 Thermal correction to Energy=                    0.150072
 Thermal correction to Enthalpy=                  0.151016
 Thermal correction to Gibbs Free Energy=         0.112325
 Sum of electronic and zero-point Energies=           -267.799573
 Sum of electronic and thermal Energies=              -267.792152
 Sum of electronic and thermal Enthalpies=            -267.791207
 Sum of electronic and thermal Free Energies=         -267.829899

                     E (Thermal)             CV                S
                      KCal/Mol        Cal/Mol-Kelvin    Cal/Mol-Kelvin
 Total                   94.172             27.954             81.433
 Electronic               0.000              0.000              0.000
 Translational            0.889              2.981             39.271
 Rotational               0.889              2.981             26.622
 Vibrational             92.394             21.992             15.539
 Vibration     1          0.609              1.934              3.120
 Vibration     2          0.654              1.789              1.849
 Vibration     3          0.674              1.728              1.595
 Vibration     4          0.682              1.705              1.516
 Vibration     5          0.701              1.650              1.351
 Vibration     6          0.710              1.624              1.281
 Vibration     7          0.749              1.515              1.042
 Vibration     8          0.784              1.422              0.885
 Vibration     9          0.833              1.302              0.720
 Vibration    10          0.916              1.116              0.523

 Normal termination of Gaussian 09 at Wed Aug 24 21:07:58 2022.

 -----------------------------------------------------------------
 #P Geom=AllCheck Guess=TCheck SCRF=Check CCSD(T,E4T,FrzG4)/GTBas1
 -----------------------------------------------------------------

 Structure from the checkpoint file:  "G4.Frag_724.chk"
 --------
 Frag_724
 --------
 Charge =  0 Multiplicity = 1

 SCF Done:  E(RHF) =  -266.152468927     A.U. after   12 cycles
 E2 =    -0.8481074218D+00 EUMP2 =    -0.26700057634879D+03
 CCSD(T)
 CCSD(T)= -0.26708934212D+03
 =-267.0873897\MP4SDQ=-267.0595909\CCSD=-267.0609937\CCSD(T)=-267.08934
 Normal termination of Gaussian 09 at Wed Aug 24 21:15:10 2022.

 ---------------------------------------------------------
 #P Geom=AllCheck Guess=TCheck SCRF=Check MP4=FrzG4/GTBas2
 ---------------------------------------------------------

 Structure from the checkpoint file:  "G4.Frag_724.chk"
 --------
 Frag_724
 --------
 Charge =  0 Multiplicity = 1

 SCF Done:  E(RHF) =  -266.163397599     A.U. after   12 cycles
 E2 =    -0.8608984791D+00 EUMP2 =    -0.26702429607759D+03
 Normal termination of Gaussian 09 at Wed Aug 24 21:24:40 2022.

 ---------------------------------------------------------
 #P Geom=AllCheck Guess=TCheck SCRF=Check MP4=FrzG4/GTBas3
 ---------------------------------------------------------

 Structure from the checkpoint file:  "G4.Frag_724.chk"
 --------
 Frag_724
 --------
 Charge =  0 Multiplicity = 1

 SCF Done:  E(RHF) =  -266.191991985     A.U. after   11 cycles
 E2 =    -0.1042361638D+01 EUMP2 =    -0.26723435362314D+03
 Normal termination of Gaussian 09 at Thu Aug 25 00:59:13 2022.

 -----------------------------------------------------------
 #P Geom=AllCheck Guess=TCheck SCRF=Check MP2=Full/GTLargeXP
 -----------------------------------------------------------

 Structure from the checkpoint file:  "G4.Frag_724.chk"
 --------
 Frag_724
 --------
 Charge =  0 Multiplicity = 1

 SCF Done:  E(RHF) =  -266.257915454     A.U. after   12 cycles
 E2 =    -0.1368720320D+01 EUMP2 =    -0.26762663577374D+03
 Normal termination of Gaussian 09 at Thu Aug 25 01:06:22 2022.
 SCF Done:  E(RHF) =  -266.278625559     A.U. after    8 cycles
 Normal termination of Gaussian 09 at Thu Aug 25 01:12:59 2022.

                         Standard orientation:
 ---------------------------------------------------------------------
 Center     Atomic      Atomic             Coordinates (Angstroms)
 Number     Number       Type             X           Y           Z
 ---------------------------------------------------------------------
      1          6           0       -2.181084    0.086100   -0.056209
      2          6           0       -0.994580    0.670993    0.070864
      3          6           0        0.359463   -0.016684    0.012999
      4          6           0        1.317048    0.806093   -0.869959
      5          7           0        0.974569   -0.123933    1.350051
      6          7           0        0.196441   -1.399436   -0.440435
      7          1           0       -3.103552    0.650731    0.032141
      8          1           0       -2.265791   -0.979656   -0.237634
      9          1           0       -0.939505    1.742040    0.265601
     10          1           0        0.943222    0.856420   -1.897261
     11          1           0        1.422351    1.834563   -0.504082
     12          1           0        2.307812    0.342342   -0.871088
     13          1           0        0.313917   -0.598928    1.960616
     14          1           0        1.112226    0.804996    1.739032
     15          1           0        1.102723   -1.855644   -0.387644
     16          1           0       -0.095545   -1.412297   -1.413154
 ---------------------------------------------------------------------

 SCF Done:  E(RHF) =  -266.283042785     A.U. after    8 cycles

 The electronic state is 1-A.
 Alpha  occ. eigenvalues --  -15.54010 -15.53696 -11.29468 -11.22834 -11.21920
 Alpha  occ. eigenvalues --  -11.21677  -1.23285  -1.12262  -1.03850  -0.97500
 Alpha  occ. eigenvalues --   -0.83584  -0.74723  -0.68430  -0.66726  -0.60951
 Alpha  occ. eigenvalues --   -0.60327  -0.57458  -0.54726  -0.53257  -0.51766
 Alpha  occ. eigenvalues --   -0.50066  -0.41688  -0.39447  -0.35968
 Alpha virt. eigenvalues --    0.03349   0.04348   0.04861   0.05465   0.06388
 Alpha virt. eigenvalues --    0.07016   0.07238   0.07426   0.07769   0.09691
 Alpha virt. eigenvalues --    0.09903   0.10205   0.11823   0.12313   0.12797

 Mulliken charges:
               1
     1  C   -0.482411
     2  C   -0.228467
     3  C    0.465236
     4  C   -0.557300
     5  N   -0.723335
     6  N   -0.784648
     7  H    0.191400
     8  H    0.211127
     9  H    0.192744
    10  H    0.174165
    11  H    0.159539
    12  H    0.180680
    13  H    0.305408
    14  H    0.285276
    15  H    0.310345
    16  H    0.300241
 Sum of Mulliken charges =  -0.00000

 Dipole moment (field-independent basis, Debye):
    X=             -0.0366    Y=              1.1444    Z=             -0.6276  Tot=              1.3057
 Quadrupole moment (field-independent basis, Debye-Ang):
   XX=            -40.1003   YY=            -38.4008   ZZ=            -37.5022
   XY=              0.1376   XZ=             -1.6057   YZ=              3.2158

 Normal termination of Gaussian 09 at Thu Aug 25 04:30:22 2022.
