 Gaussian 09, Revision E.01,
 Gaussian 09:  ES64L-G09RevE.01 30-Nov-2015

 -----
 #P G4
 -----

 --------
 Frag_993
 --------
 Symbolic Z-matrix:
 Charge =  0 Multiplicity = 1

 SCF Done:  E(RB3LYP) =  -359.218623623     A.U. after   13 cycles
 SCF Done:  E(RB3LYP) =  -359.219181693     A.U. after   10 cycles
 SCF Done:  E(RB3LYP) =  -359.219043954     A.U. after   11 cycles
 SCF Done:  E(RB3LYP) =  -359.219294551     A.U. after   11 cycles
 SCF Done:  E(RB3LYP) =  -359.219327074     A.U. after    8 cycles
 SCF Done:  E(RB3LYP) =  -359.219329306     A.U. after    8 cycles
 Optimization completed.
    -- Stationary point found.
 Normal termination of Gaussian 09 at Thu Sep  1 17:23:41 2022.

 ----------------------------------------------------------
 #P Geom=AllCheck Guess=TCheck SCRF=Check B3LYP/GTBas3 Freq
 ----------------------------------------------------------

 Structure from the checkpoint file:  "G4.Frag_993.chk"
 --------
 Frag_993
 --------
 Charge =  0 Multiplicity = 1

 SCF Done:  E(RB3LYP) =  -359.219329306     A.U. after    1 cycles

  Exact polarizability:  62.990   6.148  66.892  -0.387   0.856  46.944
 Approx polarizability:  85.868  11.347 105.966  -0.582   0.337  68.353

                      1                      2                      3
                      A                      A                      A
 Frequencies --     91.9573               167.3925               260.2559
 Red. masses --      3.8628                 1.1123                 2.4341
 Frc consts  --      0.0192                 0.0184                 0.0971
 IR Inten    --      2.7096                21.4731                 3.1932

                      4                      5                      6
                      A                      A                      A
 Frequencies --    289.4586               316.0590               359.8095
 Red. masses --      2.4186                 1.4575                 1.1764
 Frc consts  --      0.1194                 0.0858                 0.0897
 IR Inten    --      7.3312                21.8145                77.5593

                      7                      8                      9
                      A                      A                      A
 Frequencies --    388.4863               427.3726               438.2508
 Red. masses --      2.5780                 1.8733                 1.4320
 Frc consts  --      0.2292                 0.2016                 0.1620
 IR Inten    --     11.4581                30.6892                32.8461

                     10                     11                     12
                      A                      A                      A
 Frequencies --    469.4367               545.6839               547.8300
 Red. masses --      3.0397                 3.7729                 2.3281
 Frc consts  --      0.3947                 0.6619                 0.4117
 IR Inten    --     31.1941                11.6828                17.9283

                     13                     14                     15
                      A                      A                      A
 Frequencies --    664.8189               713.1205               736.4593
 Red. masses --      2.2177                 1.2135                 3.0944
 Frc consts  --      0.5775                 0.3636                 0.9888
 IR Inten    --     90.6293                11.6094                21.7350

                     16                     17                     18
                      A                      A                      A
 Frequencies --    782.4984               833.0353               888.5870
 Red. masses --      1.4912                 1.5982                 1.9082
 Frc consts  --      0.5380                 0.6534                 0.8877
 IR Inten    --     96.2231                83.9886               121.6794

                     19                     20                     21
                      A                      A                      A
 Frequencies --    953.3279               973.1023               985.6817
 Red. masses --      1.4837                 1.9489                 1.6083
 Frc consts  --      0.7945                 1.0873                 0.9207
 IR Inten    --    243.0322                20.5101                 6.9675

                     22                     23                     24
                      A                      A                      A
 Frequencies --   1040.3414              1113.9705              1150.0126
 Red. masses --      2.6496                 1.6582                 1.4563
 Frc consts  --      1.6896                 1.2124                 1.1347
 IR Inten    --     97.9705                 3.5858                10.6716

                     25                     26                     27
                      A                      A                      A
 Frequencies --   1267.6107              1304.9633              1362.1201
 Red. masses --      1.7199                 1.7878                 2.5661
 Frc consts  --      1.6283                 1.7937                 2.8052
 IR Inten    --    162.4367                26.6266                26.0638

                     28                     29                     30
                      A                      A                      A
 Frequencies --   1397.7056              1449.6378              1627.4153
 Red. masses --      1.9732                 1.1735                 1.1301
 Frc consts  --      2.2712                 1.4530                 1.7635
 IR Inten    --     62.3912                 4.5707                53.5711

                     31                     32                     33
                      A                      A                      A
 Frequencies --   1639.0928              1658.6952              1716.8046
 Red. masses --      1.1215                 1.1021                 5.4080
 Frc consts  --      1.7752                 1.7865                 9.3914
 IR Inten    --     37.7605                29.2740                82.7439

                     34                     35                     36
                      A                      A                      A
 Frequencies --   3160.5635              3254.6893              3487.3013
 Red. masses --      1.0641                 1.1101                 1.0497
 Frc consts  --      6.2627                 6.9282                 7.5212
 IR Inten    --      6.5303                 7.9682                 1.4026

                     37                     38                     39
                      A                      A                      A
 Frequencies --   3494.9772              3519.7534              3563.3576
 Red. masses --      1.0482                 1.0485                 1.0908
 Frc consts  --      7.5437                 7.6533                 8.1602
 IR Inten    --      2.8979                21.2464                 1.8041

                     40                     41                     42
                      A                      A                      A
 Frequencies --   3582.7526              3628.1627              3797.5027
 Red. masses --      1.0929                 1.0950                 1.0652
 Frc consts  --      8.2657                 8.4923                 9.0504
 IR Inten    --      5.0250                16.4780                 6.5717

 - Thermochemistry -
 -------------------
 Temperature   298.150 Kelvin.  Pressure   1.00000 Atm.
 Atom     1 has atomic number  6 and mass  12.00000

 Molecular mass:   103.07456 amu.
 Principal axes and moments of inertia in atomic units:
                           1         2         3
     Eigenvalues --   526.20680 734.59073 906.45431
           X            0.99920   0.03998  -0.00192
           Y           -0.03991   0.99878   0.02913
           Z            0.00308  -0.02903   0.99957
 This molecule is an asymmetric top.
 Rotational symmetry number  1.
 Warning -- assumption of classical behavior for rotation
           may cause significant error
 Rotational temperatures (Kelvin)      0.16460     0.11791     0.09555
 Rotational constants (GHZ):           3.42972     2.45680     1.99099
 Zero-point vibrational energy     359179.1 (Joules/Mol)
                                   85.84586 (Kcal/Mol)
 Warning -- explicit consideration of  12 degrees of freedom as
           vibrations may cause significant error
 Vibrational temperatures:    132.31   240.84   374.45   416.47   454.74
          (Kelvin)            517.68   558.94   614.89   630.54   675.41
                              785.12   788.20   956.52  1026.02  1059.60
                             1125.84  1198.55  1278.48  1371.62  1400.08
                             1418.17  1496.82  1602.75  1654.61  1823.81
                             1877.55  1959.78  2010.98  2085.70  2341.48
                             2358.29  2386.49  2470.10  4547.34  4682.77
                             5017.44  5028.49  5064.13  5126.87  5154.78
                             5220.11  5463.75

 Zero-point correction=                           0.136804 (Hartree/Particle)
 Thermal correction to Energy=                    0.144966
 Thermal correction to Enthalpy=                  0.145910
 Thermal correction to Gibbs Free Energy=         0.105297
 Sum of electronic and zero-point Energies=           -359.082525
 Sum of electronic and thermal Energies=              -359.074364
 Sum of electronic and thermal Enthalpies=            -359.073419
 Sum of electronic and thermal Free Energies=         -359.114033

                     E (Thermal)             CV                S
                      KCal/Mol        Cal/Mol-Kelvin    Cal/Mol-Kelvin
 Total                   90.967             31.469             85.478
 Electronic               0.000              0.000              0.000
 Translational            0.889              2.981             39.808
 Rotational               0.889              2.981             27.352
 Vibrational             89.190             25.507             18.318
 Vibration     1          0.602              1.955              3.618
 Vibration     2          0.624              1.883              2.465
 Vibration     3          0.668              1.745              1.660
 Vibration     4          0.686              1.693              1.477
 Vibration     5          0.703              1.643              1.330
 Vibration     6          0.734              1.555              1.123
 Vibration     7          0.757              1.495              1.006
 Vibration     8          0.789              1.411              0.867
 Vibration     9          0.798              1.387              0.832
 Vibration    10          0.827              1.318              0.739
 Vibration    11          0.901              1.149              0.553
 Vibration    12          0.903              1.144              0.549

 Normal termination of Gaussian 09 at Thu Sep  1 17:24:29 2022.

 -----------------------------------------------------------------
 #P Geom=AllCheck Guess=TCheck SCRF=Check CCSD(T,E4T,FrzG4)/GTBas1
 -----------------------------------------------------------------

 Structure from the checkpoint file:  "G4.Frag_993.chk"
 --------
 Frag_993
 --------
 Charge =  0 Multiplicity = 1

 SCF Done:  E(RHF) =  -357.011627370     A.U. after   12 cycles
 E2 =    -0.1058269098D+01 EUMP2 =    -0.35806989646731D+03
 CCSD(T)
 CCSD(T)= -0.35815634365D+03
 =-358.1563915\MP4SDQ=-358.1229075\CCSD=-358.1233353\CCSD(T)=-358.15634
 Normal termination of Gaussian 09 at Thu Sep  1 17:28:37 2022.

 ---------------------------------------------------------
 #P Geom=AllCheck Guess=TCheck SCRF=Check MP4=FrzG4/GTBas2
 ---------------------------------------------------------

 Structure from the checkpoint file:  "G4.Frag_993.chk"
 --------
 Frag_993
 --------
 Charge =  0 Multiplicity = 1

 SCF Done:  E(RHF) =  -357.026756139     A.U. after   12 cycles
 E2 =    -0.1077325457D+01 EUMP2 =    -0.35810408159599D+03
 Normal termination of Gaussian 09 at Thu Sep  1 17:29:56 2022.

 ---------------------------------------------------------
 #P Geom=AllCheck Guess=TCheck SCRF=Check MP4=FrzG4/GTBas3
 ---------------------------------------------------------

 Structure from the checkpoint file:  "G4.Frag_993.chk"
 --------
 Frag_993
 --------
 Charge =  0 Multiplicity = 1

 SCF Done:  E(RHF) =  -357.066665576     A.U. after   11 cycles
 E2 =    -0.1294978244D+01 EUMP2 =    -0.35836164381942D+03
 Normal termination of Gaussian 09 at Thu Sep  1 17:39:47 2022.

 -----------------------------------------------------------
 #P Geom=AllCheck Guess=TCheck SCRF=Check MP2=Full/GTLargeXP
 -----------------------------------------------------------

 Structure from the checkpoint file:  "G4.Frag_993.chk"
 --------
 Frag_993
 --------
 Charge =  0 Multiplicity = 1

 SCF Done:  E(RHF) =  -357.163968021     A.U. after   12 cycles
 E2 =    -0.1691752735D+01 EUMP2 =    -0.35885572075633D+03
 Normal termination of Gaussian 09 at Thu Sep  1 17:43:15 2022.
 SCF Done:  E(RHF) =  -357.191799378     A.U. after    9 cycles
 Normal termination of Gaussian 09 at Thu Sep  1 17:46:31 2022.

                         Standard orientation:
 ---------------------------------------------------------------------
 Center     Atomic      Atomic             Coordinates (Angstroms)
 Number     Number       Type             X           Y           Z
 ---------------------------------------------------------------------
      1          6           0        1.657387    1.200037   -0.040332
      2          6           0        0.940053    0.072312   -0.015751
      3          7           0        1.480272   -1.213433    0.097939
      4          6           0       -0.599900    0.041166   -0.009645
      5          7           0       -1.146722   -0.572421    1.206030
      6          7           0       -1.031291   -0.793066   -1.109074
      7          8           0       -1.152309    1.334199   -0.151285
      8          1           0        2.741939    1.182820   -0.012053
      9          1           0        1.186090    2.169706   -0.108588
     10          1           0        2.473104   -1.261194   -0.085892
     11          1           0        0.962790   -1.879827   -0.464862
     12          1           0       -0.629362   -1.428027    1.393225
     13          1           0       -0.956387    0.041265    1.993954
     14          1           0       -2.037798   -0.908997   -1.033278
     15          1           0       -0.831266   -0.316859   -1.983941
     16          1           0       -0.791682    1.898870    0.541827
 ---------------------------------------------------------------------

 SCF Done:  E(RHF) =  -357.197872844     A.U. after    8 cycles

 The electronic state is 1-A.
 Alpha  occ. eigenvalues --  -20.56289 -15.56073 -15.54793 -15.54678 -11.35377
 Alpha  occ. eigenvalues --  -11.27681 -11.20917  -1.39138  -1.23643  -1.19113
 Alpha  occ. eigenvalues --   -1.13863  -1.00797  -0.87387  -0.77368  -0.71747
 Alpha  occ. eigenvalues --   -0.70491  -0.67798  -0.65210  -0.63143  -0.59548
 Alpha  occ. eigenvalues --   -0.58038  -0.55152  -0.52615  -0.49511  -0.47987
 Alpha  occ. eigenvalues --   -0.43276  -0.41205  -0.33026
 Alpha virt. eigenvalues --    0.03304   0.04631   0.04854   0.05400   0.06663
 Alpha virt. eigenvalues --    0.06975   0.07512   0.07737   0.08094   0.09775
 Alpha virt. eigenvalues --    0.11322   0.11582   0.12402   0.12600   0.12932

 Mulliken charges:
               1
     1  C   -0.541678
     2  C    0.249412
     3  N   -0.762107
     4  C    0.530340
     5  N   -0.694065
     6  N   -0.764389
     7  O   -0.600753
     8  H    0.165188
     9  H    0.188194
    10  H    0.306860
    11  H    0.345224
    12  H    0.314223
    13  H    0.274500
    14  H    0.322845
    15  H    0.307434
    16  H    0.358773
 Sum of Mulliken charges =  -0.00000

 Dipole moment (field-independent basis, Debye):
    X=              1.6951    Y=             -0.0844    Z=              0.0574  Tot=              1.6981
 Quadrupole moment (field-independent basis, Debye-Ang):
   XX=            -44.0648   YY=            -42.0759   ZZ=            -41.4768
   XY=             -0.8957   XZ=              0.0085   YZ=              3.4385

 Normal termination of Gaussian 09 at Thu Sep  1 17:58:26 2022.
