 Gaussian 09, Revision E.01,
 Gaussian 09:  ES64L-G09RevE.01 30-Nov-2015

 -----
 #P G4
 -----

 ---------
 Frag_1043
 ---------
 Symbolic Z-matrix:
 Charge =  0 Multiplicity = 1

 SCF Done:  E(RB3LYP) =  -411.950414597     A.U. after   12 cycles
 SCF Done:  E(RB3LYP) =  -411.964652761     A.U. after   11 cycles
 SCF Done:  E(RB3LYP) =  -411.965639471     A.U. after   11 cycles
 SCF Done:  E(RB3LYP) =  -411.966253578     A.U. after   11 cycles
 SCF Done:  E(RB3LYP) =  -411.966937014     A.U. after   10 cycles
 SCF Done:  E(RB3LYP) =  -411.967192041     A.U. after   10 cycles
 SCF Done:  E(RB3LYP) =  -411.967382719     A.U. after   10 cycles
 SCF Done:  E(RB3LYP) =  -411.967447360     A.U. after    9 cycles
 SCF Done:  E(RB3LYP) =  -411.967472112     A.U. after    9 cycles
 SCF Done:  E(RB3LYP) =  -411.967479532     A.U. after    8 cycles
 SCF Done:  E(RB3LYP) =  -411.977274732     A.U. after    9 cycles
 SCF Done:  E(RB3LYP) =  -411.977261330     A.U. after    9 cycles
 SCF Done:  E(RB3LYP) =  -411.977293384     A.U. after    9 cycles
 Optimization completed.
    -- Stationary point found.
 Normal termination of Gaussian 09 at Fri Aug 26 10:39:56 2022.

 ----------------------------------------------------------
 #P Geom=AllCheck Guess=TCheck SCRF=Check B3LYP/GTBas3 Freq
 ----------------------------------------------------------

 Structure from the checkpoint file:  "G4.Frag_1043.chk"
 ---------
 Frag_1043
 ---------
 Charge =  0 Multiplicity = 1

 SCF Done:  E(RB3LYP) =  -411.977293384     A.U. after    1 cycles

  Exact polarizability:  68.835   0.666  66.370   0.730   0.607  64.778
 Approx polarizability:  94.075   1.767  97.318  -0.307   0.102  94.926

                      1                      2                      3
                      A                      A                      A
 Frequencies --    127.2965               211.9725               270.9603
 Red. masses --      4.3574                 1.3463                 1.1627
 Frc consts  --      0.0416                 0.0356                 0.0503
 IR Inten    --      2.9430                28.2634                 0.0817

                      4                      5                      6
                      A                      A                      A
 Frequencies --    272.7066               291.5279               307.5952
 Red. masses --      3.3186                 1.9695                 1.3702
 Frc consts  --      0.1454                 0.0986                 0.0764
 IR Inten    --     15.3406                23.2915                 0.0004

                      7                      8                      9
                      A                      A                      A
 Frequencies --    349.0174               354.0642               376.3929
 Red. masses --      1.1575                 1.6088                 2.6336
 Frc consts  --      0.0831                 0.1188                 0.2198
 IR Inten    --     63.8258                 0.0132                 0.0004

                     10                     11                     12
                      A                      A                      A
 Frequencies --    388.1282               389.8426               434.6054
 Red. masses --      1.2648                 1.9743                 1.8622
 Frc consts  --      0.1123                 0.1768                 0.2072
 IR Inten    --     62.5403                 0.0024                 0.0001

                     13                     14                     15
                      A                      A                      A
 Frequencies --    458.2954               489.1926               552.2199
 Red. masses --      2.8101                 1.9431                 3.6596
 Frc consts  --      0.3477                 0.2740                 0.6575
 IR Inten    --      6.0573                81.3484                 0.0001

                     16                     17                     18
                      A                      A                      A
 Frequencies --    579.7359               584.1973               714.5677
 Red. masses --      3.2823                 2.3603                 3.2986
 Frc consts  --      0.6500                 0.4746                 0.9923
 IR Inten    --      0.0006                56.4717                 0.0000

                     19                     20                     21
                      A                      A                      A
 Frequencies --    868.4629               879.4797               900.2428
 Red. masses --      2.9742                 1.8479                 1.6821
 Frc consts  --      1.3216                 0.8421                 0.8032
 IR Inten    --     93.5369                 0.0113               288.2692

                     22                     23                     24
                      A                      A                      A
 Frequencies --    921.0902               963.4147               968.0120
 Red. masses --      1.5702                 1.2237                 1.3905
 Frc consts  --      0.7849                 0.6692                 0.7677
 IR Inten    --      0.0092               186.7179                 0.3576

                     25                     26                     27
                      A                      A                      A
 Frequencies --    973.7797               991.9490              1042.3987
 Red. masses --      1.8387                 1.5250                 1.7600
 Frc consts  --      1.0273                 0.8841                 1.1267
 IR Inten    --    409.0052                 0.0236                23.5943

                     28                     29                     30
                      A                      A                      A
 Frequencies --   1062.9486              1073.3457              1127.2340
 Red. masses --      1.6638                 1.6574                 1.5809
 Frc consts  --      1.1076                 1.1250                 1.1836
 IR Inten    --      0.0022                37.1655                 0.0002

                     31                     32                     33
                      A                      A                      A
 Frequencies --   1271.4694              1303.6890              1311.0421
 Red. masses --      1.8001                 1.6385                 2.1629
 Frc consts  --      1.7146                 1.6407                 2.1904
 IR Inten    --     66.2549                92.7557                 0.0021

                     34                     35                     36
                      A                      A                      A
 Frequencies --   1338.2135              1360.7289              1395.0224
 Red. masses --      2.1569                 1.7883                 2.0771
 Frc consts  --      2.2758                 1.9509                 2.3817
 IR Inten    --      0.0008                37.1068                 0.0001

                     37                     38                     39
                      A                      A                      A
 Frequencies --   1625.4268              1630.0179              1630.7855
 Red. masses --      1.1006                 1.1046                 1.0979
 Frc consts  --      1.7133                 1.7293                 1.7204
 IR Inten    --     92.1738                 0.6874               103.9157

                     40                     41                     42
                      A                      A                      A
 Frequencies --   1642.7651              1658.9761              1661.1896
 Red. masses --      1.1044                 1.1130                 1.0987
 Frc consts  --      1.7561                 1.8047                 1.7864
 IR Inten    --      0.0035                 0.0043                29.7970

                     43                     44                     45
                      A                      A                      A
 Frequencies --   3471.4680              3472.9120              3476.4939
 Red. masses --      1.0489                 1.0487                 1.0503
 Frc consts  --      7.4476                 7.4524                 7.4789
 IR Inten    --     11.8678                 0.0009                 2.8725

                     46                     47                     48
                      A                      A                      A
 Frequencies --   3477.5574              3497.6985              3498.8894
 Red. masses --      1.0500                 1.0490                 1.0491
 Frc consts  --      7.4818                 7.5615                 7.5668
 IR Inten    --      0.0001                 0.6100                 2.6644

                     49                     50                     51
                      A                      A                      A
 Frequencies --   3559.4744              3560.0507              3562.6282
 Red. masses --      1.0917                 1.0918                 1.0899
 Frc consts  --      8.1491                 8.1524                 8.1503
 IR Inten    --      0.0039                12.4063                 4.6861

                     52                     53                     54
                      A                      A                      A
 Frequencies --   3563.3546              3581.4855              3582.5028
 Red. masses --      1.0900                 1.0920                 1.0920
 Frc consts  --      8.1546                 8.2529                 8.2576
 IR Inten    --      0.0139                 4.6618                 3.9242

 - Thermochemistry -
 -------------------
 Temperature   298.150 Kelvin.  Pressure   1.00000 Atm.
 Atom     1 has atomic number  7 and mass  14.00307

 Molecular mass:   120.11234 amu.
 Principal axes and moments of inertia in atomic units:
                           1         2         3
     Eigenvalues --   716.51630 993.970381007.81532
           X            0.99979  -0.01287   0.01574
           Y            0.00435   0.89158   0.45284
           Z           -0.01986  -0.45268   0.89145
 This molecule is an asymmetric top.
 Rotational symmetry number  1.
 Warning -- assumption of classical behavior for rotation
           may cause significant error
 Rotational temperatures (Kelvin)      0.12088     0.08714     0.08594
 Rotational constants (GHZ):           2.51877     1.81569     1.79075
 Zero-point vibrational energy     472874.9 (Joules/Mol)
                                  113.01982 (Kcal/Mol)
 Warning -- explicit consideration of  17 degrees of freedom as
           vibrations may cause significant error
 Vibrational temperatures:    183.15   304.98   389.85   392.36   419.44
          (Kelvin)            442.56   502.16   509.42   541.54   558.43
                              560.90   625.30   659.38   703.84   794.52
                              834.11   840.53  1028.10  1249.52  1265.37
                             1295.25  1325.24  1386.14  1392.75  1401.05
                             1427.19  1499.78  1529.34  1544.30  1621.84
                             1829.36  1875.72  1886.29  1925.39  1957.78
                             2007.12  2338.62  2345.23  2346.33  2363.57
                             2386.89  2390.08  4994.66  4996.74  5001.89
                             5003.42  5032.40  5034.12  5121.28  5122.11
                             5125.82  5126.87  5152.95  5154.42

 Zero-point correction=                           0.180109 (Hartree/Particle)
 Thermal correction to Energy=                    0.189589
 Thermal correction to Enthalpy=                  0.190533
 Thermal correction to Gibbs Free Energy=         0.147638
 Sum of electronic and zero-point Energies=           -411.797185
 Sum of electronic and thermal Energies=              -411.787705
 Sum of electronic and thermal Enthalpies=            -411.786761
 Sum of electronic and thermal Free Energies=         -411.829655

                     E (Thermal)             CV                S
                      KCal/Mol        Cal/Mol-Kelvin    Cal/Mol-Kelvin
 Total                  118.969             38.210             90.279
 Electronic               0.000              0.000              0.000
 Translational            0.889              2.981             40.264
 Rotational               0.889              2.981             28.064
 Vibrational            117.191             32.249             21.951
 Vibration     1          0.611              1.926              2.986
 Vibration     2          0.643              1.823              2.027
 Vibration     3          0.675              1.727              1.590
 Vibration     4          0.676              1.724              1.579
 Vibration     5          0.687              1.690              1.465
 Vibration     6          0.697              1.659              1.375
 Vibration     7          0.726              1.577              1.171
 Vibration     8          0.730              1.567              1.148
 Vibration     9          0.747              1.520              1.054
 Vibration    10          0.756              1.496              1.007
 Vibration    11          0.758              1.492              1.001
 Vibration    12          0.795              1.395              0.844
 Vibration    13          0.816              1.343              0.771
 Vibration    14          0.845              1.274              0.686
 Vibration    15          0.908              1.135              0.540
 Vibration    16          0.936              1.075              0.486
 Vibration    17          0.941              1.066              0.478

 Normal termination of Gaussian 09 at Fri Aug 26 10:41:16 2022.

 -----------------------------------------------------------------
 #P Geom=AllCheck Guess=TCheck SCRF=Check CCSD(T,E4T,FrzG4)/GTBas1
 -----------------------------------------------------------------

 Structure from the checkpoint file:  "G4.Frag_1043.chk"
 ---------
 Frag_1043
 ---------
 Charge =  0 Multiplicity = 1

 SCF Done:  E(RHF) =  -409.391095914     A.U. after   12 cycles
 E2 =    -0.1258923616D+01 EUMP2 =    -0.41065001952991D+03
 CCSD(T)
 CCSD(T)= -0.41075231776D+03
 \CCSD=-410.7156272\CCSD(T)=-410.7523178\RMSD=1.467e-09\PG=C01 [X(C2H12
 Normal termination of Gaussian 09 at Fri Aug 26 10:50:21 2022.

 ---------------------------------------------------------
 #P Geom=AllCheck Guess=TCheck SCRF=Check MP4=FrzG4/GTBas2
 ---------------------------------------------------------

 Structure from the checkpoint file:  "G4.Frag_1043.chk"
 ---------
 Frag_1043
 ---------
 Charge =  0 Multiplicity = 1

 SCF Done:  E(RHF) =  -409.409705451     A.U. after   12 cycles
 E2 =    -0.1284440634D+01 EUMP2 =    -0.41069414608535D+03
 Normal termination of Gaussian 09 at Fri Aug 26 10:53:34 2022.

 ---------------------------------------------------------
 #P Geom=AllCheck Guess=TCheck SCRF=Check MP4=FrzG4/GTBas3
 ---------------------------------------------------------

 Structure from the checkpoint file:  "G4.Frag_1043.chk"
 ---------
 Frag_1043
 ---------
 Charge =  0 Multiplicity = 1

 SCF Done:  E(RHF) =  -409.457473227     A.U. after   10 cycles
 E2 =    -0.1539889811D+01 EUMP2 =    -0.41099736303813D+03
 Normal termination of Gaussian 09 at Fri Aug 26 11:20:41 2022.

 -----------------------------------------------------------
 #P Geom=AllCheck Guess=TCheck SCRF=Check MP2=Full/GTLargeXP
 -----------------------------------------------------------

 Structure from the checkpoint file:  "G4.Frag_1043.chk"
 ---------
 Frag_1043
 ---------
 Charge =  0 Multiplicity = 1

 SCF Done:  E(RHF) =  -409.567793206     A.U. after   12 cycles
 E2 =    -0.1999213433D+01 EUMP2 =    -0.41156700663953D+03
 Normal termination of Gaussian 09 at Fri Aug 26 11:27:27 2022.
 SCF Done:  E(RHF) =  -409.598341463     A.U. after    9 cycles
 Normal termination of Gaussian 09 at Fri Aug 26 11:35:28 2022.

                         Standard orientation:
 ---------------------------------------------------------------------
 Center     Atomic      Atomic             Coordinates (Angstroms)
 Number     Number       Type             X           Y           Z
 ---------------------------------------------------------------------
      1          7           0       -1.169613    1.000951   -1.024409
      2          6           0       -0.787156    0.020899   -0.015976
      3          7           0       -1.381351    0.339819    1.289081
      4          7           0       -1.269929   -1.320474   -0.359363
      5          6           0        0.787258   -0.021103    0.016261
      6          7           0        1.269593    1.320452    0.359966
      7          7           0        1.381086   -0.339128   -1.289430
      8          7           0        1.170217   -1.001399    1.024001
      9          1           0       -0.667967    1.865607   -0.831586
     10          1           0       -2.164523    1.188904   -0.937571
     11          1           0       -0.933994   -0.238161    1.998364
     12          1           0       -1.149510    1.301859    1.518536
     13          1           0       -1.296647   -1.403679   -1.370545
     14          1           0       -2.225404   -1.401026   -0.024512
     15          1           0        1.297367    1.402870    1.371269
     16          1           0        2.224827    1.401758    0.024355
     17          1           0        0.933011    0.238756   -1.998330
     18          1           0        1.149670   -1.301268   -1.518954
     19          1           0        2.164878   -1.190179    0.936158
     20          1           0        0.667660   -1.865761    0.832180
 ---------------------------------------------------------------------

 SCF Done:  E(RHF) =  -409.605239450     A.U. after    8 cycles

 The electronic state is 1-A.
 Alpha  occ. eigenvalues --  -15.54024 -15.54023 -15.53919 -15.53916 -15.53655
 Alpha  occ. eigenvalues --  -15.53653 -11.31394 -11.31341  -1.28869  -1.22707
 Alpha  occ. eigenvalues --   -1.14148  -1.13690  -1.11837  -1.11452  -0.88302
 Alpha  occ. eigenvalues --   -0.76590  -0.70885  -0.69354  -0.67873  -0.67111
 Alpha  occ. eigenvalues --   -0.64032  -0.62725  -0.58900  -0.57854  -0.57490
 Alpha  occ. eigenvalues --   -0.54735  -0.52307  -0.45846  -0.42910  -0.42652
 Alpha  occ. eigenvalues --   -0.41698  -0.39063  -0.37559
 Alpha virt. eigenvalues --    0.03787   0.04470   0.04674   0.05062   0.06519
 Alpha virt. eigenvalues --    0.06573   0.07215   0.08650   0.08836   0.10482
 Alpha virt. eigenvalues --    0.11438   0.11934   0.12022   0.12162   0.12248

 Mulliken charges:
               1
     1  N   -0.800298
     2  C    0.508309
     3  N   -0.761887
     4  N   -0.829353
     5  C    0.508518
     6  N   -0.829438
     7  N   -0.761878
     8  N   -0.800440
     9  H    0.328894
    10  H    0.306584
    11  H    0.318799
    12  H    0.294060
    13  H    0.313698
    14  H    0.321098
    15  H    0.313717
    16  H    0.321092
    17  H    0.318907
    18  H    0.293979
    19  H    0.306682
    20  H    0.328958
 Sum of Mulliken charges =  -0.00000

 Dipole moment (field-independent basis, Debye):
    X=             -0.0011    Y=             -0.0016    Z=              0.0004  Tot=              0.0020
 Quadrupole moment (field-independent basis, Debye-Ang):
   XX=            -50.0703   YY=            -48.2034   ZZ=            -51.1440
   XY=             -0.2008   XZ=              3.7152   YZ=              3.2587

 Normal termination of Gaussian 09 at Fri Aug 26 11:55:19 2022.
