 Gaussian 09, Revision E.01,
 Gaussian 09:  ES64L-G09RevE.01 30-Nov-2015

 -----
 #P G4
 -----

 --------
 Frag_926
 --------
 Symbolic Z-matrix:
 Charge =  0 Multiplicity = 1

 SCF Done:  E(RB3LYP) =  -340.523469444     A.U. after   13 cycles
 SCF Done:  E(RB3LYP) =  -340.530696019     A.U. after   11 cycles
 SCF Done:  E(RB3LYP) =  -340.531075489     A.U. after   10 cycles
 SCF Done:  E(RB3LYP) =  -340.531180116     A.U. after   10 cycles
 SCF Done:  E(RB3LYP) =  -340.531175744     A.U. after   10 cycles
 SCF Done:  E(RB3LYP) =  -340.531204892     A.U. after   10 cycles
 SCF Done:  E(RB3LYP) =  -340.531207240     A.U. after    7 cycles
 SCF Done:  E(RB3LYP) =  -340.531207585     A.U. after    7 cycles
 Optimization completed.
    -- Stationary point found.
 Normal termination of Gaussian 09 at Tue Aug 23 14:03:17 2022.

 ----------------------------------------------------------
 #P Geom=AllCheck Guess=TCheck SCRF=Check B3LYP/GTBas3 Freq
 ----------------------------------------------------------

 Structure from the checkpoint file:  "G4.Frag_926.chk"
 --------
 Frag_926
 --------
 Charge =  0 Multiplicity = 1

 SCF Done:  E(RB3LYP) =  -340.531207585     A.U. after    1 cycles

  Exact polarizability:  66.280   0.055  65.887   0.670   0.929  60.702
 Approx polarizability:  90.034   1.663  93.796   0.852   2.146  88.811

                      1                      2                      3
                      A                      A                      A
 Frequencies --    111.9203               195.9291               257.2649
 Red. masses --      2.6936                 1.0361                 1.1098
 Frc consts  --      0.0199                 0.0234                 0.0433
 IR Inten    --      0.5352                 4.0966                 5.4893

                      4                      5                      6
                      A                      A                      A
 Frequencies --    272.1517               283.4913               300.6916
 Red. masses --      2.0119                 1.3482                 1.1572
 Frc consts  --      0.0878                 0.0638                 0.0616
 IR Inten    --      2.1071                 9.1467                60.6818

                      7                      8                      9
                      A                      A                      A
 Frequencies --    315.7536               354.4915               383.2218
 Red. masses --      2.2402                 1.3250                 2.5174
 Frc consts  --      0.1316                 0.0981                 0.2178
 IR Inten    --     11.2147                 6.2889                 3.3730

                     10                     11                     12
                      A                      A                      A
 Frequencies --    417.2056               430.0682               499.8744
 Red. masses --      2.2802                 2.3168                 2.7211
 Frc consts  --      0.2338                 0.2525                 0.4006
 IR Inten    --      6.7390                25.9983                 5.5289

                     13                     14                     15
                      A                      A                      A
 Frequencies --    524.9923               547.1352               706.4355
 Red. masses --      2.6303                 2.6401                 3.7463
 Frc consts  --      0.4271                 0.4656                 1.1015
 IR Inten    --     18.8656                12.8636                30.4205

                     16                     17                     18
                      A                      A                      A
 Frequencies --    832.4666               854.6755               913.1841
 Red. masses --      1.6820                 2.5194                 1.8712
 Frc consts  --      0.6868                 1.0843                 0.9194
 IR Inten    --    158.2830               124.2949                38.5344

                     19                     20                     21
                      A                      A                      A
 Frequencies --    926.1310               978.9548               992.2952
 Red. masses --      1.6925                 1.4333                 1.4665
 Frc consts  --      0.8553                 0.8093                 0.8508
 IR Inten    --     99.1180                30.0363                 9.0015

                     22                     23                     24
                      A                      A                      A
 Frequencies --   1004.4844              1108.0406              1146.7323
 Red. masses --      2.0247                 1.4735                 1.3631
 Frc consts  --      1.2036                 1.0659                 1.0561
 IR Inten    --     41.1143                26.8675                10.1799

                     25                     26                     27
                      A                      A                      A
 Frequencies --   1190.2424              1207.9389              1250.7718
 Red. masses --      2.4261                 2.0301                 2.9760
 Frc consts  --      2.0251                 1.7453                 2.7431
 IR Inten    --     34.1753                16.3190                40.8687

                     28                     29                     30
                      A                      A                      A
 Frequencies --   1286.5659              1335.3487              1367.1598
 Red. masses --      1.9887                 1.3947                 1.5831
 Frc consts  --      1.9394                 1.4652                 1.7434
 IR Inten    --     40.4241                13.4608                 3.2252

                     31                     32                     33
                      A                      A                      A
 Frequencies --   1404.0201              1438.1825              1480.1055
 Red. masses --      1.5048                 1.1605                 1.0516
 Frc consts  --      1.7478                 1.4142                 1.3573
 IR Inten    --     30.6422                 3.5404                 1.2193

                     34                     35                     36
                      A                      A                      A
 Frequencies --   1493.9988              1496.7277              1514.4443
 Red. masses --      1.0521                 1.0619                 1.0476
 Frc consts  --      1.3836                 1.4016                 1.4156
 IR Inten    --      4.8586                 7.9333                 1.0634

                     37                     38                     39
                      A                      A                      A
 Frequencies --   1639.4599              1651.8202              1666.8492
 Red. masses --      1.0971                 1.1038                 1.0847
 Frc consts  --      1.7374                 1.7744                 1.7756
 IR Inten    --     31.6656                21.3257                 9.0592

                     40                     41                     42
                      A                      A                      A
 Frequencies --   2954.2336              3042.8927              3092.3437
 Red. masses --      1.0604                 1.0401                 1.0735
 Frc consts  --      5.4527                 5.6741                 6.0485
 IR Inten    --     68.7196                15.6345                33.5302

                     43                     44                     45
                      A                      A                      A
 Frequencies --   3108.7525              3145.0748              3160.0373
 Red. masses --      1.0961                 1.1010                 1.1005
 Frc consts  --      6.2412                 6.4167                 6.4746
 IR Inten    --     20.6670                13.4489                 8.0972

                     46                     47                     48
                      A                      A                      A
 Frequencies --   3361.3782              3469.7493              3481.4894
 Red. masses --      1.0569                 1.0486                 1.0497
 Frc consts  --      7.0359                 7.4377                 7.4965
 IR Inten    --     22.0216                 1.1430                 0.0218

                     49                     50                     51
                      A                      A                      A
 Frequencies --   3555.8326              3561.3914              3568.1418
 Red. masses --      1.0842                 1.0899                 1.0909
 Frc consts  --      8.0772                 8.1449                 8.1833
 IR Inten    --      0.3153                 0.4768                 1.5853

 - Thermochemistry -
 -------------------
 Temperature   298.150 Kelvin.  Pressure   1.00000 Atm.
 Atom     1 has atomic number  6 and mass  12.00000

 Molecular mass:   104.10620 amu.
 Principal axes and moments of inertia in atomic units:
                           1         2         3
     Eigenvalues --   557.70899 763.29517 909.29037
           X            0.99920  -0.03985   0.00450
           Y            0.03984   0.99920   0.00227
           Z           -0.00458  -0.00209   0.99999
 This molecule is an asymmetric top.
 Rotational symmetry number  1.
 Warning -- assumption of classical behavior for rotation
           may cause significant error
 Rotational temperatures (Kelvin)      0.15530     0.11347     0.09525
 Rotational constants (GHZ):           3.23599     2.36441     1.98478
 Zero-point vibrational energy     450289.6 (Joules/Mol)
                                  107.62180 (Kcal/Mol)
 Warning -- explicit consideration of  14 degrees of freedom as
           vibrations may cause significant error
 Vibrational temperatures:    161.03   281.90   370.15   391.57   407.88
          (Kelvin)            432.63   454.30   510.03   551.37   600.27
                              618.77   719.21   755.35   787.20  1016.40
                             1197.73  1229.69  1313.87  1332.49  1408.50
                             1427.69  1445.23  1594.22  1649.89  1712.49
                             1737.95  1799.58  1851.08  1921.27  1967.04
                             2020.07  2069.22  2129.54  2149.53  2153.45
                             2178.94  2358.81  2376.60  2398.22  4250.48
                             4378.04  4449.19  4472.80  4525.06  4546.58
                             4836.27  4992.19  5009.08  5116.04  5124.04
                             5133.75

 Zero-point correction=                           0.171506 (Hartree/Particle)
 Thermal correction to Energy=                    0.180312
 Thermal correction to Enthalpy=                  0.181256
 Thermal correction to Gibbs Free Energy=         0.139657
 Sum of electronic and zero-point Energies=           -340.359701
 Sum of electronic and thermal Energies=              -340.350895
 Sum of electronic and thermal Enthalpies=            -340.349951
 Sum of electronic and thermal Free Energies=         -340.391550

                     E (Thermal)             CV                S
                      KCal/Mol        Cal/Mol-Kelvin    Cal/Mol-Kelvin
 Total                  113.148             33.968             87.552
 Electronic               0.000              0.000              0.000
 Translational            0.889              2.981             39.838
 Rotational               0.889              2.981             27.451
 Vibrational            111.370             28.006             20.264
 Vibration     1          0.607              1.940              3.235
 Vibration     2          0.636              1.846              2.171
 Vibration     3          0.667              1.751              1.680
 Vibration     4          0.675              1.725              1.583
 Vibration     5          0.682              1.704              1.513
 Vibration     6          0.693              1.672              1.413
 Vibration     7          0.703              1.644              1.332
 Vibration     8          0.730              1.566              1.146
 Vibration     9          0.752              1.506              1.026
 Vibration    10          0.780              1.433              0.902
 Vibration    11          0.791              1.405              0.858
 Vibration    12          0.855              1.250              0.658
 Vibration    13          0.880              1.195              0.598
 Vibration    14          0.902              1.146              0.550

 Optimization completed.
    -- Stationary point found.
 Normal termination of Gaussian 09 at Tue Aug 23 14:11:23 2022.

 -----------------------------------------------------------------
 #P Geom=AllCheck Guess=TCheck SCRF=Check CCSD(T,E4T,FrzG4)/GTBas1
 -----------------------------------------------------------------

 Structure from the checkpoint file:  "G4.Frag_926.chk"
 --------
 Frag_926
 --------
 Charge =  0 Multiplicity = 1

 SCF Done:  E(RHF) =  -338.318584887     A.U. after   12 cycles
 E2 =    -0.1058924781D+01 EUMP2 =    -0.33937750966836D+03
 CCSD(T)
 CCSD(T)= -0.33947721076D+03
 339.4761015\MP4SDQ=-339.4435388\CCSD=-339.4447637\CCSD(T)=-339.4772108
 Normal termination of Gaussian 09 at Tue Aug 23 14:29:56 2022.

 ---------------------------------------------------------
 #P Geom=AllCheck Guess=TCheck SCRF=Check MP4=FrzG4/GTBas2
 ---------------------------------------------------------

 Structure from the checkpoint file:  "G4.Frag_926.chk"
 --------
 Frag_926
 --------
 Charge =  0 Multiplicity = 1

 SCF Done:  E(RHF) =  -338.330778398     A.U. after   12 cycles
 E2 =    -0.1077121142D+01 EUMP2 =    -0.33940789953919D+03
 Normal termination of Gaussian 09 at Tue Aug 23 14:56:08 2022.

 ---------------------------------------------------------
 #P Geom=AllCheck Guess=TCheck SCRF=Check MP4=FrzG4/GTBas3
 ---------------------------------------------------------

 Structure from the checkpoint file:  "G4.Frag_926.chk"
 --------
 Frag_926
 --------
 Charge =  0 Multiplicity = 1

 SCF Done:  E(RHF) =  -338.369399697     A.U. after   11 cycles
 E2 =    -0.1303458350D+01 EUMP2 =    -0.33967285804604D+03
 Normal termination of Gaussian 09 at Tue Aug 23 21:12:38 2022.

 -----------------------------------------------------------
 #P Geom=AllCheck Guess=TCheck SCRF=Check MP2=Full/GTLargeXP
 -----------------------------------------------------------

 Structure from the checkpoint file:  "G4.Frag_926.chk"
 --------
 Frag_926
 --------
 Charge =  0 Multiplicity = 1

 SCF Done:  E(RHF) =  -338.455217342     A.U. after   11 cycles
 E2 =    -0.1697397366D+01 EUMP2 =    -0.34015261470844D+03
 Normal termination of Gaussian 09 at Tue Aug 23 21:27:51 2022.
 SCF Done:  E(RHF) =  -338.480811825     A.U. after    8 cycles
 Normal termination of Gaussian 09 at Tue Aug 23 21:39:12 2022.

                         Standard orientation:
 ---------------------------------------------------------------------
 Center     Atomic      Atomic             Coordinates (Angstroms)
 Number     Number       Type             X           Y           Z
 ---------------------------------------------------------------------
      1          6           0        1.646702   -1.091012    0.004637
      2          7           0        0.819345    0.034354   -0.422469
      3          7           0        1.489571    1.233533   -0.050753
      4          6           0       -0.617645   -0.040254   -0.022007
      5          6           0       -0.847127   -0.119518    1.496492
      6          7           0       -1.118341   -1.264432   -0.637885
      7          7           0       -1.355311    1.120553   -0.525441
      8          1           0        2.603701   -1.032906   -0.518598
      9          1           0        1.143047   -2.024517   -0.243684
     10          1           0        1.856792   -1.086033    1.088687
     11          1           0        1.337840    1.455400    0.938567
     12          1           0        1.103984    1.996170   -0.596216
     13          1           0       -0.385919   -1.018836    1.906825
     14          1           0       -1.918640   -0.147241    1.710098
     15          1           0       -0.434482    0.755203    2.011272
     16          1           0       -0.897371   -1.231853   -1.630546
     17          1           0       -2.131126   -1.264922   -0.560692
     18          1           0       -1.104238    1.966527   -0.022099
     19          1           0       -1.112015    1.269655   -1.502513
 ---------------------------------------------------------------------

 SCF Done:  E(RHF) =  -338.486560869     A.U. after    8 cycles

 The electronic state is 1-A.
 Alpha  occ. eigenvalues --  -15.57200 -15.56960 -15.54485 -15.53727 -11.31900
 Alpha  occ. eigenvalues --  -11.23067 -11.21738  -1.30097  -1.21151  -1.13163
 Alpha  occ. eigenvalues --   -1.04729  -0.97895  -0.89047  -0.77210  -0.70094
 Alpha  occ. eigenvalues --   -0.68355  -0.66105  -0.64721  -0.61654  -0.58756
 Alpha  occ. eigenvalues --   -0.54751  -0.54554  -0.52911  -0.52391  -0.51518
 Alpha  occ. eigenvalues --   -0.43325  -0.41340  -0.40240  -0.36333
 Alpha virt. eigenvalues --    0.03272   0.04337   0.04585   0.04943   0.06697
 Alpha virt. eigenvalues --    0.06862   0.07012   0.07380   0.07653   0.09810
 Alpha virt. eigenvalues --    0.10611   0.10873   0.11506   0.11680   0.12082

 Mulliken charges:
               1
     1  C   -0.520677
     2  N    0.007227
     3  N   -0.684686
     4  C    0.450747
     5  C   -0.572480
     6  N   -0.767211
     7  N   -0.757999
     8  H    0.189945
     9  H    0.207051
    10  H    0.136907
    11  H    0.285869
    12  H    0.301664
    13  H    0.186806
    14  H    0.186123
    15  H    0.150784
    16  H    0.301259
    17  H    0.303484
    18  H    0.293747
    19  H    0.301438
 Sum of Mulliken charges =  -0.00000

 Dipole moment (field-independent basis, Debye):
    X=             -0.8040    Y=              1.3033    Z=              0.4033  Tot=              1.5835
 Quadrupole moment (field-independent basis, Debye-Ang):
   XX=            -51.0867   YY=            -43.4895   ZZ=            -42.2091
   XY=             -0.2385   XZ=              1.8175   YZ=              0.7736

 Normal termination of Gaussian 09 at Wed Aug 24 03:11:47 2022.
