 Gaussian 09, Revision E.01,
 Gaussian 09:  ES64L-G09RevE.01 30-Nov-2015

 -----
 #P G4
 -----

 --------
 Frag_736
 --------
 Symbolic Z-matrix:
 Charge =  0 Multiplicity = 1

 SCF Done:  E(RB3LYP) =  -204.079180609     A.U. after   14 cycles
 SCF Done:  E(RB3LYP) =  -204.097334985     A.U. after   13 cycles
 SCF Done:  E(RB3LYP) =  -204.098412044     A.U. after   11 cycles
 SCF Done:  E(RB3LYP) =  -204.098509206     A.U. after   10 cycles
 SCF Done:  E(RB3LYP) =  -204.098521541     A.U. after    8 cycles
 SCF Done:  E(RB3LYP) =  -204.098522675     A.U. after    8 cycles
 Optimization completed.
    -- Stationary point found.
 Normal termination of Gaussian 09 at Fri Aug 26 11:02:43 2022.

 ----------------------------------------------------------
 #P Geom=AllCheck Guess=TCheck SCRF=Check B3LYP/GTBas3 Freq
 ----------------------------------------------------------

 Structure from the checkpoint file:  "G4.Frag_736.chk"
 --------
 Frag_736
 --------
 Charge =  0 Multiplicity = 1

 SCF Done:  E(RB3LYP) =  -204.098522675     A.U. after    1 cycles

  Exact polarizability:  52.467  -2.968  28.440  -0.001  -0.000  16.644
 Approx polarizability:  88.721 -11.033  42.489  -0.001  -0.000  25.595

                      1                      2                      3
                      A                      A                      A
 Frequencies --    148.7246               385.8819               622.3760
 Red. masses --      5.4098                 3.4273                 5.0649
 Frc consts  --      0.0705                 0.3007                 1.1559
 IR Inten    --      1.0185                 3.0081                14.6453

                      4                      5                      6
                      A                      A                      A
 Frequencies --    757.9089               974.7421              1035.2063
 Red. masses --      1.2870                 3.3384                 1.4779
 Frc consts  --      0.4356                 1.8688                 0.9331
 IR Inten    --      0.2331                57.5407                67.1598

                      7                      8                      9
                      A                      A                      A
 Frequencies --   1129.3631              1230.8900              1375.1998
 Red. masses --      1.0902                 1.2939                 1.2354
 Frc consts  --      0.8193                 1.1550                 1.3766
 IR Inten    --     44.9458                47.2082                28.0410

                     10                     11                     12
                      A                      A                      A
 Frequencies --   1487.1901              1613.7758              1727.5350
 Red. masses --      1.3196                10.5801                 8.2214
 Frc consts  --      1.7196                16.2341                14.4561
 IR Inten    --     49.6919                 3.3526                28.4690

                     13                     14                     15
                      A                      A                      A
 Frequencies --   3116.9498              3276.4709              3418.3700
 Red. masses --      1.0929                 1.0744                 1.0726
 Frc consts  --      6.2561                 6.7958                 7.3843
 IR Inten    --     17.7629                 6.9713                 0.5668

 - Thermochemistry -
 -------------------
 Temperature   298.150 Kelvin.  Pressure   1.00000 Atm.
 Atom     1 has atomic number  7 and mass  14.00307

 Molecular mass:    57.03270 amu.
 Principal axes and moments of inertia in atomic units:
                           1         2         3
     Eigenvalues --    32.49052 349.88892 382.37944
           X            1.00000  -0.00165  -0.00000
           Y            0.00165   1.00000  -0.00000
           Z            0.00000   0.00000   1.00000
 This molecule is an asymmetric top.
 Rotational symmetry number  1.
 Rotational temperatures (Kelvin)      2.66582     0.24755     0.22651
 Rotational constants (GHZ):          55.54671     5.15804     4.71977
 Zero-point vibrational energy     133387.1 (Joules/Mol)
                                   31.88029 (Kcal/Mol)
 Warning -- explicit consideration of   2 degrees of freedom as
           vibrations may cause significant error
 Vibrational temperatures:    213.98   555.20   895.46  1090.46  1402.43
          (Kelvin)           1489.43  1624.90  1770.97  1978.60  2139.73
                             2321.86  2485.53  4484.59  4714.10  4918.27

 Zero-point correction=                           0.050804 (Hartree/Particle)
 Thermal correction to Energy=                    0.054974
 Thermal correction to Enthalpy=                  0.055918
 Thermal correction to Gibbs Free Energy=         0.024694
 Sum of electronic and zero-point Energies=           -204.047718
 Sum of electronic and thermal Energies=              -204.043549
 Sum of electronic and thermal Enthalpies=            -204.042605
 Sum of electronic and thermal Free Energies=         -204.073829

                     E (Thermal)             CV                S
                      KCal/Mol        Cal/Mol-Kelvin    Cal/Mol-Kelvin
 Total                   34.496             12.537             65.716
 Electronic               0.000              0.000              0.000
 Translational            0.889              2.981             38.044
 Rotational               0.889              2.981             22.990
 Vibrational             32.719              6.576              4.682
 Vibration     1          0.618              1.904              2.688
 Vibration     2          0.755              1.500              1.016

 Optimization completed.
    -- Stationary point found.
 Normal termination of Gaussian 09 at Fri Aug 26 11:02:54 2022.

 -----------------------------------------------------------------
 #P Geom=AllCheck Guess=TCheck SCRF=Check CCSD(T,E4T,FrzG4)/GTBas1
 -----------------------------------------------------------------

 Structure from the checkpoint file:  "G4.Frag_736.chk"
 --------
 Frag_736
 --------
 Charge =  0 Multiplicity = 1

 SCF Done:  E(RHF) =  -202.878305595     A.U. after   13 cycles
 E2 =    -0.6047054343D+00 EUMP2 =    -0.20348301102892D+03
 CCSD(T)
 CCSD(T)= -0.20353378247D+03
 Normal termination of Gaussian 09 at Fri Aug 26 11:03:12 2022.

 ---------------------------------------------------------
 #P Geom=AllCheck Guess=TCheck SCRF=Check MP4=FrzG4/GTBas2
 ---------------------------------------------------------

 Structure from the checkpoint file:  "G4.Frag_736.chk"
 --------
 Frag_736
 --------
 Charge =  0 Multiplicity = 1

 SCF Done:  E(RHF) =  -202.886298641     A.U. after   13 cycles
 E2 =    -0.6133728171D+00 EUMP2 =    -0.20349967145828D+03
 Normal termination of Gaussian 09 at Fri Aug 26 11:03:17 2022.

 ---------------------------------------------------------
 #P Geom=AllCheck Guess=TCheck SCRF=Check MP4=FrzG4/GTBas3
 ---------------------------------------------------------

 Structure from the checkpoint file:  "G4.Frag_736.chk"
 --------
 Frag_736
 --------
 Charge =  0 Multiplicity = 1

 SCF Done:  E(RHF) =  -202.902263834     A.U. after   12 cycles
 E2 =    -0.7157639686D+00 EUMP2 =    -0.20361802780242D+03
 Normal termination of Gaussian 09 at Fri Aug 26 11:03:37 2022.

 -----------------------------------------------------------
 #P Geom=AllCheck Guess=TCheck SCRF=Check MP2=Full/GTLargeXP
 -----------------------------------------------------------

 Structure from the checkpoint file:  "G4.Frag_736.chk"
 --------
 Frag_736
 --------
 Charge =  0 Multiplicity = 1

 SCF Done:  E(RHF) =  -202.956118499     A.U. after   13 cycles
 E2 =    -0.9368192290D+00 EUMP2 =    -0.20389293772815D+03
 Normal termination of Gaussian 09 at Fri Aug 26 11:03:51 2022.
 SCF Done:  E(RHF) =  -202.971758286     A.U. after    9 cycles
 Normal termination of Gaussian 09 at Fri Aug 26 11:04:08 2022.

                         Standard orientation:
 ---------------------------------------------------------------------
 Center     Atomic      Atomic             Coordinates (Angstroms)
 Number     Number       Type             X           Y           Z
 ---------------------------------------------------------------------
      1          7           0        1.754914   -0.065383   -0.000001
      2          6           0        0.579431    0.397631    0.000017
      3          7           0       -0.573855   -0.460389   -0.000011
      4          7           0       -1.631648    0.199581   -0.000033
      5          1           0        1.710149   -1.090629   -0.000010
      6          1           0        0.375601    1.471298    0.000034
      7          1           0       -2.408219   -0.483117    0.000191
 ---------------------------------------------------------------------

 SCF Done:  E(RHF) =  -202.974803012     A.U. after    8 cycles

 The electronic state is 1-A.
 Alpha  occ. eigenvalues --  -15.65719 -15.65371 -15.57647 -11.31911  -1.39309
 Alpha  occ. eigenvalues --   -1.23292  -0.98934  -0.81545  -0.71924  -0.68587
 Alpha  occ. eigenvalues --   -0.60054  -0.57542  -0.47786  -0.44294  -0.42328
 Alpha virt. eigenvalues --    0.04375   0.05108   0.05566   0.05648   0.06481
 Alpha virt. eigenvalues --    0.08378   0.09656   0.10558   0.11512   0.11744
 Alpha virt. eigenvalues --    0.13470   0.13873   0.15429   0.16266   0.18967

 Mulliken charges:
               1
     1  N   -0.548329
     2  C    0.172542
     3  N   -0.126256
     4  N   -0.355240
     5  H    0.300862
     6  H    0.230206
     7  H    0.326215
 Sum of Mulliken charges =  -0.00000

 Dipole moment (field-independent basis, Debye):
    X=             -2.1403    Y=             -0.8477    Z=              0.0002  Tot=              2.3021
 Quadrupole moment (field-independent basis, Debye-Ang):
   XX=            -25.0361   YY=            -22.9170   ZZ=            -24.1776
   XY=              0.1392   XZ=             -0.0008   YZ=              0.0000

 Normal termination of Gaussian 09 at Fri Aug 26 11:05:47 2022.
