 Gaussian 09, Revision E.01,
 Gaussian 09:  ES64L-G09RevE.01 30-Nov-2015

 -----
 #P G4
 -----

 --------
 Frag_471
 --------
 Symbolic Z-matrix:
 Charge =  0 Multiplicity = 1

 SCF Done:  E(RB3LYP) =  -324.941761884     A.U. after   13 cycles
 SCF Done:  E(RB3LYP) =  -324.948152970     A.U. after   11 cycles
 SCF Done:  E(RB3LYP) =  -324.949795536     A.U. after   11 cycles
 SCF Done:  E(RB3LYP) =  -324.950287611     A.U. after   10 cycles
 SCF Done:  E(RB3LYP) =  -324.950396470     A.U. after   10 cycles
 SCF Done:  E(RB3LYP) =  -324.950445040     A.U. after   10 cycles
 SCF Done:  E(RB3LYP) =  -324.950480419     A.U. after   10 cycles
 SCF Done:  E(RB3LYP) =  -324.950492285     A.U. after    9 cycles
 SCF Done:  E(RB3LYP) =  -324.950495076     A.U. after    7 cycles
 SCF Done:  E(RB3LYP) =  -324.950495949     A.U. after    7 cycles
 SCF Done:  E(RB3LYP) =  -324.950496088     A.U. after    6 cycles
 Optimization completed.
    -- Stationary point found.
 Normal termination of Gaussian 09 at Fri Aug 26 12:44:24 2022.

 ----------------------------------------------------------
 #P Geom=AllCheck Guess=TCheck SCRF=Check B3LYP/GTBas3 Freq
 ----------------------------------------------------------

 Structure from the checkpoint file:  "G4.Frag_471.chk"
 --------
 Frag_471
 --------
 Charge =  0 Multiplicity = 1

 SCF Done:  E(RB3LYP) =  -324.950496088     A.U. after    1 cycles

  Exact polarizability:  53.997  -0.798  48.050   0.751  -0.287  45.628
 Approx polarizability:  67.229   0.868  69.069   1.605  -0.447  67.623

                      1                      2                      3
                      A                      A                      A
 Frequencies --     76.2383               226.8728               240.7837
 Red. masses --      3.9529                 1.3126                 1.1259
 Frc consts  --      0.0135                 0.0398                 0.0385
 IR Inten    --      1.9515                60.0180                56.0995

                      4                      5                      6
                      A                      A                      A
 Frequencies --    265.2506               300.0691               319.0114
 Red. masses --      1.7613                 2.6741                 1.3551
 Frc consts  --      0.0730                 0.1419                 0.0813
 IR Inten    --     10.0244                 6.0499                85.2613

                      7                      8                      9
                      A                      A                      A
 Frequencies --    355.2900               459.9924               517.1382
 Red. masses --      3.3658                 2.0759                 1.2876
 Frc consts  --      0.2503                 0.2588                 0.2029
 IR Inten    --      1.7464                13.1240                89.3800

                     10                     11                     12
                      A                      A                      A
 Frequencies --    546.7324               664.4743               801.2054
 Red. masses --      2.8596                 2.7858                 2.3246
 Frc consts  --      0.5036                 0.7247                 0.8792
 IR Inten    --     33.0348                 8.9600                 8.8119

                     13                     14                     15
                      A                      A                      A
 Frequencies --    855.9662               927.1894               998.0693
 Red. masses --      1.7233                 1.9911                 2.2057
 Frc consts  --      0.7439                 1.0085                 1.2945
 IR Inten    --    103.3786                17.4085                85.2419

                     16                     17                     18
                      A                      A                      A
 Frequencies --   1054.6427              1073.7450              1079.3403
 Red. masses --      2.3929                 2.1210                 1.7232
 Frc consts  --      1.5682                 1.4408                 1.1828
 IR Inten    --    125.4121                27.9857                20.1273

                     19                     20                     21
                      A                      A                      A
 Frequencies --   1138.6790              1212.6735              1254.4475
 Red. masses --      1.7384                 1.5929                 1.3075
 Frc consts  --      1.3280                 1.3802                 1.2122
 IR Inten    --     48.4821                15.5264                34.6851

                     22                     23                     24
                      A                      A                      A
 Frequencies --   1317.6269              1331.9390              1394.1335
 Red. masses --      1.5133                 1.3356                 1.2082
 Frc consts  --      1.5480                 1.3961                 1.3835
 IR Inten    --      7.0923                 6.8718                11.7224

                     25                     26                     27
                      A                      A                      A
 Frequencies --   1398.6220              1430.4004              1451.4638
 Red. masses --      1.2791                 1.2188                 1.5571
 Frc consts  --      1.4742                 1.4692                 1.9328
 IR Inten    --      3.2484                43.3888                14.6458

                     28                     29                     30
                      A                      A                      A
 Frequencies --   1491.4600              1500.3948              1646.9712
 Red. masses --      1.0597                 1.0612                 1.1009
 Frc consts  --      1.3889                 1.4076                 1.7594
 IR Inten    --      8.8280                 1.1655                26.9555

                     31                     32                     33
                      A                      A                      A
 Frequencies --   2992.8615              3031.0628              3075.4227
 Red. masses --      1.0837                 1.0362                 1.0869
 Frc consts  --      5.7193                 5.6092                 6.0571
 IR Inten    --     50.7614                17.9400                 7.1482

                     34                     35                     36
                      A                      A                      A
 Frequencies --   3102.7642              3120.6475              3497.9382
 Red. masses --      1.0992                 1.1013                 1.0483
 Frc consts  --      6.2349                 6.3188                 7.5571
 IR Inten    --     36.0424                22.1242                 1.4035

                     37                     38                     39
                      A                      A                      A
 Frequencies --   3583.5587              3782.7912              3808.7295
 Red. masses --      1.0931                 1.0653                 1.0660
 Frc consts  --      8.2705                 8.9814                 9.1113
 IR Inten    --      3.2482                15.2859                10.1716

 - Thermochemistry -
 -------------------
 Temperature   298.150 Kelvin.  Pressure   1.00000 Atm.
 Atom     1 has atomic number  6 and mass  12.00000

 Molecular mass:    91.06333 amu.
 Principal axes and moments of inertia in atomic units:
                           1         2         3
     Eigenvalues --   377.83192 709.04229 711.29488
           X            0.99915   0.01576  -0.03813
           Y            0.04043  -0.55838   0.82860
           Z            0.00823   0.82944   0.55854
 This molecule is an asymmetric top.
 Rotational symmetry number  1.
 Rotational temperatures (Kelvin)      0.22924     0.12216     0.12177
 Rotational constants (GHZ):           4.77657     2.54532     2.53726
 Zero-point vibrational energy     342889.2 (Joules/Mol)
                                   81.95249 (Kcal/Mol)
 Warning -- explicit consideration of  10 degrees of freedom as
           vibrations may cause significant error
 Vibrational temperatures:    109.69   326.42   346.43   381.64   431.73
          (Kelvin)            458.99   511.18   661.83   744.05   786.63
                              956.03  1152.75  1231.54  1334.02  1436.00
                             1517.39  1544.88  1552.93  1638.30  1744.76
                             1804.87  1895.77  1916.36  2005.84  2012.30
                             2058.02  2088.33  2145.88  2158.73  2369.62
                             4306.05  4361.02  4424.84  4464.18  4489.91
                             5032.75  5155.94  5442.59  5479.91

 Zero-point correction=                           0.130600 (Hartree/Particle)
 Thermal correction to Energy=                    0.138081
 Thermal correction to Enthalpy=                  0.139025
 Thermal correction to Gibbs Free Energy=         0.099715
 Sum of electronic and zero-point Energies=           -324.819896
 Sum of electronic and thermal Energies=              -324.812415
 Sum of electronic and thermal Enthalpies=            -324.811471
 Sum of electronic and thermal Free Energies=         -324.850781

                     E (Thermal)             CV                S
                      KCal/Mol        Cal/Mol-Kelvin    Cal/Mol-Kelvin
 Total                   86.647             27.176             82.734
 Electronic               0.000              0.000              0.000
 Translational            0.889              2.981             39.439
 Rotational               0.889              2.981             26.746
 Vibrational             84.869             21.214             16.548
 Vibration     1          0.599              1.965              3.985
 Vibration     2          0.651              1.800              1.904
 Vibration     3          0.658              1.778              1.797
 Vibration     4          0.671              1.737              1.627
 Vibration     5          0.693              1.674              1.417
 Vibration     6          0.705              1.637              1.315
 Vibration     7          0.731              1.564              1.143
 Vibration     8          0.818              1.339              0.766
 Vibration     9          0.872              1.212              0.617
 Vibration    10          0.902              1.147              0.551

 Normal termination of Gaussian 09 at Fri Aug 26 12:44:58 2022.

 -----------------------------------------------------------------
 #P Geom=AllCheck Guess=TCheck SCRF=Check CCSD(T,E4T,FrzG4)/GTBas1
 -----------------------------------------------------------------

 Structure from the checkpoint file:  "G4.Frag_471.chk"
 --------
 Frag_471
 --------
 Charge =  0 Multiplicity = 1

 SCF Done:  E(RHF) =  -322.991491165     A.U. after   12 cycles
 E2 =    -0.9172625221D+00 EUMP2 =    -0.32390875368707D+03
 CCSD(T)
 CCSD(T)= -0.32398464651D+03
 598993\CCSD(T)=-323.9846465\RMSD=4.135e-09\PG=C01 [X(C3H9N1O2)]\\@
 Normal termination of Gaussian 09 at Fri Aug 26 12:47:15 2022.

 ---------------------------------------------------------
 #P Geom=AllCheck Guess=TCheck SCRF=Check MP4=FrzG4/GTBas2
 ---------------------------------------------------------

 Structure from the checkpoint file:  "G4.Frag_471.chk"
 --------
 Frag_471
 --------
 Charge =  0 Multiplicity = 1

 SCF Done:  E(RHF) =  -323.003719035     A.U. after   12 cycles
 E2 =    -0.9343474442D+00 EUMP2 =    -0.32393806647881D+03
 Normal termination of Gaussian 09 at Fri Aug 26 12:48:00 2022.

 ---------------------------------------------------------
 #P Geom=AllCheck Guess=TCheck SCRF=Check MP4=FrzG4/GTBas3
 ---------------------------------------------------------

 Structure from the checkpoint file:  "G4.Frag_471.chk"
 --------
 Frag_471
 --------
 Charge =  0 Multiplicity = 1

 SCF Done:  E(RHF) =  -323.039449892     A.U. after   11 cycles
 E2 =    -0.1141027671D+01 EUMP2 =    -0.32418047756309D+03
 Normal termination of Gaussian 09 at Fri Aug 26 12:52:17 2022.

 -----------------------------------------------------------
 #P Geom=AllCheck Guess=TCheck SCRF=Check MP2=Full/GTLargeXP
 -----------------------------------------------------------

 Structure from the checkpoint file:  "G4.Frag_471.chk"
 --------
 Frag_471
 --------
 Charge =  0 Multiplicity = 1

 SCF Done:  E(RHF) =  -323.129086033     A.U. after   11 cycles
 E2 =    -0.1488833483D+01 EUMP2 =    -0.32461791951608D+03
 Normal termination of Gaussian 09 at Fri Aug 26 12:54:18 2022.
 SCF Done:  E(RHF) =  -323.155193914     A.U. after    8 cycles
 Normal termination of Gaussian 09 at Fri Aug 26 12:56:16 2022.

                         Standard orientation:
 ---------------------------------------------------------------------
 Center     Atomic      Atomic             Coordinates (Angstroms)
 Number     Number       Type             X           Y           Z
 ---------------------------------------------------------------------
      1          6           0        1.818893   -0.558931   -0.642355
      2          6           0        0.691708   -0.309908    0.358244
      3          8           0        0.879841    0.914850    1.055315
      4          6           0       -0.693216   -0.346049   -0.324769
      5          7           0       -0.968391    0.949668   -0.914913
      6          8           0       -1.625514   -0.749035    0.673187
      7          1           0        1.754166   -1.562926   -1.074710
      8          1           0        2.787616   -0.457057   -0.146345
      9          1           0        1.765894    0.166427   -1.462483
     10          1           0        0.691232   -1.085178    1.129822
     11          1           0        0.978905    1.596597    0.379728
     12          1           0       -0.672566   -1.081120   -1.143284
     13          1           0       -1.212482    1.594056   -0.167919
     14          1           0       -1.751908    0.907666   -1.557633
     15          1           0       -2.501041   -0.763340    0.272480
 ---------------------------------------------------------------------

 SCF Done:  E(RHF) =  -323.161047699     A.U. after    8 cycles

 The electronic state is 1-A.
 Alpha  occ. eigenvalues --  -20.55894 -20.54833 -15.55485 -11.31106 -11.27546
 Alpha  occ. eigenvalues --  -11.21510  -1.37831  -1.35175  -1.18242  -1.02312
 Alpha  occ. eigenvalues --   -0.90623  -0.80571  -0.71925  -0.69470  -0.66119
 Alpha  occ. eigenvalues --   -0.61811  -0.60738  -0.58711  -0.55945  -0.53482
 Alpha  occ. eigenvalues --   -0.51874  -0.48487  -0.46538  -0.44058  -0.41783
 Alpha virt. eigenvalues --    0.03038   0.04063   0.04910   0.05558   0.06895
 Alpha virt. eigenvalues --    0.07120   0.07587   0.08293   0.08989   0.10276
 Alpha virt. eigenvalues --    0.11538   0.12091   0.12156   0.13521   0.14420

 Mulliken charges:
               1
     1  C   -0.571794
     2  C    0.160989
     3  O   -0.616794
     4  C    0.171757
     5  N   -0.774900
     6  O   -0.577094
     7  H    0.163656
     8  H    0.185632
     9  H    0.183748
    10  H    0.192022
    11  H    0.371314
    12  H    0.141508
    13  H    0.319917
    14  H    0.291480
    15  H    0.358560
 Sum of Mulliken charges =  -0.00000

 Dipole moment (field-independent basis, Debye):
    X=             -1.5426    Y=             -0.1818    Z=             -2.8065  Tot=              3.2077
 Quadrupole moment (field-independent basis, Debye-Ang):
   XX=            -31.6990   YY=            -36.1353   ZZ=            -42.4136
   XY=             -1.5594   XZ=              2.4276   YZ=              0.3835

 Normal termination of Gaussian 09 at Fri Aug 26 13:03:52 2022.
