 Gaussian 09, Revision E.01,
 Gaussian 09:  ES64L-G09RevE.01 30-Nov-2015

 -----
 #P G4
 -----

 ---------
 Frag_1064
 ---------
 Symbolic Z-matrix:
 Charge =  0 Multiplicity = 1

 SCF Done:  E(RB3LYP) =  -226.327591999     A.U. after   15 cycles
 SCF Done:  E(RB3LYP) =  -226.339734646     A.U. after   11 cycles
 SCF Done:  E(RB3LYP) =  -226.341642662     A.U. after   12 cycles
 SCF Done:  E(RB3LYP) =  -226.343255825     A.U. after   12 cycles
 SCF Done:  E(RB3LYP) =  -226.345816241     A.U. after   13 cycles
 SCF Done:  E(RB3LYP) =  -226.346830998     A.U. after   12 cycles
 SCF Done:  E(RB3LYP) =  -226.347668639     A.U. after   11 cycles
 SCF Done:  E(RB3LYP) =  -226.347976409     A.U. after   12 cycles
 SCF Done:  E(RB3LYP) =  -226.348035122     A.U. after   10 cycles
 SCF Done:  E(RB3LYP) =  -226.348082483     A.U. after   10 cycles
 SCF Done:  E(RB3LYP) =  -226.348098204     A.U. after    9 cycles
 SCF Done:  E(RB3LYP) =  -226.348099667     A.U. after    8 cycles
 SCF Done:  E(RB3LYP) =  -226.348099983     A.U. after    7 cycles
 Optimization completed.
    -- Stationary point found.
 Normal termination of Gaussian 09 at Mon Aug 22 08:27:06 2022.

 ----------------------------------------------------------
 #P Geom=AllCheck Guess=TCheck SCRF=Check B3LYP/GTBas3 Freq
 ----------------------------------------------------------

 Structure from the checkpoint file:  "G4.Frag_1064.chk"
 ---------
 Frag_1064
 ---------
 Charge =  0 Multiplicity = 1

 SCF Done:  E(RB3LYP) =  -226.348099983     A.U. after    1 cycles

  Exact polarizability:  42.287   2.798  33.548   1.431  -2.480  30.684
 Approx polarizability:  56.414   2.127  49.122   2.574  -5.552  45.799

                      1                      2                      3
                      A                      A                      A
 Frequencies --    216.8392               272.7528               374.8804
 Red. masses --      1.7314                 1.3087                 1.2709
 Frc consts  --      0.0480                 0.0574                 0.1052
 IR Inten    --     31.3431                 4.9251                84.5939

                      4                      5                      6
                      A                      A                      A
 Frequencies --    386.4882               590.7617               753.7043
 Red. masses --      2.0653                 3.7054                 8.2660
 Frc consts  --      0.1818                 0.7619                 2.7666
 IR Inten    --     21.5815                 9.2880                10.9155

                      7                      8                      9
                      A                      A                      A
 Frequencies --    853.7856              1012.4506              1070.4455
 Red. masses --      5.2903                 1.4437                 1.2132
 Frc consts  --      2.2721                 0.8719                 0.8191
 IR Inten    --    118.3902               104.9172                45.0015

                     10                     11                     12
                      A                      A                      A
 Frequencies --   1101.0973              1151.8441              1233.6111
 Red. masses --      2.1367                 1.4864                 1.2863
 Frc consts  --      1.5263                 1.1619                 1.1533
 IR Inten    --     47.1064                 5.1275                46.4962

                     13                     14                     15
                      A                      A                      A
 Frequencies --   1287.8503              1383.3355              1450.4001
 Red. masses --      1.3872                 1.1509                 1.1875
 Frc consts  --      1.3556                 1.2976                 1.4718
 IR Inten    --      3.0905                22.6935                67.4262

                     16                     17                     18
                      A                      A                      A
 Frequencies --   1493.2091              1611.4208              1667.4490
 Red. masses --      1.1683                 1.0566                 1.0561
 Frc consts  --      1.5348                 1.6165                 1.7300
 IR Inten    --     15.9027                18.5212                38.4332

                     19                     20                     21
                      A                      A                      A
 Frequencies --   2695.6363              3041.8659              3123.9409
 Red. masses --      1.0704                 1.0853                 1.0577
 Frc consts  --      4.5828                 5.9166                 6.0818
 IR Inten    --    249.1609                53.2574               113.1988

                     22                     23                     24
                      A                      A                      A
 Frequencies --   3275.4185              3542.4381              3782.2574
 Red. masses --      1.0687                 1.0806                 1.0658
 Frc consts  --      6.7549                 7.9895                 8.9828
 IR Inten    --     48.9440                51.4276                 1.4467

 - Thermochemistry -
 -------------------
 Temperature   298.150 Kelvin.  Pressure   1.00000 Atm.
 Atom     1 has atomic number  7 and mass  14.00307

 Molecular mass:    62.04801 amu.
 Principal axes and moments of inertia in atomic units:
                           1         2         3
     Eigenvalues --   120.89580 290.82728 365.15493
           X            0.99752   0.06899   0.01371
           Y           -0.06905   0.99761   0.00377
           Z           -0.01342  -0.00471   0.99990
 This molecule is an asymmetric top.
 Rotational symmetry number  1.
 Rotational temperatures (Kelvin)      0.71643     0.29782     0.23720
 Rotational constants (GHZ):          14.92807     6.20554     4.94240
 Zero-point vibrational energy     223545.5 (Joules/Mol)
                                   53.42865 (Kcal/Mol)
 Warning -- explicit consideration of   5 degrees of freedom as
           vibrations may cause significant error
 Vibrational temperatures:    311.98   392.43   539.37   556.07   849.97
          (Kelvin)           1084.41  1228.41  1456.69  1540.13  1584.23
                             1657.24  1774.89  1852.93  1990.31  2086.80
                             2148.39  2318.47  2399.08  3878.41  4376.56
                             4494.65  4712.59  5096.77  5441.82

 Zero-point correction=                           0.085144 (Hartree/Particle)
 Thermal correction to Energy=                    0.090105
 Thermal correction to Enthalpy=                  0.091050
 Thermal correction to Gibbs Free Energy=         0.058134
 Sum of electronic and zero-point Energies=           -226.262956
 Sum of electronic and thermal Energies=              -226.257994
 Sum of electronic and thermal Enthalpies=            -226.257050
 Sum of electronic and thermal Free Energies=         -226.289966

                     E (Thermal)             CV                S
                      KCal/Mol        Cal/Mol-Kelvin    Cal/Mol-Kelvin
 Total                   56.542             16.767             69.277
 Electronic               0.000              0.000              0.000
 Translational            0.889              2.981             38.295
 Rotational               0.889              2.981             24.066
 Vibrational             54.765             10.805              6.915
 Vibration     1          0.646              1.815              1.985
 Vibration     2          0.676              1.724              1.579
 Vibration     3          0.746              1.524              1.060
 Vibration     4          0.755              1.499              1.014
 Vibration     5          0.948              1.051              0.466

 Normal termination of Gaussian 09 at Mon Aug 22 08:27:42 2022.

 -----------------------------------------------------------------
 #P Geom=AllCheck Guess=TCheck SCRF=Check CCSD(T,E4T,FrzG4)/GTBas1
 -----------------------------------------------------------------

 Structure from the checkpoint file:  "G4.Frag_1064.chk"
 ---------
 Frag_1064
 ---------
 Charge =  0 Multiplicity = 1

 SCF Done:  E(RHF) =  -224.984539530     A.U. after   14 cycles
 E2 =    -0.6439831998D+00 EUMP2 =    -0.22562852272945D+03
 CCSD(T)
 CCSD(T)= -0.22568076233D+03
 Normal termination of Gaussian 09 at Mon Aug 22 08:28:16 2022.

 ---------------------------------------------------------
 #P Geom=AllCheck Guess=TCheck SCRF=Check MP4=FrzG4/GTBas2
 ---------------------------------------------------------

 Structure from the checkpoint file:  "G4.Frag_1064.chk"
 ---------
 Frag_1064
 ---------
 Charge =  0 Multiplicity = 1

 SCF Done:  E(RHF) =  -224.998297987     A.U. after   13 cycles
 E2 =    -0.6583416718D+00 EUMP2 =    -0.22565663965907D+03
 Normal termination of Gaussian 09 at Mon Aug 22 08:28:34 2022.

 ---------------------------------------------------------
 #P Geom=AllCheck Guess=TCheck SCRF=Check MP4=FrzG4/GTBas3
 ---------------------------------------------------------

 Structure from the checkpoint file:  "G4.Frag_1064.chk"
 ---------
 Frag_1064
 ---------
 Charge =  0 Multiplicity = 1

 SCF Done:  E(RHF) =  -225.018816245     A.U. after   12 cycles
 E2 =    -0.7947542556D+00 EUMP2 =    -0.22581357050026D+03
 Normal termination of Gaussian 09 at Mon Aug 22 08:36:48 2022.

 -----------------------------------------------------------
 #P Geom=AllCheck Guess=TCheck SCRF=Check MP2=Full/GTLargeXP
 -----------------------------------------------------------

 Structure from the checkpoint file:  "G4.Frag_1064.chk"
 ---------
 Frag_1064
 ---------
 Charge =  0 Multiplicity = 1

 SCF Done:  E(RHF) =  -225.088145533     A.U. after   12 cycles
 E2 =    -0.1032404869D+01 EUMP2 =    -0.22612055040169D+03
 Normal termination of Gaussian 09 at Mon Aug 22 08:37:39 2022.
 SCF Done:  E(RHF) =  -225.106251175     A.U. after   10 cycles
 Normal termination of Gaussian 09 at Mon Aug 22 08:39:29 2022.

                         Standard orientation:
 ---------------------------------------------------------------------
 Center     Atomic      Atomic             Coordinates (Angstroms)
 Number     Number       Type             X           Y           Z
 ---------------------------------------------------------------------
      1          7           0       -1.317196   -0.441022    0.093408
      2          7           0       -0.623693    0.772874   -0.333301
      3          6           0        0.649916    0.628107    0.222583
      4          8           0        1.282384   -0.627828   -0.235236
      5          1           0       -2.169957   -0.520768   -0.454484
      6          1           0       -0.702214   -1.250478   -0.089665
      7          1           0       -1.577239   -0.476484    1.099993
      8          1           0        1.245071    1.490624   -0.101961
      9          1           0        0.698919    0.577909    1.345660
     10          1           0        1.933077   -0.889782    0.426096
 ---------------------------------------------------------------------

 SCF Done:  E(RHF) =  -225.110385567     A.U. after    8 cycles

 The electronic state is 1-A.
 Alpha  occ. eigenvalues --  -20.53919 -15.67758 -15.49422 -11.27814  -1.34547
 Alpha  occ. eigenvalues --   -1.29302  -1.05673  -0.82367  -0.75196  -0.73652
 Alpha  occ. eigenvalues --   -0.66105  -0.63062  -0.56659  -0.51190  -0.44596
 Alpha  occ. eigenvalues --   -0.40772  -0.31199
 Alpha virt. eigenvalues --    0.02857   0.04793   0.05771   0.06337   0.07968
 Alpha virt. eigenvalues --    0.08747   0.09171   0.11844   0.13550   0.14847
 Alpha virt. eigenvalues --    0.15327   0.16299   0.16993   0.17525   0.19769

 Mulliken charges:
               1
     1  N   -0.487681
     2  N   -0.575500
     3  C    0.040804
     4  O   -0.613558
     5  H    0.358981
     6  H    0.387868
     7  H    0.322501
     8  H    0.161537
     9  H    0.055367
    10  H    0.349682
 Sum of Mulliken charges =  -0.00000

 Dipole moment (field-independent basis, Debye):
    X=             -1.7889    Y=             -3.3605    Z=              3.0685  Tot=              4.8897
 Quadrupole moment (field-independent basis, Debye-Ang):
   XX=            -18.0875   YY=            -26.7897   ZZ=            -26.2355
   XY=              5.5389   XZ=              1.2707   YZ=             -0.2707

 Normal termination of Gaussian 09 at Mon Aug 22 09:25:08 2022.
