 Gaussian 09, Revision E.01,
 Gaussian 09:  ES64L-G09RevE.01 30-Nov-2015

 -----
 #P G4
 -----

 --------
 Frag_880
 --------
 Symbolic Z-matrix:
 Charge =  0 Multiplicity = 1

 SCF Done:  E(RB3LYP) =  -155.876616074     A.U. after   23 cycles
 SCF Done:  E(RB3LYP) =  -155.878322152     A.U. after   18 cycles
 SCF Done:  E(RB3LYP) =  -155.894070636     A.U. after   15 cycles
 SCF Done:  E(RB3LYP) =  -155.924915924     A.U. after   14 cycles
 SCF Done:  E(RB3LYP) =  -155.964633339     A.U. after   14 cycles
 SCF Done:  E(RB3LYP) =  -155.970697876     A.U. after   13 cycles
 SCF Done:  E(RB3LYP) =  -155.981147889     A.U. after   12 cycles
 SCF Done:  E(RB3LYP) =  -155.943833291     A.U. after   14 cycles
 SCF Done:  E(RB3LYP) =  -155.984666692     A.U. after   10 cycles
 SCF Done:  E(RB3LYP) =  -155.986050554     A.U. after   12 cycles
 SCF Done:  E(RB3LYP) =  -155.989928458     A.U. after   10 cycles
 SCF Done:  E(RB3LYP) =  -155.989974989     A.U. after   10 cycles
 SCF Done:  E(RB3LYP) =  -155.989977847     A.U. after    8 cycles
 Optimization completed.
    -- Stationary point found.
 Normal termination of Gaussian 09 at Fri Aug 26 12:31:18 2022.

 ----------------------------------------------------------
 #P Geom=AllCheck Guess=TCheck SCRF=Check B3LYP/GTBas3 Freq
 ----------------------------------------------------------

 Structure from the checkpoint file:  "G4.Frag_880.chk"
 --------
 Frag_880
 --------
 Charge =  0 Multiplicity = 1

 SCF Done:  E(RB3LYP) =  -155.989977847     A.U. after    1 cycles

  Exact polarizability:  72.764   7.977  32.685   0.000  -0.001  30.066
 Approx polarizability: 107.372  17.662  47.311   0.002  -0.001  42.146

                      1                      2                      3
                      A                      A                      A
 Frequencies --    174.4728               212.7289               351.0165
 Red. masses --      1.1204                 3.0177                 2.0377
 Frc consts  --      0.0201                 0.0805                 0.1479
 IR Inten    --      0.5866                 0.6571                 4.4030

                      4                      5                      6
                      A                      A                      A
 Frequencies --    541.9379               575.8833               872.8809
 Red. masses --      1.3415                 3.6971                 1.3971
 Frc consts  --      0.2321                 0.7224                 0.6272
 IR Inten    --      3.7128                 5.9494                39.4287

                      7                      8                      9
                      A                      A                      A
 Frequencies --    880.9726               902.2801              1024.1533
 Red. masses --      2.0435                 1.0775                 1.5300
 Frc consts  --      0.9344                 0.5168                 0.9455
 IR Inten    --      9.2491                13.0113                 0.1738

                     10                     11                     12
                      A                      A                      A
 Frequencies --   1059.8011              1091.4728              1155.1687
 Red. masses --      1.4336                 1.8363                 1.6820
 Frc consts  --      0.9487                 1.2889                 1.3224
 IR Inten    --      0.4241                 2.7950                 0.0321

                     13                     14                     15
                      A                      A                      A
 Frequencies --   1365.2034              1405.5134              1476.3462
 Red. masses --      1.4087                 1.2357                 1.2294
 Frc consts  --      1.5470                 1.4383                 1.5787
 IR Inten    --      8.1022                 3.5261                 5.6059

                     16                     17                     18
                      A                      A                      A
 Frequencies --   1483.9554              1506.1401              2078.3515
 Red. masses --      1.0444                 1.2581                10.0036
 Frc consts  --      1.3550                 1.6814                25.4591
 IR Inten    --      4.4662                 2.0891                29.3228

                     19                     20                     21
                      A                      A                      A
 Frequencies --   3025.8968              3076.4278              3118.2269
 Red. masses --      1.0371                 1.1000                 1.0894
 Frc consts  --      5.5949                 6.1339                 6.2411
 IR Inten    --     34.5085                21.3003                 0.1514

                     22                     23                     24
                      A                      A                      A
 Frequencies --   3125.1724              3133.7548              3194.3730
 Red. masses --      1.0603                 1.0951                 1.1135
 Frc consts  --      6.1015                 6.3365                 6.6944
 IR Inten    --      6.8841                21.5335                 4.1239

 - Thermochemistry -
 -------------------
 Temperature   298.150 Kelvin.  Pressure   1.00000 Atm.
 Atom     1 has atomic number  6 and mass  12.00000

 Molecular mass:    54.04695 amu.
 Principal axes and moments of inertia in atomic units:
                           1         2         3
     Eigenvalues --    52.11056 430.41163 459.03151
           X            1.00000   0.00165  -0.00000
           Y           -0.00165   1.00000  -0.00000
           Z            0.00000   0.00000   1.00000
 This molecule is an asymmetric top.
 Rotational symmetry number  1.
 Rotational temperatures (Kelvin)      1.66212     0.20123     0.18869
 Rotational constants (GHZ):          34.63293     4.19306     3.93163
 Zero-point vibrational energy     220305.1 (Joules/Mol)
                                   52.65417 (Kcal/Mol)
 Warning -- explicit consideration of   5 degrees of freedom as
           vibrations may cause significant error
 Vibrational temperatures:    251.03   306.07   505.03   779.73   828.57
          (Kelvin)           1255.88  1267.52  1298.18  1473.53  1524.82
                             1570.38  1662.03  1964.22  2022.22  2124.13
                             2135.08  2167.00  2990.28  4353.59  4426.29
                             4486.43  4496.42  4508.77  4595.98

 Zero-point correction=                           0.083910 (Hartree/Particle)
 Thermal correction to Energy=                    0.088926
 Thermal correction to Enthalpy=                  0.089870
 Thermal correction to Gibbs Free Energy=         0.057016
 Sum of electronic and zero-point Energies=           -155.906068
 Sum of electronic and thermal Energies=              -155.901052
 Sum of electronic and thermal Enthalpies=            -155.900108
 Sum of electronic and thermal Free Energies=         -155.932962

                     E (Thermal)             CV                S
                      KCal/Mol        Cal/Mol-Kelvin    Cal/Mol-Kelvin
 Total                   55.802             16.690             69.147
 Electronic               0.000              0.000              0.000
 Translational            0.889              2.981             37.884
 Rotational               0.889              2.981             23.847
 Vibrational             54.024             10.728              7.416
 Vibration     1          0.627              1.874              2.387
 Vibration     2          0.644              1.822              2.020
 Vibration     3          0.728              1.573              1.162
 Vibration     4          0.897              1.157              0.561
 Vibration     5          0.932              1.083              0.493

 Optimization completed.
    -- Stationary point found.
 Normal termination of Gaussian 09 at Fri Aug 26 12:31:32 2022.

 -----------------------------------------------------------------
 #P Geom=AllCheck Guess=TCheck SCRF=Check CCSD(T,E4T,FrzG4)/GTBas1
 -----------------------------------------------------------------

 Structure from the checkpoint file:  "G4.Frag_880.chk"
 --------
 Frag_880
 --------
 Charge =  0 Multiplicity = 1

 SCF Done:  E(RHF) =  -154.898799557     A.U. after   12 cycles
 E2 =    -0.5045182622D+00 EUMP2 =    -0.15540331781954D+03
 CCSD(T)
 CCSD(T)= -0.15546711089D+03
 149\MP4SDTQ=-155.4649433\MP4SDQ=-155.445377\CCSD=-155.4466727\CCSD(T)=
 Normal termination of Gaussian 09 at Fri Aug 26 12:31:53 2022.

 ---------------------------------------------------------
 #P Geom=AllCheck Guess=TCheck SCRF=Check MP4=FrzG4/GTBas2
 ---------------------------------------------------------

 Structure from the checkpoint file:  "G4.Frag_880.chk"
 --------
 Frag_880
 --------
 Charge =  0 Multiplicity = 1

 SCF Done:  E(RHF) =  -154.904184864     A.U. after   13 cycles
 E2 =    -0.5088579206D+00 EUMP2 =    -0.15541304278448D+03
 Normal termination of Gaussian 09 at Fri Aug 26 12:32:00 2022.

 ---------------------------------------------------------
 #P Geom=AllCheck Guess=TCheck SCRF=Check MP4=FrzG4/GTBas3
 ---------------------------------------------------------

 Structure from the checkpoint file:  "G4.Frag_880.chk"
 --------
 Frag_880
 --------
 Charge =  0 Multiplicity = 1

 SCF Done:  E(RHF) =  -154.919266618     A.U. after   10 cycles
 E2 =    -0.6160954902D+00 EUMP2 =    -0.15553536210859D+03
 Normal termination of Gaussian 09 at Fri Aug 26 12:32:27 2022.

 -----------------------------------------------------------
 #P Geom=AllCheck Guess=TCheck SCRF=Check MP2=Full/GTLargeXP
 -----------------------------------------------------------

 Structure from the checkpoint file:  "G4.Frag_880.chk"
 --------
 Frag_880
 --------
 Charge =  0 Multiplicity = 1

 SCF Done:  E(RHF) =  -154.953612029     A.U. after   12 cycles
 E2 =    -0.8217113857D+00 EUMP2 =    -0.15577532341449D+03
 Normal termination of Gaussian 09 at Fri Aug 26 12:32:48 2022.
 SCF Done:  E(RHF) =  -154.966045180     A.U. after    8 cycles
 Normal termination of Gaussian 09 at Fri Aug 26 12:33:15 2022.

                         Standard orientation:
 ---------------------------------------------------------------------
 Center     Atomic      Atomic             Coordinates (Angstroms)
 Number     Number       Type             X           Y           Z
 ---------------------------------------------------------------------
      1          6           0       -1.935507   -0.213408    0.000003
      2          6           0       -0.692136    0.173934   -0.000096
      3          6           0        0.552840    0.559587    0.000037
      4          6           0        1.744510   -0.365140    0.000005
      5          1           0       -2.481244   -0.382396   -0.924633
      6          1           0       -2.480753   -0.382546    0.924985
      7          1           0        0.763127    1.628975    0.000124
      8          1           0        1.434147   -1.412129   -0.000642
      9          1           0        2.373468   -0.190441   -0.880943
     10          1           0        2.373009   -0.191300    0.881413
 ---------------------------------------------------------------------

 SCF Done:  E(RHF) =  -154.968471406     A.U. after    7 cycles

 The electronic state is 1-A.
 Alpha  occ. eigenvalues --  -11.24803 -11.23924 -11.23031 -11.22853  -1.08600
 Alpha  occ. eigenvalues --   -0.99807  -0.89083  -0.70226  -0.63916  -0.60297
 Alpha  occ. eigenvalues --   -0.57229  -0.56718  -0.52738  -0.37260  -0.36055
 Alpha virt. eigenvalues --    0.04137   0.04407   0.04822   0.05631   0.06726
 Alpha virt. eigenvalues --    0.07295   0.07448   0.08991   0.09213   0.10184
 Alpha virt. eigenvalues --    0.10857   0.11484   0.13846   0.15279   0.16268

 Mulliken charges:
               1
     1  C   -0.516190
     2  C    0.137694
     3  C   -0.262581
     4  C   -0.494810
     5  H    0.200674
     6  H    0.200670
     7  H    0.208872
     8  H    0.176253
     9  H    0.174696
    10  H    0.174723
 Sum of Mulliken charges =  -0.00000

 Dipole moment (field-independent basis, Debye):
    X=              0.4620    Y=             -0.0522    Z=              0.0002  Tot=              0.4649
 Quadrupole moment (field-independent basis, Debye-Ang):
   XX=            -22.7265   YY=            -26.1560   ZZ=            -26.1024
   XY=              1.3498   XZ=              0.0005   YZ=             -0.0000

 Normal termination of Gaussian 09 at Fri Aug 26 12:35:47 2022.
