 Gaussian 09, Revision E.01,
 Gaussian 09:  ES64L-G09RevE.01 30-Nov-2015

 -----
 #P G4
 -----

 --------
 Frag_900
 --------
 Symbolic Z-matrix:
 Charge =  0 Multiplicity = 1

 SCF Done:  E(RB3LYP) =  -363.019784514     A.U. after   13 cycles
 SCF Done:  E(RB3LYP) =  -363.036778711     A.U. after   12 cycles
 SCF Done:  E(RB3LYP) =  -363.039609464     A.U. after   12 cycles
 SCF Done:  E(RB3LYP) =  -363.040914943     A.U. after   12 cycles
 SCF Done:  E(RB3LYP) =  -363.041202698     A.U. after   11 cycles
 SCF Done:  E(RB3LYP) =  -363.041265871     A.U. after   10 cycles
 SCF Done:  E(RB3LYP) =  -363.041296873     A.U. after    9 cycles
 SCF Done:  E(RB3LYP) =  -363.041327990     A.U. after    9 cycles
 SCF Done:  E(RB3LYP) =  -363.041346536     A.U. after    9 cycles
 SCF Done:  E(RB3LYP) =  -363.041348810     A.U. after    8 cycles
 SCF Done:  E(RB3LYP) =  -363.041349221     A.U. after    7 cycles
 Optimization completed.
    -- Stationary point found.
 Normal termination of Gaussian 09 at Fri Aug 26 08:11:46 2022.

 ----------------------------------------------------------
 #P Geom=AllCheck Guess=TCheck SCRF=Check B3LYP/GTBas3 Freq
 ----------------------------------------------------------

 Structure from the checkpoint file:  "G4.Frag_900.chk"
 --------
 Frag_900
 --------
 Charge =  0 Multiplicity = 1

 SCF Done:  E(RB3LYP) =  -363.041349221     A.U. after    1 cycles

  Exact polarizability:  64.256   6.390  63.051   0.597   1.684  48.748
 Approx polarizability:  87.245  10.250  98.984   3.339   3.985  69.574

                      1                      2                      3
                      A                      A                      A
 Frequencies --     75.7779               211.1826               231.9878
 Red. masses --      4.2201                 1.1429                 1.3967
 Frc consts  --      0.0143                 0.0300                 0.0443
 IR Inten    --      2.5452                 7.2752                22.3991

                      4                      5                      6
                      A                      A                      A
 Frequencies --    253.1542               276.2341               312.0324
 Red. masses --      1.7217                 2.8018                 1.0941
 Frc consts  --      0.0650                 0.1260                 0.0628
 IR Inten    --      3.4695                13.9689               112.7566

                      7                      8                      9
                      A                      A                      A
 Frequencies --    360.5211               388.5741               428.8899
 Red. masses --      2.6116                 3.6207                 1.4403
 Frc consts  --      0.2000                 0.3221                 0.1561
 IR Inten    --      6.4245                 1.5698                46.8813

                     10                     11                     12
                      A                      A                      A
 Frequencies --    449.3143               525.8727               542.1475
 Red. masses --      1.9761                 3.0008                 3.3586
 Frc consts  --      0.2351                 0.4889                 0.5816
 IR Inten    --     47.5813                14.0575                 6.5378

                     13                     14                     15
                      A                      A                      A
 Frequencies --    680.0946               718.3952               744.9997
 Red. masses --      2.7420                 3.5782                 1.2480
 Frc consts  --      0.7472                 1.0880                 0.4081
 IR Inten    --     11.2025                 8.5309                 2.4974

                     16                     17                     18
                      A                      A                      A
 Frequencies --    832.1615               902.1604               919.7710
 Red. masses --      1.4027                 1.7279                 2.1626
 Frc consts  --      0.5723                 0.8286                 1.0779
 IR Inten    --     46.5613               100.6119                60.7245

                     19                     20                     21
                      A                      A                      A
 Frequencies --    969.2502               994.4153              1047.6658
 Red. masses --      1.8733                 1.4032                 2.1717
 Frc consts  --      1.0369                 0.8175                 1.4044
 IR Inten    --     10.5629                27.8527                69.8949

                     22                     23                     24
                      A                      A                      A
 Frequencies --   1119.9123              1142.8605              1215.4704
 Red. masses --      1.7352                 2.0084                 1.9151
 Frc consts  --      1.2823                 1.5455                 1.6670
 IR Inten    --     12.7649               219.1760                69.4772

                     25                     26                     27
                      A                      A                      A
 Frequencies --   1332.9550              1368.2212              1373.9595
 Red. masses --      1.8973                 2.0732                 1.5343
 Frc consts  --      1.9862                 2.2867                 1.7065
 IR Inten    --      3.6969                 7.9429                53.5291

                     28                     29                     30
                      A                      A                      A
 Frequencies --   1400.9473              1440.1500              1482.8184
 Red. masses --      1.3938                 1.2014                 1.0604
 Frc consts  --      1.6117                 1.4681                 1.3738
 IR Inten    --     17.6838                17.4156                 3.0774

                     31                     32                     33
                      A                      A                      A
 Frequencies --   1491.9264              1647.2625              1714.1461
 Red. masses --      1.0645                 1.1030                 6.2056
 Frc consts  --      1.3961                 1.7634                10.7432
 IR Inten    --      1.7479                30.0782               103.5416

                     34                     35                     36
                      A                      A                      A
 Frequencies --   3043.3289              3118.4178              3147.0963
 Red. masses --      1.0381                 1.0967                 1.1035
 Frc consts  --      5.6651                 6.2833                 6.4392
 IR Inten    --     14.4828                18.8299                10.4095

                     37                     38                     39
                      A                      A                      A
 Frequencies --   3154.1799              3265.2387              3484.4287
 Red. masses --      1.0665                 1.1084                 1.0500
 Frc consts  --      6.2515                 6.9625                 7.5108
 IR Inten    --     10.0624                 2.8387                 0.8974

                     40                     41                     42
                      A                      A                      A
 Frequencies --   3570.1278              3807.6268              3824.3105
 Red. masses --      1.0906                 1.0656                 1.0657
 Frc consts  --      8.1903                 9.1025                 9.1831
 IR Inten    --      2.4506                27.7895                19.6756

 - Thermochemistry -
 -------------------
 Temperature   298.150 Kelvin.  Pressure   1.00000 Atm.
 Atom     1 has atomic number  6 and mass  12.00000

 Molecular mass:   103.06333 amu.
 Principal axes and moments of inertia in atomic units:
                           1         2         3
     Eigenvalues --   532.85624 748.29290 908.75515
           X            0.99517   0.09433  -0.02705
           Y           -0.09451   0.99551  -0.00535
           Z            0.02643   0.00788   0.99962
 This molecule is an asymmetric top.
 Rotational symmetry number  1.
 Warning -- assumption of classical behavior for rotation
           may cause significant error
 Rotational temperatures (Kelvin)      0.16255     0.11575     0.09531
 Rotational constants (GHZ):           3.38692     2.41181     1.98595
 Zero-point vibrational energy     352958.1 (Joules/Mol)
                                   84.35901 (Kcal/Mol)
 Warning -- explicit consideration of  12 degrees of freedom as
           vibrations may cause significant error
 Vibrational temperatures:    109.03   303.84   333.78   364.23   397.44
          (Kelvin)            448.94   518.71   559.07   617.08   646.46
                              756.61   780.03   978.50  1033.61  1071.89
                             1197.29  1298.01  1323.34  1394.53  1430.74
                             1507.36  1611.30  1644.32  1748.79  1917.82
                             1968.56  1976.82  2015.65  2072.05  2133.44
                             2146.55  2370.04  2466.27  4378.67  4486.70
                             4527.96  4538.16  4697.94  5013.31  5136.61
                             5478.32  5502.32

 Zero-point correction=                           0.134435 (Hartree/Particle)
 Thermal correction to Energy=                    0.142781
 Thermal correction to Enthalpy=                  0.143725
 Thermal correction to Gibbs Free Energy=         0.102612
 Sum of electronic and zero-point Energies=           -362.906915
 Sum of electronic and thermal Energies=              -362.898568
 Sum of electronic and thermal Enthalpies=            -362.897624
 Sum of electronic and thermal Free Energies=         -362.938737

                     E (Thermal)             CV                S
                      KCal/Mol        Cal/Mol-Kelvin    Cal/Mol-Kelvin
 Total                   89.596             31.441             86.530
 Electronic               0.000              0.000              0.000
 Translational            0.889              2.981             39.808
 Rotational               0.889              2.981             27.385
 Vibrational             87.819             25.479             19.337
 Vibration     1          0.599              1.965              3.997
 Vibration     2          0.643              1.824              2.033
 Vibration     3          0.653              1.792              1.864
 Vibration     4          0.664              1.757              1.709
 Vibration     5          0.678              1.717              1.557
 Vibration     6          0.700              1.651              1.352
 Vibration     7          0.735              1.554              1.120
 Vibration     8          0.757              1.495              1.006
 Vibration     9          0.790              1.407              0.862
 Vibration    10          0.808              1.362              0.798
 Vibration    11          0.881              1.193              0.596
 Vibration    12          0.897              1.157              0.561

 Normal termination of Gaussian 09 at Fri Aug 26 08:12:33 2022.

 -----------------------------------------------------------------
 #P Geom=AllCheck Guess=TCheck SCRF=Check CCSD(T,E4T,FrzG4)/GTBas1
 -----------------------------------------------------------------

 Structure from the checkpoint file:  "G4.Frag_900.chk"
 --------
 Frag_900
 --------
 Charge =  0 Multiplicity = 1

 SCF Done:  E(RHF) =  -360.840836840     A.U. after   12 cycles
 E2 =    -0.1039950236D+01 EUMP2 =    -0.36188078707549D+03
 CCSD(T)
 CCSD(T)= -0.36196701613D+03
 SDTQ=-361.9675499\MP4SDQ=-361.9346446\CCSD=-361.9346662\CCSD(T)=-361.9
 Normal termination of Gaussian 09 at Fri Aug 26 08:16:39 2022.

 ---------------------------------------------------------
 #P Geom=AllCheck Guess=TCheck SCRF=Check MP4=FrzG4/GTBas2
 ---------------------------------------------------------

 Structure from the checkpoint file:  "G4.Frag_900.chk"
 --------
 Frag_900
 --------
 Charge =  0 Multiplicity = 1

 SCF Done:  E(RHF) =  -360.854275089     A.U. after   12 cycles
 E2 =    -0.1057389369D+01 EUMP2 =    -0.36191166445833D+03
 Normal termination of Gaussian 09 at Fri Aug 26 08:18:00 2022.

 ---------------------------------------------------------
 #P Geom=AllCheck Guess=TCheck SCRF=Check MP4=FrzG4/GTBas3
 ---------------------------------------------------------

 Structure from the checkpoint file:  "G4.Frag_900.chk"
 --------
 Frag_900
 --------
 Charge =  0 Multiplicity = 1

 SCF Done:  E(RHF) =  -360.893908971     A.U. after   11 cycles
 E2 =    -0.1281795212D+01 EUMP2 =    -0.36217570418311D+03
 Normal termination of Gaussian 09 at Fri Aug 26 08:28:08 2022.

 -----------------------------------------------------------
 #P Geom=AllCheck Guess=TCheck SCRF=Check MP2=Full/GTLargeXP
 -----------------------------------------------------------

 Structure from the checkpoint file:  "G4.Frag_900.chk"
 --------
 Frag_900
 --------
 Charge =  0 Multiplicity = 1

 SCF Done:  E(RHF) =  -360.990855293     A.U. after   12 cycles
 E2 =    -0.1678317398D+01 EUMP2 =    -0.36266917269143D+03
 Normal termination of Gaussian 09 at Fri Aug 26 08:32:03 2022.
 SCF Done:  E(RHF) =  -361.019714766     A.U. after    9 cycles
 Normal termination of Gaussian 09 at Fri Aug 26 08:35:44 2022.

                         Standard orientation:
 ---------------------------------------------------------------------
 Center     Atomic      Atomic             Coordinates (Angstroms)
 Number     Number       Type             X           Y           Z
 ---------------------------------------------------------------------
      1          6           0       -1.730441   -1.087561   -0.100907
      2          6           0       -0.929608   -0.024471   -0.040918
      3          8           0       -1.367599    1.270972    0.011841
      4          6           0        0.600232   -0.068447    0.025117
      5          6           0        1.219022    0.829830   -1.054399
      6          7           0        1.091074    0.361007    1.333998
      7          8           0        1.056471   -1.401675   -0.105625
      8          1           0       -2.811730   -0.989885   -0.116191
      9          1           0       -1.315953   -2.084707   -0.102684
     10          1           0       -2.331115    1.275608    0.028567
     11          1           0        0.903991    0.503203   -2.051441
     12          1           0        0.907425    1.869202   -0.930950
     13          1           0        2.305763    0.764099   -0.975832
     14          1           0        0.726206   -0.283126    2.032196
     15          1           0        0.691898    1.271637    1.543971
     16          1           0        0.819785   -1.703555   -0.988709
 ---------------------------------------------------------------------

 SCF Done:  E(RHF) =  -361.025979132     A.U. after    8 cycles

 The electronic state is 1-A.
 Alpha  occ. eigenvalues --  -20.59667 -20.56007 -15.54155 -11.32635 -11.30394
 Alpha  occ. eigenvalues --  -11.21615 -11.21615  -1.41614  -1.37928  -1.17769
 Alpha  occ. eigenvalues --   -1.03695  -0.98813  -0.86463  -0.79470  -0.70641
 Alpha  occ. eigenvalues --   -0.69300  -0.67146  -0.62947  -0.59916  -0.59402
 Alpha  occ. eigenvalues --   -0.58153  -0.55552  -0.53836  -0.52417  -0.51035
 Alpha  occ. eigenvalues --   -0.46597  -0.40604  -0.35240
 Alpha virt. eigenvalues --    0.03036   0.04212   0.04571   0.05457   0.06282
 Alpha virt. eigenvalues --    0.06925   0.07185   0.07328   0.07437   0.09531
 Alpha virt. eigenvalues --    0.09763   0.09947   0.11508   0.12370   0.13554

 Mulliken charges:
               1
     1  C   -0.558201
     2  C    0.262716
     3  O   -0.583003
     4  C    0.501506
     5  C   -0.581754
     6  N   -0.725302
     7  O   -0.612360
     8  H    0.156599
     9  H    0.209316
    10  H    0.390475
    11  H    0.164798
    12  H    0.194535
    13  H    0.199303
    14  H    0.301036
    15  H    0.310215
    16  H    0.370120
 Sum of Mulliken charges =  -0.00000

 Dipole moment (field-independent basis, Debye):
    X=             -2.8501    Y=              0.5358    Z=             -0.9996  Tot=              3.0674
 Quadrupole moment (field-independent basis, Debye-Ang):
   XX=            -42.7549   YY=            -43.1981   ZZ=            -41.6149
   XY=             -0.0965   XZ=             -3.3604   YZ=              2.4997

 Normal termination of Gaussian 09 at Fri Aug 26 08:47:21 2022.
