 Gaussian 09, Revision E.01,
 Gaussian 09:  ES64L-G09RevE.01 30-Nov-2015

 -----
 #P G4
 -----

 --------
 Frag_679
 --------
 Symbolic Z-matrix:
 Charge =  0 Multiplicity = 1

 SCF Done:  E(RB3LYP) =  -323.684720139     A.U. after   14 cycles
 SCF Done:  E(RB3LYP) =  -323.709775754     A.U. after   12 cycles
 SCF Done:  E(RB3LYP) =  -323.714436854     A.U. after   12 cycles
 SCF Done:  E(RB3LYP) =  -323.717332940     A.U. after   11 cycles
 SCF Done:  E(RB3LYP) =  -323.719836242     A.U. after   12 cycles
 SCF Done:  E(RB3LYP) =  -323.721514500     A.U. after   11 cycles
 SCF Done:  E(RB3LYP) =  -323.723427117     A.U. after   12 cycles
 SCF Done:  E(RB3LYP) =  -323.726567240     A.U. after   13 cycles
 SCF Done:  E(RB3LYP) =  -323.728761042     A.U. after   12 cycles
 SCF Done:  E(RB3LYP) =  -323.730292430     A.U. after   11 cycles
 SCF Done:  E(RB3LYP) =  -323.731032851     A.U. after    7 cycles
 SCF Done:  E(RB3LYP) =  -323.731033203     A.U. after    9 cycles
 SCF Done:  E(RB3LYP) =  -323.731033206     A.U. after    6 cycles
 Optimization completed.
    -- Stationary point found.
 Normal termination of Gaussian 09 at Thu Aug 25 11:36:48 2022.

 ----------------------------------------------------------
 #P Geom=AllCheck Guess=TCheck SCRF=Check B3LYP/GTBas3 Freq
 ----------------------------------------------------------

 Structure from the checkpoint file:  "G4.Frag_679.chk"
 --------
 Frag_679
 --------
 Charge =  0 Multiplicity = 1

 SCF Done:  E(RB3LYP) =  -323.731033206     A.U. after    1 cycles

  Exact polarizability:  65.298   0.864  50.345   1.216   0.081  31.985
 Approx polarizability:  97.290   3.043  69.406   2.653  -0.228  48.043

                      1                      2                      3
                      A                      A                      A
 Frequencies --     76.2488               173.1255               220.8525
 Red. masses --      1.3001                 1.2881                 1.7002
 Frc consts  --      0.0045                 0.0227                 0.0489
 IR Inten    --     18.1697                 3.9856                 2.7250

                      4                      5                      6
                      A                      A                      A
 Frequencies --    253.8532               303.4516               331.9276
 Red. masses --      2.6722                 2.7034                 1.3503
 Frc consts  --      0.1015                 0.1467                 0.0877
 IR Inten    --      1.6705                18.2421                58.3350

                      7                      8                      9
                      A                      A                      A
 Frequencies --    384.5378               476.3560               572.6672
 Red. masses --      3.2562                 3.3056                 4.4779
 Frc consts  --      0.2837                 0.4419                 0.8652
 IR Inten    --     44.0584                 0.8769                11.0744

                     10                     11                     12
                      A                      A                      A
 Frequencies --    592.9670               628.8378               739.6848
 Red. masses --      1.2925                 2.1020                 2.9258
 Frc consts  --      0.2678                 0.4897                 0.9432
 IR Inten    --     96.1413                58.9899               126.0423

                     13                     14                     15
                      A                      A                      A
 Frequencies --    758.7013               966.2346              1054.4246
 Red. masses --      2.5222                 2.0168                 1.3374
 Frc consts  --      0.8554                 1.1094                 0.8761
 IR Inten    --    114.3893                11.7038                 3.8337

                     16                     17                     18
                      A                      A                      A
 Frequencies --   1072.5475              1169.5914              1233.5928
 Red. masses --      1.7181                 1.7094                 2.2537
 Frc consts  --      1.1645                 1.3777                 2.0206
 IR Inten    --     60.3951               132.0104                37.6478

                     19                     20                     21
                      A                      A                      A
 Frequencies --   1248.3157              1344.9074              1411.8775
 Red. masses --      1.7628                 1.8634                 1.3595
 Frc consts  --      1.6185                 1.9858                 1.5967
 IR Inten    --     25.3663               142.5097                19.2310

                     22                     23                     24
                      A                      A                      A
 Frequencies --   1441.0846              1471.0838              1499.4863
 Red. masses --      2.1381                 1.0445                 1.0652
 Frc consts  --      2.6161                 1.3318                 1.4111
 IR Inten    --     14.0641                 5.2646                14.4130

                     25                     26                     27
                      A                      A                      A
 Frequencies --   1642.7447              1796.9655              2985.3317
 Red. masses --      1.1462                 6.7580                 1.0510
 Frc consts  --      1.8225                12.8573                 5.5186
 IR Inten    --     59.8599               160.0719                69.2643

                     28                     29                     30
                      A                      A                      A
 Frequencies --   3040.1616              3104.2785              3555.2123
 Red. masses --      1.0872                 1.0951                 1.0481
 Frc consts  --      5.9202                 6.2174                 7.8055
 IR Inten    --     29.5889                21.4008                14.3687

                     31                     32                     33
                      A                      A                      A
 Frequencies --   3651.7984              3727.7158              3752.5076
 Red. masses --      1.0956                 1.0637                 1.0666
 Frc consts  --      8.6084                 8.7086                 8.8489
 IR Inten    --     15.6430                65.7902                11.6559

 - Thermochemistry -
 -------------------
 Temperature   298.150 Kelvin.  Pressure   1.00000 Atm.
 Atom     1 has atomic number  6 and mass  12.00000

 Molecular mass:    89.04768 amu.
 Principal axes and moments of inertia in atomic units:
                           1         2         3
     Eigenvalues --   361.41626 549.98624 893.09846
           X            0.99941  -0.03431   0.00028
           Y            0.03431   0.99941  -0.00045
           Z           -0.00026   0.00046   1.00000
 This molecule is an asymmetric top.
 Rotational symmetry number  1.
 Rotational temperatures (Kelvin)      0.23965     0.15748     0.09698
 Rotational constants (GHZ):           4.99353     3.28143     2.02076
 Zero-point vibrational energy     279226.8 (Joules/Mol)
                                   66.73680 (Kcal/Mol)
 Warning -- explicit consideration of  10 degrees of freedom as
           vibrations may cause significant error
 Vibrational temperatures:    109.70   249.09   317.76   365.24   436.60
          (Kelvin)            477.57   553.26   685.37   823.94   853.15
                              904.76  1064.24  1091.60  1390.19  1517.08
                             1543.15  1682.78  1774.86  1796.05  1935.02
                             2031.37  2073.40  2116.56  2157.42  2363.54
                             2585.43  4295.22  4374.11  4466.36  5115.15
                             5254.12  5363.34  5399.01

 Zero-point correction=                           0.106352 (Hartree/Particle)
 Thermal correction to Energy=                    0.113801
 Thermal correction to Enthalpy=                  0.114745
 Thermal correction to Gibbs Free Energy=         0.075401
 Sum of electronic and zero-point Energies=           -323.624681
 Sum of electronic and thermal Energies=              -323.617232
 Sum of electronic and thermal Enthalpies=            -323.616288
 Sum of electronic and thermal Free Energies=         -323.655633

                     E (Thermal)             CV                S
                      KCal/Mol        Cal/Mol-Kelvin    Cal/Mol-Kelvin
 Total                   71.411             26.214             82.808
 Electronic               0.000              0.000              0.000
 Translational            0.889              2.981             39.372
 Rotational               0.889              2.981             26.676
 Vibrational             69.634             20.252             16.760
 Vibration     1          0.599              1.965              3.985
 Vibration     2          0.627              1.876              2.401
 Vibration     3          0.648              1.809              1.952
 Vibration     4          0.665              1.756              1.704
 Vibration     5          0.695              1.667              1.398
 Vibration     6          0.714              1.612              1.251
 Vibration     7          0.753              1.503              1.021
 Vibration     8          0.833              1.303              0.720
 Vibration     9          0.929              1.090              0.499
 Vibration    10          0.951              1.047              0.462

 Optimization completed.
    -- Stationary point found.
 Normal termination of Gaussian 09 at Thu Aug 25 11:38:47 2022.

 -----------------------------------------------------------------
 #P Geom=AllCheck Guess=TCheck SCRF=Check CCSD(T,E4T,FrzG4)/GTBas1
 -----------------------------------------------------------------

 Structure from the checkpoint file:  "G4.Frag_679.chk"
 --------
 Frag_679
 --------
 Charge =  0 Multiplicity = 1

 SCF Done:  E(RHF) =  -321.808776197     A.U. after   12 cycles
 E2 =    -0.9061255968D+00 EUMP2 =    -0.32271490179360D+03
 CCSD(T)
 CCSD(T)= -0.32278416573D+03
 MP4SDTQ=-322.7849484\MP4SDQ=-322.7570662\CCSD=-322.7569444\CCSD(T)=-32
 Normal termination of Gaussian 09 at Thu Aug 25 11:44:07 2022.

 ---------------------------------------------------------
 #P Geom=AllCheck Guess=TCheck SCRF=Check MP4=FrzG4/GTBas2
 ---------------------------------------------------------

 Structure from the checkpoint file:  "G4.Frag_679.chk"
 --------
 Frag_679
 --------
 Charge =  0 Multiplicity = 1

 SCF Done:  E(RHF) =  -321.821058850     A.U. after   12 cycles
 E2 =    -0.9217850244D+00 EUMP2 =    -0.32274284387393D+03
 Normal termination of Gaussian 09 at Thu Aug 25 11:49:26 2022.

 ---------------------------------------------------------
 #P Geom=AllCheck Guess=TCheck SCRF=Check MP4=FrzG4/GTBas3
 ---------------------------------------------------------

 Structure from the checkpoint file:  "G4.Frag_679.chk"
 --------
 Frag_679
 --------
 Charge =  0 Multiplicity = 1

 SCF Done:  E(RHF) =  -321.857224544     A.U. after   11 cycles
 E2 =    -0.1115087876D+01 EUMP2 =    -0.32297231242020D+03
 Normal termination of Gaussian 09 at Thu Aug 25 14:06:22 2022.

 -----------------------------------------------------------
 #P Geom=AllCheck Guess=TCheck SCRF=Check MP2=Full/GTLargeXP
 -----------------------------------------------------------

 Structure from the checkpoint file:  "G4.Frag_679.chk"
 --------
 Frag_679
 --------
 Charge =  0 Multiplicity = 1

 SCF Done:  E(RHF) =  -321.946062886     A.U. after   12 cycles
 E2 =    -0.1459867538D+01 EUMP2 =    -0.32340593042452D+03
 Normal termination of Gaussian 09 at Thu Aug 25 14:11:31 2022.
 SCF Done:  E(RHF) =  -321.972324392     A.U. after    9 cycles
 Normal termination of Gaussian 09 at Thu Aug 25 14:16:39 2022.

                         Standard orientation:
 ---------------------------------------------------------------------
 Center     Atomic      Atomic             Coordinates (Angstroms)
 Number     Number       Type             X           Y           Z
 ---------------------------------------------------------------------
      1          6           0       -1.610656    1.128075    0.037068
      2          6           0       -0.652167   -0.014754   -0.009308
      3          8           0       -1.198618   -1.311339    0.056783
      4          6           0        0.690153    0.042217   -0.002034
      5          7           0        1.487284    1.188562    0.061412
      6          8           0        1.444008   -1.089751    0.020219
      7          1           0       -1.090433    2.082763    0.157784
      8          1           0       -2.228523    1.201810   -0.871239
      9          1           0       -2.301554    1.023840    0.883554
     10          1           0       -1.670573   -1.488384   -0.765962
     11          1           0        2.432245    0.981314   -0.234702
     12          1           0        1.117478    1.967398   -0.464588
     13          1           0        0.803269   -1.813179    0.094892
 ---------------------------------------------------------------------

 SCF Done:  E(RHF) =  -321.978018858     A.U. after    8 cycles

 The electronic state is 1-A.
 Alpha  occ. eigenvalues --  -20.57959 -20.57281 -15.56623 -11.32073 -11.25496
 Alpha  occ. eigenvalues --  -11.22694  -1.41556  -1.36752  -1.20329  -1.02610
 Alpha  occ. eigenvalues --   -0.92051  -0.80162  -0.73208  -0.66949  -0.66293
 Alpha  occ. eigenvalues --   -0.63949  -0.59458  -0.58847  -0.56472  -0.54828
 Alpha  occ. eigenvalues --   -0.53408  -0.48659  -0.46426  -0.29684
 Alpha virt. eigenvalues --    0.03671   0.04387   0.04700   0.05958   0.06745
 Alpha virt. eigenvalues --    0.07087   0.07805   0.08744   0.09509   0.10154
 Alpha virt. eigenvalues --    0.11725   0.12708   0.13412   0.14859   0.15511

 Mulliken charges:
               1
     1  C   -0.494369
     2  C    0.079419
     3  O   -0.608172
     4  C    0.387507
     5  N   -0.713733
     6  O   -0.593787
     7  H    0.166530
     8  H    0.161667
     9  H    0.184448
    10  H    0.376971
    11  H    0.326354
    12  H    0.308941
    13  H    0.418224
 Sum of Mulliken charges =  -0.00000

 Dipole moment (field-independent basis, Debye):
    X=             -0.8263    Y=              0.9797    Z=             -2.3162  Tot=              2.6471
 Quadrupole moment (field-independent basis, Debye-Ang):
   XX=            -35.2878   YY=            -33.1468   ZZ=            -37.4348
   XY=              1.9882   XZ=              0.3977   YZ=             -0.1675

 Normal termination of Gaussian 09 at Thu Aug 25 16:38:08 2022.
