 Gaussian 09, Revision E.01,
 Gaussian 09:  ES64L-G09RevE.01 30-Nov-2015

 -----
 #P G4
 -----

 --------
 Frag_726
 --------
 Symbolic Z-matrix:
 Charge =  0 Multiplicity = 1

 SCF Done:  E(RB3LYP) =  -303.856919033     A.U. after   14 cycles
 SCF Done:  E(RB3LYP) =  -303.871104987     A.U. after   13 cycles
 SCF Done:  E(RB3LYP) =  -303.871798522     A.U. after   11 cycles
 SCF Done:  E(RB3LYP) =  -303.872049527     A.U. after   11 cycles
 SCF Done:  E(RB3LYP) =  -303.872582595     A.U. after   13 cycles
 SCF Done:  E(RB3LYP) =  -303.872997359     A.U. after   11 cycles
 SCF Done:  E(RB3LYP) =  -303.873290115     A.U. after   11 cycles
 SCF Done:  E(RB3LYP) =  -303.873334346     A.U. after   11 cycles
 SCF Done:  E(RB3LYP) =  -303.873332479     A.U. after   10 cycles
 SCF Done:  E(RB3LYP) =  -303.873331758     A.U. after    8 cycles
 SCF Done:  E(RB3LYP) =  -303.877020481     A.U. after   12 cycles
 SCF Done:  E(RB3LYP) =  -303.877028247     A.U. after   11 cycles
 SCF Done:  E(RB3LYP) =  -303.877028478     A.U. after    7 cycles
 Optimization completed.
    -- Stationary point found.
 Normal termination of Gaussian 09 at Fri Aug 19 14:52:55 2022.

 ----------------------------------------------------------
 #P Geom=AllCheck Guess=TCheck SCRF=Check B3LYP/GTBas3 Freq
 ----------------------------------------------------------

 Structure from the checkpoint file:  "G4.Frag_726.chk"
 --------
 Frag_726
 --------
 Charge =  0 Multiplicity = 1

 SCF Done:  E(RB3LYP) =  -303.877028478     A.U. after    1 cycles

  Exact polarizability:  54.317   2.383  57.879   0.910  -1.670  38.708
 Approx polarizability:  69.490   0.170  92.028   1.209  -5.418  59.151

                      1                      2                      3
                      A                      A                      A
 Frequencies --     62.2286               243.2219               286.0674
 Red. masses --      4.1449                 1.1795                 2.5602
 Frc consts  --      0.0095                 0.0411                 0.1234
 IR Inten    --      2.6021                 1.5570                 2.4138

                      4                      5                      6
                      A                      A                      A
 Frequencies --    326.9583               367.9948               394.4380
 Red. masses --      1.5756                 1.6749                 2.7358
 Frc consts  --      0.0992                 0.1336                 0.2508
 IR Inten    --     31.7385                88.6103                18.5806

                      7                      8                      9
                      A                      A                      A
 Frequencies --    478.9075               512.1823               532.7975
 Red. masses --      2.1731                 2.8849                 1.2721
 Frc consts  --      0.2936                 0.4459                 0.2128
 IR Inten    --     44.1365                17.0903               105.4101

                     10                     11                     12
                      A                      A                      A
 Frequencies --    564.4631               702.4273               788.5444
 Red. masses --      1.3757                 3.5139                 2.6729
 Frc consts  --      0.2582                 1.0215                 0.9792
 IR Inten    --    110.9698                17.0591                 3.8437

                     13                     14                     15
                      A                      A                      A
 Frequencies --    834.2852               910.7629              1036.9433
 Red. masses --      1.1285                 2.2291                 1.5864
 Frc consts  --      0.4628                 1.0894                 1.0050
 IR Inten    --     32.2538                 9.7781                34.7486

                     16                     17                     18
                      A                      A                      A
 Frequencies --   1089.4303              1115.0929              1138.8386
 Red. masses --      1.9604                 2.0799                 1.9700
 Frc consts  --      1.3708                 1.5237                 1.5053
 IR Inten    --     11.8705                76.1911                19.4647

                     19                     20                     21
                      A                      A                      A
 Frequencies --   1159.4400              1282.4026              1328.3961
 Red. masses --      1.3847                 1.4031                 1.3931
 Frc consts  --      1.0968                 1.3595                 1.4484
 IR Inten    --    101.9920                 6.2077                24.4334

                     22                     23                     24
                      A                      A                      A
 Frequencies --   1400.0798              1419.3862              1427.0577
 Red. masses --      1.2407                 1.2188                 2.4229
 Frc consts  --      1.4329                 1.4467                 2.9072
 IR Inten    --     11.2322                46.1909                26.3760

                     25                     26                     27
                      A                      A                      A
 Frequencies --   1490.1325              1499.3776              1608.8832
 Red. masses --      1.0520                 1.0513                 1.2703
 Frc consts  --      1.3763                 1.3925                 1.9373
 IR Inten    --      2.3336                 9.7251                69.5476

                     28                     29                     30
                      A                      A                      A
 Frequencies --   1721.9046              3035.7594              3043.7989
 Red. masses --      6.4901                 1.0429                 1.0779
 Frc consts  --     11.3375                 5.6629                 5.8839
 IR Inten    --    188.8197                 5.3704                18.1386

                     31                     32                     33
                      A                      A                      A
 Frequencies --   3108.5392              3126.5309              3519.8773
 Red. masses --      1.0994                 1.1013                 1.0741
 Frc consts  --      6.2590                 6.3431                 7.8406
 IR Inten    --     21.6222                15.2655                 0.3770

                     34                     35                     36
                      A                      A                      A
 Frequencies --   3581.5925              3703.9704              3791.5907
 Red. masses --      1.0446                 1.1015                 1.0660
 Frc consts  --      7.8949                 8.9035                 9.0296
 IR Inten    --     25.3926                43.8538                17.9790

 - Thermochemistry -
 -------------------
 Temperature   298.150 Kelvin.  Pressure   1.00000 Atm.
 Atom     1 has atomic number  6 and mass  12.00000

 Molecular mass:    88.06366 amu.
 Principal axes and moments of inertia in atomic units:
                           1         2         3
     Eigenvalues --   368.85074 547.42067 854.43291
           X            0.98979   0.14252   0.00264
           Y           -0.14254   0.98976   0.00794
           Z           -0.00148  -0.00824   0.99996
 This molecule is an asymmetric top.
 Rotational symmetry number  1.
 Rotational temperatures (Kelvin)      0.23482     0.15822     0.10137
 Rotational constants (GHZ):           4.89288     3.29681     2.11221
 Zero-point vibrational energy     314823.0 (Joules/Mol)
                                   75.24451 (Kcal/Mol)
 Warning -- explicit consideration of  10 degrees of freedom as
           vibrations may cause significant error
 Vibrational temperatures:     89.53   349.94   411.59   470.42   529.46
          (Kelvin)            567.51   689.04   736.92   766.58   812.14
                             1010.63  1134.54  1200.35  1310.38  1491.93
                             1567.45  1604.37  1638.53  1668.17  1845.09
                             1911.26  2014.40  2042.18  2053.22  2143.97
                             2157.27  2314.82  2477.43  4367.78  4379.34
                             4472.49  4498.38  5064.31  5153.11  5329.18
                             5455.25

 Zero-point correction=                           0.119910 (Hartree/Particle)
 Thermal correction to Energy=                    0.126862
 Thermal correction to Enthalpy=                  0.127806
 Thermal correction to Gibbs Free Energy=         0.089456
 Sum of electronic and zero-point Energies=           -303.757119
 Sum of electronic and thermal Energies=              -303.750167
 Sum of electronic and thermal Enthalpies=            -303.749222
 Sum of electronic and thermal Free Energies=         -303.787572

                     E (Thermal)             CV                S
                      KCal/Mol        Cal/Mol-Kelvin    Cal/Mol-Kelvin
 Total                   79.607             25.638             80.714
 Electronic               0.000              0.000              0.000
 Translational            0.889              2.981             39.339
 Rotational               0.889              2.981             26.648
 Vibrational             77.830             19.676             14.727
 Vibration     1          0.597              1.972              4.385
 Vibration     2          0.659              1.774              1.779
 Vibration     3          0.684              1.700              1.497
 Vibration     4          0.711              1.622              1.275
 Vibration     5          0.741              1.538              1.088
 Vibration     6          0.761              1.482              0.983
 Vibration     7          0.835              1.297              0.713
 Vibration     8          0.867              1.223              0.628
 Vibration     9          0.888              1.177              0.581
 Vibration    10          0.920              1.108              0.515

 Optimization completed.
    -- Stationary point found.
 Normal termination of Gaussian 09 at Fri Aug 19 14:55:15 2022.

 -----------------------------------------------------------------
 #P Geom=AllCheck Guess=TCheck SCRF=Check CCSD(T,E4T,FrzG4)/GTBas1
 -----------------------------------------------------------------

 Structure from the checkpoint file:  "G4.Frag_726.chk"
 --------
 Frag_726
 --------
 Charge =  0 Multiplicity = 1

 SCF Done:  E(RHF) =  -302.000327970     A.U. after   13 cycles
 E2 =    -0.8927458395D+00 EUMP2 =    -0.30289307380985D+03
 CCSD(T)
 CCSD(T)= -0.30296857280D+03
 DQ=-302.9402205\CCSD=-302.9402724\CCSD(T)=-302.9685728\RMSD=5.195e-09\
 Normal termination of Gaussian 09 at Fri Aug 19 15:01:35 2022.

 ---------------------------------------------------------
 #P Geom=AllCheck Guess=TCheck SCRF=Check MP4=FrzG4/GTBas2
 ---------------------------------------------------------

 Structure from the checkpoint file:  "G4.Frag_726.chk"
 --------
 Frag_726
 --------
 Charge =  0 Multiplicity = 1

 SCF Done:  E(RHF) =  -302.011914899     A.U. after   13 cycles
 E2 =    -0.9074253149D+00 EUMP2 =    -0.30291934021374D+03
 Normal termination of Gaussian 09 at Fri Aug 19 15:07:45 2022.

 ---------------------------------------------------------
 #P Geom=AllCheck Guess=TCheck SCRF=Check MP4=FrzG4/GTBas3
 ---------------------------------------------------------

 Structure from the checkpoint file:  "G4.Frag_726.chk"
 --------
 Frag_726
 --------
 Charge =  0 Multiplicity = 1

 SCF Done:  E(RHF) =  -302.044529952     A.U. after   12 cycles
 E2 =    -0.1093525288D+01 EUMP2 =    -0.30313805524065D+03
 Normal termination of Gaussian 09 at Fri Aug 19 17:38:06 2022.

 -----------------------------------------------------------
 #P Geom=AllCheck Guess=TCheck SCRF=Check MP2=Full/GTLargeXP
 -----------------------------------------------------------

 Structure from the checkpoint file:  "G4.Frag_726.chk"
 --------
 Frag_726
 --------
 Charge =  0 Multiplicity = 1

 SCF Done:  E(RHF) =  -302.125543450     A.U. after   12 cycles
 E2 =    -0.1431166927D+01 EUMP2 =    -0.30355671037697D+03
 Normal termination of Gaussian 09 at Fri Aug 19 17:44:15 2022.
 SCF Done:  E(RHF) =  -302.149285446     A.U. after    8 cycles
 Normal termination of Gaussian 09 at Fri Aug 19 17:49:31 2022.

                         Standard orientation:
 ---------------------------------------------------------------------
 Center     Atomic      Atomic             Coordinates (Angstroms)
 Number     Number       Type             X           Y           Z
 ---------------------------------------------------------------------
      1          6           0        1.723438    0.827852    0.013586
      2          6           0        0.646778   -0.189770    0.373237
      3          8           0        0.905828   -1.464433   -0.226280
      4          6           0       -0.786283    0.270287    0.053780
      5          7           0       -1.176151    1.456649   -0.219941
      6          7           0       -1.691884   -0.759068    0.153982
      7          1           0        1.621444    1.743654    0.602753
      8          1           0        2.707380    0.400288    0.220897
      9          1           0        1.675280    1.099360   -1.047192
     10          1           0        0.687396   -0.392933    1.450319
     11          1           0        0.967514   -1.328610   -1.179083
     12          1           0       -0.397319    2.110049   -0.203720
     13          1           0       -1.324802   -1.684313   -0.002897
     14          1           0       -2.610873   -0.565316   -0.212741
 ---------------------------------------------------------------------

 SCF Done:  E(RHF) =  -302.154434188     A.U. after    8 cycles

 The electronic state is 1-A.
 Alpha  occ. eigenvalues --  -20.57805 -15.56207 -15.52227 -11.31316 -11.30617
 Alpha  occ. eigenvalues --  -11.23577  -1.38545  -1.25461  -1.13928  -1.03244
 Alpha  occ. eigenvalues --   -0.89743  -0.78273  -0.73456  -0.68765  -0.65242
 Alpha  occ. eigenvalues --   -0.62167  -0.61780  -0.56087  -0.54753  -0.52514
 Alpha  occ. eigenvalues --   -0.51377  -0.48085  -0.41017  -0.36726
 Alpha virt. eigenvalues --    0.03428   0.04409   0.04627   0.05215   0.06633
 Alpha virt. eigenvalues --    0.07194   0.07542   0.07890   0.08725   0.10182
 Alpha virt. eigenvalues --    0.11226   0.12463   0.13615   0.13888   0.14258

 Mulliken charges:
               1
     1  C   -0.584131
     2  C    0.127577
     3  O   -0.586480
     4  C    0.364525
     5  N   -0.697460
     6  N   -0.699143
     7  H    0.185875
     8  H    0.199360
     9  H    0.175883
    10  H    0.187343
    11  H    0.371381
    12  H    0.275875
    13  H    0.339547
    14  H    0.339849
 Sum of Mulliken charges =  -0.00000

 Dipole moment (field-independent basis, Debye):
    X=              1.9058    Y=             -0.9124    Z=             -0.8808  Tot=              2.2892
 Quadrupole moment (field-independent basis, Debye-Ang):
   XX=            -38.2728   YY=            -40.2167   ZZ=            -36.0072
   XY=              7.6641   XZ=              0.2556   YZ=              2.8998

 Normal termination of Gaussian 09 at Fri Aug 19 20:30:11 2022.
