 Gaussian 09, Revision E.01,
 Gaussian 09:  ES64L-G09RevE.01 30-Nov-2015

 -----
 #P G4
 -----

 ---------
 Frag_1006
 ---------
 Symbolic Z-matrix:
 Charge =  0 Multiplicity = 1

 SCF Done:  E(RB3LYP) =  -267.866717946     A.U. after   15 cycles
 SCF Done:  E(RB3LYP) =  -267.885938743     A.U. after   13 cycles
 SCF Done:  E(RB3LYP) =  -267.888132429     A.U. after   12 cycles
 SCF Done:  E(RB3LYP) =  -267.888330194     A.U. after   11 cycles
 SCF Done:  E(RB3LYP) =  -267.888358509     A.U. after    8 cycles
 SCF Done:  E(RB3LYP) =  -267.888361728     A.U. after    8 cycles
 SCF Done:  E(RB3LYP) =  -267.888362075     A.U. after    7 cycles
 Optimization completed.
    -- Stationary point found.
 Normal termination of Gaussian 09 at Fri Aug 26 14:20:08 2022.

 ----------------------------------------------------------
 #P Geom=AllCheck Guess=TCheck SCRF=Check B3LYP/GTBas3 Freq
 ----------------------------------------------------------

 Structure from the checkpoint file:  "G4.Frag_1006.chk"
 ---------
 Frag_1006
 ---------
 Charge =  0 Multiplicity = 1

 SCF Done:  E(RB3LYP) =  -267.888362075     A.U. after    1 cycles

  Exact polarizability:  63.563  -0.001  47.386   2.101  -0.011  71.442
 Approx polarizability:  88.345  -0.007  63.889  15.212  -0.035 140.283

                      1                      2                      3
                      A                      A                      A
 Frequencies --     17.6908               224.1277               262.6441
 Red. masses --      3.3896                 1.0966                 1.0305
 Frc consts  --      0.0006                 0.0325                 0.0419
 IR Inten    --      1.8356                 0.7161                 0.0147

                      4                      5                      6
                      A                      A                      A
 Frequencies --    277.9375               319.9338               350.2331
 Red. masses --      2.4458                 2.4080                 2.6546
 Frc consts  --      0.1113                 0.1452                 0.1918
 IR Inten    --      4.5415                 0.9099                 0.2860

                      7                      8                      9
                      A                      A                      A
 Frequencies --    398.4377               532.7532               558.0238
 Red. masses --      1.1463                 3.3932                 2.2501
 Frc consts  --      0.1072                 0.5674                 0.4128
 IR Inten    --      8.1152                 3.2038                 2.9900

                     10                     11                     12
                      A                      A                      A
 Frequencies --    614.3491               644.7128               772.7974
 Red. masses --      1.9775                 1.2281                 2.5535
 Frc consts  --      0.4397                 0.3007                 0.8985
 IR Inten    --      3.1113               103.5947                 2.0137

                     13                     14                     15
                      A                      A                      A
 Frequencies --    773.3436               912.8373               936.9217
 Red. masses --      1.5740                 2.4231                 1.1807
 Frc consts  --      0.5546                 1.1896                 0.6106
 IR Inten    --      2.7458                 0.5137                 0.5687

                     16                     17                     18
                      A                      A                      A
 Frequencies --    956.3988              1091.6348              1137.0072
 Red. masses --      1.4253                 1.9720                 1.6732
 Frc consts  --      0.7681                 1.3846                 1.2745
 IR Inten    --      0.1251                36.1064                22.9867

                     19                     20                     21
                      A                      A                      A
 Frequencies --   1150.0534              1199.8811              1298.3052
 Red. masses --      2.2126                 1.9847                 1.9840
 Frc consts  --      1.7242                 1.6835                 1.9703
 IR Inten    --      6.5962                 7.0526                21.4243

                     22                     23                     24
                      A                      A                      A
 Frequencies --   1344.5032              1361.3206              1402.3098
 Red. masses --      1.4167                 1.2821                 1.2425
 Frc consts  --      1.5089                 1.3999                 1.4396
 IR Inten    --      3.9582                43.3278                 5.5576

                     25                     26                     27
                      A                      A                      A
 Frequencies --   1405.9798              1422.4037              1476.1942
 Red. masses --      1.7765                 1.2972                 1.1635
 Frc consts  --      2.0690                 1.5463                 1.4939
 IR Inten    --    148.3787                29.1720                 6.0571

                     28                     29                     30
                      A                      A                      A
 Frequencies --   1482.3158              1485.3983              1500.2613
 Red. masses --      1.0446                 1.0486                 1.0601
 Frc consts  --      1.3523                 1.3632                 1.4058
 IR Inten    --      0.1307                 1.2086                 9.2454

                     31                     32                     33
                      A                      A                      A
 Frequencies --   1506.8261              1672.4444              3044.1922
 Red. masses --      1.0509                 2.9882                 1.0350
 Frc consts  --      1.4059                 4.9246                 5.6510
 IR Inten    --     12.6734                58.1843                13.6794

                     34                     35                     36
                      A                      A                      A
 Frequencies --   3047.8413              3074.0476              3114.5934
 Red. masses --      1.0354                 1.0857                 1.1009
 Frc consts  --      5.6671                 6.0448                 6.2923
 IR Inten    --     12.7304                 4.1918                 1.7963

                     37                     38                     39
                      A                      A                      A
 Frequencies --   3119.7905              3127.6344              3132.0002
 Red. masses --      1.1010                 1.1030                 1.1019
 Frc consts  --      6.3140                 6.3569                 6.3688
 IR Inten    --     31.4268                 9.1425                23.5504

                     40                     41                     42
                      A                      A                      A
 Frequencies --   3212.5214              3338.5640              3465.9603
 Red. masses --      1.0505                 1.1235                 1.0741
 Frc consts  --      6.3873                 7.3781                 7.6024
 IR Inten    --      1.6936                 1.0058                 0.2906

 - Thermochemistry -
 -------------------
 Temperature   298.150 Kelvin.  Pressure   1.00000 Atm.
 Atom     1 has atomic number  6 and mass  12.00000

 Molecular mass:    86.08440 amu.
 Principal axes and moments of inertia in atomic units:
                           1         2         3
     Eigenvalues --   373.42210 665.43484 688.81162
           X            0.99984   0.00001  -0.01805
           Y           -0.00001   1.00000  -0.00001
           Z            0.01805   0.00001   0.99984
 This molecule is an asymmetric top.
 Rotational symmetry number  1.
 Rotational temperatures (Kelvin)      0.23195     0.13016     0.12574
 Rotational constants (GHZ):           4.83298     2.71212     2.62008
 Zero-point vibrational energy     371842.0 (Joules/Mol)
                                   88.87237 (Kcal/Mol)
 Warning -- explicit consideration of  10 degrees of freedom as
           vibrations may cause significant error
 Vibrational temperatures:     25.45   322.47   377.89   399.89   460.31
          (Kelvin)            503.91   573.26   766.51   802.87   883.91
                              927.60  1111.88  1112.67  1313.37  1348.02
                             1376.04  1570.62  1635.90  1654.67  1726.36
                             1867.97  1934.44  1958.63  2017.61  2022.89
                             2046.52  2123.91  2132.72  2137.15  2158.54
                             2167.98  2406.27  4379.91  4385.16  4422.86
                             4481.20  4488.68  4499.96  4506.24  4622.10
                             4803.44  4986.74

 Zero-point correction=                           0.141627 (Hartree/Particle)
 Thermal correction to Energy=                    0.149026
 Thermal correction to Enthalpy=                  0.149970
 Thermal correction to Gibbs Free Energy=         0.109827
 Sum of electronic and zero-point Energies=           -267.746735
 Sum of electronic and thermal Energies=              -267.739336
 Sum of electronic and thermal Enthalpies=            -267.738392
 Sum of electronic and thermal Free Energies=         -267.778535

                     E (Thermal)             CV                S
                      KCal/Mol        Cal/Mol-Kelvin    Cal/Mol-Kelvin
 Total                   93.515             27.000             84.488
 Electronic               0.000              0.000              0.000
 Translational            0.889              2.981             39.271
 Rotational               0.889              2.981             26.640
 Vibrational             91.738             21.039             18.577
 Vibration     1          0.593              1.986              6.878
 Vibration     2          0.649              1.804              1.925
 Vibration     3          0.670              1.741              1.644
 Vibration     4          0.679              1.714              1.546
 Vibration     5          0.706              1.635              1.310
 Vibration     6          0.727              1.575              1.165
 Vibration     7          0.765              1.473              0.968
 Vibration     8          0.888              1.178              0.581
 Vibration     9          0.914              1.122              0.528
 Vibration    10          0.974              1.002              0.426

 Optimization completed.
    -- Stationary point found.
 Normal termination of Gaussian 09 at Fri Aug 26 14:20:46 2022.

 -----------------------------------------------------------------
 #P Geom=AllCheck Guess=TCheck SCRF=Check CCSD(T,E4T,FrzG4)/GTBas1
 -----------------------------------------------------------------

 Structure from the checkpoint file:  "G4.Frag_1006.chk"
 ---------
 Frag_1006
 ---------
 Charge =  0 Multiplicity = 1

 SCF Done:  E(RHF) =  -266.070437395     A.U. after   14 cycles
 E2 =    -0.8732223519D+00 EUMP2 =    -0.26694365974671D+03
 CCSD(T)
 CCSD(T)= -0.26703054216D+03
 SDTQ=-267.0309471\MP4SDQ=-266.9956064\CCSD=-266.995839\CCSD(T)=-267.03
 Normal termination of Gaussian 09 at Fri Aug 26 14:23:19 2022.

 ---------------------------------------------------------
 #P Geom=AllCheck Guess=TCheck SCRF=Check MP4=FrzG4/GTBas2
 ---------------------------------------------------------

 Structure from the checkpoint file:  "G4.Frag_1006.chk"
 ---------
 Frag_1006
 ---------
 Charge =  0 Multiplicity = 1

 SCF Done:  E(RHF) =  -266.080866967     A.U. after   14 cycles
 E2 =    -0.8844222376D+00 EUMP2 =    -0.26696528920458D+03
 Normal termination of Gaussian 09 at Fri Aug 26 14:24:03 2022.

 ---------------------------------------------------------
 #P Geom=AllCheck Guess=TCheck SCRF=Check MP4=FrzG4/GTBas3
 ---------------------------------------------------------

 Structure from the checkpoint file:  "G4.Frag_1006.chk"
 ---------
 Frag_1006
 ---------
 Charge =  0 Multiplicity = 1

 SCF Done:  E(RHF) =  -266.107419689     A.U. after   13 cycles
 E2 =    -0.1067473189D+01 EUMP2 =    -0.26717489287869D+03
 Normal termination of Gaussian 09 at Fri Aug 26 14:28:18 2022.

 -----------------------------------------------------------
 #P Geom=AllCheck Guess=TCheck SCRF=Check MP2=Full/GTLargeXP
 -----------------------------------------------------------

 Structure from the checkpoint file:  "G4.Frag_1006.chk"
 ---------
 Frag_1006
 ---------
 Charge =  0 Multiplicity = 1

 SCF Done:  E(RHF) =  -266.172902378     A.U. after   14 cycles
 E2 =    -0.1392687442D+01 EUMP2 =    -0.26756558982005D+03
 Normal termination of Gaussian 09 at Fri Aug 26 14:30:43 2022.
 SCF Done:  E(RHF) =  -266.193691337     A.U. after   10 cycles
 Normal termination of Gaussian 09 at Fri Aug 26 14:33:25 2022.

                         Standard orientation:
 ---------------------------------------------------------------------
 Center     Atomic      Atomic             Coordinates (Angstroms)
 Number     Number       Type             X           Y           Z
 ---------------------------------------------------------------------
      1          6           0       -1.095404   -0.000597    1.291081
      2          7           0       -0.848892    0.000008   -0.001611
      3          7           0       -1.795111    0.000422   -0.908365
      4          6           0        0.598596    0.000177   -0.431887
      5          6           0        1.308568    1.277227    0.018435
      6          6           0        1.308578   -1.277225    0.017418
      7          1           0       -0.273158   -0.000914    1.984777
      8          1           0       -2.126089   -0.000733    1.608081
      9          1           0       -1.330205    0.000777   -1.815405
     10          1           0        0.545590    0.000610   -1.523159
     11          1           0        2.302330    1.320602   -0.438074
     12          1           0        1.434477    1.309810    1.103694
     13          1           0        0.748099    2.163258   -0.291079
     14          1           0        2.302317   -1.320248   -0.439173
     15          1           0        1.434545   -1.310653    1.102644
     16          1           0        0.748091   -2.163012   -0.292759
 ---------------------------------------------------------------------

 SCF Done:  E(RHF) =  -266.198071052     A.U. after    8 cycles

 The electronic state is 1-A.
 Alpha  occ. eigenvalues --  -15.69517 -15.52434 -11.29741 -11.24621 -11.23929
 Alpha  occ. eigenvalues --  -11.23927  -1.35611  -1.10212  -1.04658  -0.96033
 Alpha  occ. eigenvalues --   -0.88331  -0.77413  -0.71194  -0.65095  -0.62953
 Alpha  occ. eigenvalues --   -0.62336  -0.58017  -0.56708  -0.55127  -0.53940
 Alpha  occ. eigenvalues --   -0.51270  -0.49705  -0.41512  -0.27671
 Alpha virt. eigenvalues --    0.02919   0.03889   0.03992   0.04800   0.06475
 Alpha virt. eigenvalues --    0.06489   0.07005   0.07354   0.07705   0.09314
 Alpha virt. eigenvalues --    0.09552   0.10074   0.11000   0.11962   0.13306

 Mulliken charges:
               1
     1  C   -0.438551
     2  N    0.224328
     3  N   -0.722845
     4  C    0.031171
     5  C   -0.545723
     6  C   -0.545724
     7  H    0.204661
     8  H    0.229949
     9  H    0.269464
    10  H    0.196574
    11  H    0.179232
    12  H    0.174469
    13  H    0.194648
    14  H    0.179233
    15  H    0.174468
    16  H    0.194647
 Sum of Mulliken charges =  -0.00000

 Dipole moment (field-independent basis, Debye):
    X=              4.2832    Y=             -0.0004    Z=              0.7256  Tot=              4.3442
 Quadrupole moment (field-independent basis, Debye-Ang):
   XX=            -46.2004   YY=            -40.3782   ZZ=            -36.0855
   XY=              0.0019   XZ=             -3.9078   YZ=             -0.0018

 Normal termination of Gaussian 09 at Fri Aug 26 14:42:09 2022.
