 Gaussian 09, Revision E.01,
 Gaussian 09:  ES64L-G09RevE.01 30-Nov-2015

 -----
 #P G4
 -----

 --------
 Frag_556
 --------
 Symbolic Z-matrix:
 Charge =  0 Multiplicity = 1

 SCF Done:  E(RB3LYP) =  -306.472544074     A.U. after   14 cycles
 SCF Done:  E(RB3LYP) =  -306.489384967     A.U. after   13 cycles
 SCF Done:  E(RB3LYP) =  -306.490662296     A.U. after   12 cycles
 SCF Done:  E(RB3LYP) =  -306.490758454     A.U. after   10 cycles
 SCF Done:  E(RB3LYP) =  -306.490771152     A.U. after    8 cycles
 SCF Done:  E(RB3LYP) =  -306.490772076     A.U. after    8 cycles
 SCF Done:  E(RB3LYP) =  -306.490771870     A.U. after    8 cycles
 Optimization completed.
    -- Stationary point found.
 Normal termination of Gaussian 09 at Thu Aug 25 07:52:51 2022.

 ----------------------------------------------------------
 #P Geom=AllCheck Guess=TCheck SCRF=Check B3LYP/GTBas3 Freq
 ----------------------------------------------------------

 Structure from the checkpoint file:  "G4.Frag_556.chk"
 --------
 Frag_556
 --------
 Charge =  0 Multiplicity = 1

 SCF Done:  E(RB3LYP) =  -306.490771870     A.U. after    1 cycles

  Exact polarizability:  56.232  -6.626  64.403  -0.003   0.002  29.326
 Approx polarizability:  75.853 -18.080 116.598  -0.001  -0.005  44.563

                      1                      2                      3
                      A                      A                      A
 Frequencies --    112.1706               133.4993               285.8079
 Red. masses --      2.9237                 1.2111                 3.1514
 Frc consts  --      0.0217                 0.0127                 0.1517
 IR Inten    --      0.8211                 0.0478                10.3463

                      4                      5                      6
                      A                      A                      A
 Frequencies --    365.9590               410.1496               450.0035
 Red. masses --      2.8085                 4.0181                 2.6963
 Frc consts  --      0.2216                 0.3982                 0.3217
 IR Inten    --      0.1825                14.0719                 2.4213

                      7                      8                      9
                      A                      A                      A
 Frequencies --    605.0743               631.1873               678.9190
 Red. masses --      4.8476                 1.2334                 2.1030
 Frc consts  --      1.0457                 0.2895                 0.5711
 IR Inten    --      5.8304                54.4855                 5.5360

                     10                     11                     12
                      A                      A                      A
 Frequencies --    736.8518               743.0071               878.0189
 Red. masses --      3.3501                 1.1235                 1.4047
 Frc consts  --      1.0717                 0.3654                 0.6380
 IR Inten    --     10.1046                24.3674                48.3218

                     13                     14                     15
                      A                      A                      A
 Frequencies --    979.9796               994.0977              1047.5901
 Red. masses --      1.7476                 2.0412                 1.8720
 Frc consts  --      0.9889                 1.1885                 1.2104
 IR Inten    --     15.1538                31.9770                 4.0006

                     16                     17                     18
                      A                      A                      A
 Frequencies --   1173.7685              1295.9817              1381.7408
 Red. masses --      2.7489                 1.8094                 1.3122
 Frc consts  --      2.2314                 1.7905                 1.4760
 IR Inten    --     30.1383               164.9923               101.8547

                     19                     20                     21
                      A                      A                      A
 Frequencies --   1420.6021              1447.2814              1473.2744
 Red. masses --      2.2822                 1.1757                 1.0739
 Frc consts  --      2.7136                 1.4510                 1.3733
 IR Inten    --    117.1109                74.8870                 3.7612

                     22                     23                     24
                      A                      A                      A
 Frequencies --   1474.6435              1723.1901              1757.5638
 Red. masses --      1.0470                 5.7983                 8.8368
 Frc consts  --      1.3414                10.1442                16.0830
 IR Inten    --      8.0936                 3.4205               185.6011

                     25                     26                     27
                      A                      A                      A
 Frequencies --   3049.3884              3114.0839              3157.4052
 Red. masses --      1.0363                 1.0989                 1.1024
 Frc consts  --      5.6774                 6.2785                 6.4750
 IR Inten    --      1.1351                 3.6482                 6.4822

                     28                     29                     30
                      A                      A                      A
 Frequencies --   3184.8442              3279.7432              3618.9669
 Red. masses --      1.0613                 1.1148                 1.0637
 Frc consts  --      6.3425                 7.0651                 8.2076
 IR Inten    --      0.3103                 1.9994               122.4959

 - Thermochemistry -
 -------------------
 Temperature   298.150 Kelvin.  Pressure   1.00000 Atm.
 Atom     1 has atomic number  6 and mass  12.00000

 Molecular mass:    86.03678 amu.
 Principal axes and moments of inertia in atomic units:
                           1         2         3
     Eigenvalues --   339.26665 511.50940 839.57433
           X            0.99841   0.05632  -0.00000
           Y           -0.05632   0.99841   0.00003
           Z            0.00001  -0.00003   1.00000
 This molecule is an asymmetric top.
 Rotational symmetry number  1.
 Rotational temperatures (Kelvin)      0.25530     0.16933     0.10316
 Rotational constants (GHZ):           5.31954     3.52827     2.14959
 Zero-point vibrational energy     248851.9 (Joules/Mol)
                                   59.47704 (Kcal/Mol)
 Warning -- explicit consideration of   7 degrees of freedom as
           vibrations may cause significant error
 Vibrational temperatures:    161.39   192.08   411.21   526.53   590.11
          (Kelvin)            647.45   870.57   908.14   976.81  1060.16
                             1069.02  1263.27  1409.97  1430.28  1507.25
                             1688.79  1864.63  1988.01  2043.93  2082.31
                             2119.71  2121.68  2479.28  2528.74  4387.38
                             4480.47  4542.80  4582.27  4718.81  5206.88

 Zero-point correction=                           0.094783 (Hartree/Particle)
 Thermal correction to Energy=                    0.101195
 Thermal correction to Enthalpy=                  0.102139
 Thermal correction to Gibbs Free Energy=         0.064853
 Sum of electronic and zero-point Energies=           -306.395989
 Sum of electronic and thermal Energies=              -306.389577
 Sum of electronic and thermal Enthalpies=            -306.388633
 Sum of electronic and thermal Free Energies=         -306.425919

                     E (Thermal)             CV                S
                      KCal/Mol        Cal/Mol-Kelvin    Cal/Mol-Kelvin
 Total                   63.501             22.783             78.475
 Electronic               0.000              0.000              0.000
 Translational            0.889              2.981             39.270
 Rotational               0.889              2.981             26.480
 Vibrational             61.723             16.822             12.726
 Vibration     1          0.607              1.939              3.231
 Vibration     2          0.613              1.920              2.895
 Vibration     3          0.684              1.700              1.499
 Vibration     4          0.739              1.542              1.097
 Vibration     5          0.774              1.448              0.926
 Vibration     6          0.809              1.361              0.796
 Vibration     7          0.964              1.021              0.441

 Optimization completed.
    -- Stationary point found.
 Normal termination of Gaussian 09 at Thu Aug 25 07:54:38 2022.

 -----------------------------------------------------------------
 #P Geom=AllCheck Guess=TCheck SCRF=Check CCSD(T,E4T,FrzG4)/GTBas1
 -----------------------------------------------------------------

 Structure from the checkpoint file:  "G4.Frag_556.chk"
 --------
 Frag_556
 --------
 Charge =  0 Multiplicity = 1

 SCF Done:  E(RHF) =  -304.664758193     A.U. after   13 cycles
 E2 =    -0.8633456124D+00 EUMP2 =    -0.30552810380565D+03
 CCSD(T)
 CCSD(T)= -0.30559767856D+03
 05.5667592\CCSD(T)=-305.5976786\RMSD=4.725e-09\PG=C01 [X(C4H6O2)]\\@
 Normal termination of Gaussian 09 at Thu Aug 25 08:00:27 2022.

 ---------------------------------------------------------
 #P Geom=AllCheck Guess=TCheck SCRF=Check MP4=FrzG4/GTBas2
 ---------------------------------------------------------

 Structure from the checkpoint file:  "G4.Frag_556.chk"
 --------
 Frag_556
 --------
 Charge =  0 Multiplicity = 1

 SCF Done:  E(RHF) =  -304.674793254     A.U. after   13 cycles
 E2 =    -0.8748062390D+00 EUMP2 =    -0.30554959949258D+03
 Normal termination of Gaussian 09 at Thu Aug 25 08:06:49 2022.

 ---------------------------------------------------------
 #P Geom=AllCheck Guess=TCheck SCRF=Check MP4=FrzG4/GTBas3
 ---------------------------------------------------------

 Structure from the checkpoint file:  "G4.Frag_556.chk"
 --------
 Frag_556
 --------
 Charge =  0 Multiplicity = 1

 SCF Done:  E(RHF) =  -304.702605483     A.U. after   12 cycles
 E2 =    -0.1055715198D+01 EUMP2 =    -0.30575832068148D+03
 Normal termination of Gaussian 09 at Thu Aug 25 09:55:12 2022.

 -----------------------------------------------------------
 #P Geom=AllCheck Guess=TCheck SCRF=Check MP2=Full/GTLargeXP
 -----------------------------------------------------------

 Structure from the checkpoint file:  "G4.Frag_556.chk"
 --------
 Frag_556
 --------
 Charge =  0 Multiplicity = 1

 SCF Done:  E(RHF) =  -304.782839358     A.U. after   12 cycles
 E2 =    -0.1388676598D+01 EUMP2 =    -0.30617151595674D+03
 Normal termination of Gaussian 09 at Thu Aug 25 09:59:58 2022.
 SCF Done:  E(RHF) =  -304.807279669     A.U. after   10 cycles
 Normal termination of Gaussian 09 at Thu Aug 25 10:05:16 2022.

                         Standard orientation:
 ---------------------------------------------------------------------
 Center     Atomic      Atomic             Coordinates (Angstroms)
 Number     Number       Type             X           Y           Z
 ---------------------------------------------------------------------
      1          6           0       -1.191836    1.435189    0.000335
      2          6           0       -0.763065    0.167995   -0.000128
      3          8           0       -1.597574   -0.890220   -0.000156
      4          6           0        0.680446   -0.232792   -0.000858
      5          6           0        1.772824    0.808976   -0.000094
      6          8           0        0.926575   -1.427763    0.000685
      7          1           0       -2.249254    1.668155    0.000682
      8          1           0       -0.491063    2.257214    0.000308
      9          1           0       -1.009852   -1.668406   -0.000976
     10          1           0        1.694229    1.451781   -0.882287
     11          1           0        1.693040    1.451902    0.881914
     12          1           0        2.740679    0.307010    0.000595
 ---------------------------------------------------------------------

 SCF Done:  E(RHF) =  -304.812365591     A.U. after    8 cycles

 The electronic state is 1-A.
 Alpha  occ. eigenvalues --  -20.58277 -20.57002 -11.35546 -11.31208 -11.25017
 Alpha  occ. eigenvalues --  -11.24125  -1.43316  -1.38775  -1.07433  -1.00600
 Alpha  occ. eigenvalues --   -0.86935  -0.77414  -0.72079  -0.66862  -0.62898
 Alpha  occ. eigenvalues --   -0.61606  -0.60243  -0.58189  -0.58151  -0.54331
 Alpha  occ. eigenvalues --   -0.51662  -0.44964  -0.36219
 Alpha virt. eigenvalues --    0.03290   0.04141   0.05103   0.05540   0.06422
 Alpha virt. eigenvalues --    0.06687   0.07082   0.08209   0.08635   0.09236
 Alpha virt. eigenvalues --    0.09452   0.09797   0.10414   0.10511   0.14748

 Mulliken charges:
               1
     1  C   -0.448581
     2  C    0.232087
     3  O   -0.591708
     4  C    0.494173
     5  C   -0.604148
     6  O   -0.557330
     7  H    0.227219
     8  H    0.190541
     9  H    0.416464
    10  H    0.210938
    11  H    0.210907
    12  H    0.219439
 Sum of Mulliken charges =  -0.00000

 Dipole moment (field-independent basis, Debye):
    X=              1.2064    Y=              2.7967    Z=             -0.0034  Tot=              3.0458
 Quadrupole moment (field-independent basis, Debye-Ang):
   XX=            -37.3679   YY=            -35.4003   ZZ=            -36.8428
   XY=              2.0987   XZ=             -0.0016   YZ=              0.0071

 Normal termination of Gaussian 09 at Thu Aug 25 12:19:50 2022.
