 Gaussian 09, Revision E.01,
 Gaussian 09:  ES64L-G09RevE.01 30-Nov-2015

 -----
 #P G4
 -----

 --------
 Frag_930
 --------
 Symbolic Z-matrix:
 Charge =  0 Multiplicity = 1

 SCF Done:  E(RB3LYP) =  -280.450875458     A.U. after   14 cycles
 SCF Done:  E(RB3LYP) =  -280.459871183     A.U. after   13 cycles
 SCF Done:  E(RB3LYP) =  -280.461725627     A.U. after   12 cycles
 SCF Done:  E(RB3LYP) =  -280.462066816     A.U. after   12 cycles
 SCF Done:  E(RB3LYP) =  -280.462236179     A.U. after   12 cycles
 SCF Done:  E(RB3LYP) =  -280.463271722     A.U. after   13 cycles
 SCF Done:  E(RB3LYP) =  -280.463320464     A.U. after   15 cycles
 SCF Done:  E(RB3LYP) =  -280.460749513     A.U. after   15 cycles
 SCF Done:  E(RB3LYP) =  -280.466782167     A.U. after   12 cycles
 SCF Done:  E(RB3LYP) =  -280.469675798     A.U. after   13 cycles
 SCF Done:  E(RB3LYP) =  -280.470837995     A.U. after    8 cycles
 SCF Done:  E(RB3LYP) =  -280.470838594     A.U. after    8 cycles
 SCF Done:  E(RB3LYP) =  -280.470838736     A.U. after    7 cycles
 Optimization completed.
    -- Stationary point found.
 Normal termination of Gaussian 09 at Sat Aug 20 23:00:55 2022.

 ----------------------------------------------------------
 #P Geom=AllCheck Guess=TCheck SCRF=Check B3LYP/GTBas3 Freq
 ----------------------------------------------------------

 Structure from the checkpoint file:  "G4.Frag_930.chk"
 --------
 Frag_930
 --------
 Charge =  0 Multiplicity = 1

 SCF Done:  E(RB3LYP) =  -280.470838736     A.U. after    1 cycles

  Exact polarizability:  53.725  -1.702  38.427  -0.437  -1.508  27.259
 Approx polarizability:  82.636  -6.722  55.946  -4.687  -1.279  42.775

                      1                      2                      3
                      A                      A                      A
 Frequencies --    181.8349               256.7301               335.6114
 Red. masses --      2.1768                 1.2911                 1.1636
 Frc consts  --      0.0424                 0.0501                 0.0772
 IR Inten    --     30.2180                78.0432                23.6993

                      4                      5                      6
                      A                      A                      A
 Frequencies --    370.0767               413.0269               539.3026
 Red. masses --      2.6209                 2.7194                 5.2209
 Frc consts  --      0.2115                 0.2733                 0.8947
 IR Inten    --     11.9849                45.3561                 2.5591

                      7                      8                      9
                      A                      A                      A
 Frequencies --    610.7199               778.2620               807.4449
 Red. masses --      3.2236                 4.4341                 1.6326
 Frc consts  --      0.7084                 1.5824                 0.6271
 IR Inten    --     10.1545                66.7913                41.3241

                     10                     11                     12
                      A                      A                      A
 Frequencies --    834.1856               960.2533              1054.0302
 Red. masses --      1.6675                 1.3851                 8.1144
 Frc consts  --      0.6837                 0.7525                 5.3114
 IR Inten    --     74.9798                23.5567                 0.7884

                     13                     14                     15
                      A                      A                      A
 Frequencies --   1148.0139              1222.1526              1300.9466
 Red. masses --      2.1176                 2.0573                 1.1670
 Frc consts  --      1.6443                 1.8105                 1.1637
 IR Inten    --     40.5919                54.7570                10.3918

                     16                     17                     18
                      A                      A                      A
 Frequencies --   1441.6936              1473.9464              1656.3936
 Red. masses --      1.1985                 1.1627                 1.2732
 Frc consts  --      1.4677                 1.4882                 2.0582
 IR Inten    --     27.3346                 2.1394                16.0404

                     19                     20                     21
                      A                      A                      A
 Frequencies --   1685.4741              3085.3015              3210.3137
 Red. masses --      3.0973                 1.0605                 1.1101
 Frc consts  --      5.1841                 5.9477                 6.7408
 IR Inten    --      4.1429                16.1353                 7.8451

                     22                     23                     24
                      A                      A                      A
 Frequencies --   3392.3125              3563.6377              3663.2379
 Red. masses --      1.0547                 1.0861                 1.0673
 Frc consts  --      7.1508                 8.1265                 8.4385
 IR Inten    --      6.7320                 6.6312                 5.7631

 - Thermochemistry -
 -------------------
 Temperature   298.150 Kelvin.  Pressure   1.00000 Atm.
 Atom     1 has atomic number  6 and mass  12.00000

 Molecular mass:    75.04326 amu.
 Principal axes and moments of inertia in atomic units:
                           1         2         3
     Eigenvalues --   189.94151 389.55553 548.47400
           X            0.99984  -0.01668   0.00661
           Y            0.01681   0.99962  -0.02163
           Z           -0.00625   0.02174   0.99974
 This molecule is an asymmetric top.
 Rotational symmetry number  1.
 Rotational temperatures (Kelvin)      0.45600     0.22234     0.15792
 Rotational constants (GHZ):           9.50156     4.63282     3.29048
 Zero-point vibrational energy     203274.9 (Joules/Mol)
                                   48.58386 (Kcal/Mol)
 Warning -- explicit consideration of   7 degrees of freedom as
           vibrations may cause significant error
 Vibrational temperatures:    261.62   369.38   482.87   532.46   594.25
          (Kelvin)            775.94   878.69  1119.74  1161.73  1200.21
                             1381.59  1516.51  1651.73  1758.40  1871.77
                             2074.27  2120.68  2383.18  2425.02  4439.06
                             4618.92  4880.78  5127.27  5270.58

 Zero-point correction=                           0.077423 (Hartree/Particle)
 Thermal correction to Energy=                    0.083054
 Thermal correction to Enthalpy=                  0.083998
 Thermal correction to Gibbs Free Energy=         0.049199
 Sum of electronic and zero-point Energies=           -280.393415
 Sum of electronic and thermal Energies=              -280.387784
 Sum of electronic and thermal Enthalpies=            -280.386840
 Sum of electronic and thermal Free Energies=         -280.421640

                     E (Thermal)             CV                S
                      KCal/Mol        Cal/Mol-Kelvin    Cal/Mol-Kelvin
 Total                   52.117             19.832             73.241
 Electronic               0.000              0.000              0.000
 Translational            0.889              2.981             38.862
 Rotational               0.889              2.981             25.210
 Vibrational             50.340             13.870              9.169
 Vibration     1          0.630              1.864              2.309
 Vibration     2          0.666              1.751              1.684
 Vibration     3          0.717              1.604              1.233
 Vibration     4          0.742              1.534              1.079
 Vibration     5          0.777              1.442              0.916
 Vibration     6          0.894              1.163              0.567
 Vibration     7          0.970              1.009              0.432

 Optimization completed.
    -- Stationary point found.
 Normal termination of Gaussian 09 at Sat Aug 20 23:01:58 2022.

 -----------------------------------------------------------------
 #P Geom=AllCheck Guess=TCheck SCRF=Check CCSD(T,E4T,FrzG4)/GTBas1
 -----------------------------------------------------------------

 Structure from the checkpoint file:  "G4.Frag_930.chk"
 --------
 Frag_930
 --------
 Charge =  0 Multiplicity = 1

 SCF Done:  E(RHF) =  -278.817315275     A.U. after   14 cycles
 E2 =    -0.7992330855D+00 EUMP2 =    -0.27961654836031D+03
 CCSD(T)
 CCSD(T)= -0.27967712496D+03
 Normal termination of Gaussian 09 at Sat Aug 20 23:03:31 2022.

 ---------------------------------------------------------
 #P Geom=AllCheck Guess=TCheck SCRF=Check MP4=FrzG4/GTBas2
 ---------------------------------------------------------

 Structure from the checkpoint file:  "G4.Frag_930.chk"
 --------
 Frag_930
 --------
 Charge =  0 Multiplicity = 1

 SCF Done:  E(RHF) =  -278.828012346     A.U. after   14 cycles
 E2 =    -0.8121640039D+00 EUMP2 =    -0.27964017635019D+03
 Normal termination of Gaussian 09 at Sat Aug 20 23:04:59 2022.

 ---------------------------------------------------------
 #P Geom=AllCheck Guess=TCheck SCRF=Check MP4=FrzG4/GTBas3
 ---------------------------------------------------------

 Structure from the checkpoint file:  "G4.Frag_930.chk"
 --------
 Frag_930
 --------
 Charge =  0 Multiplicity = 1

 SCF Done:  E(RHF) =  -278.856417079     A.U. after   12 cycles
 E2 =    -0.9670721808D+00 EUMP2 =    -0.27982348926009D+03
 Normal termination of Gaussian 09 at Sat Aug 20 23:36:29 2022.

 -----------------------------------------------------------
 #P Geom=AllCheck Guess=TCheck SCRF=Check MP2=Full/GTLargeXP
 -----------------------------------------------------------

 Structure from the checkpoint file:  "G4.Frag_930.chk"
 --------
 Frag_930
 --------
 Charge =  0 Multiplicity = 1

 SCF Done:  E(RHF) =  -278.934047554     A.U. after   13 cycles
 E2 =    -0.1256750373D+01 EUMP2 =    -0.28019079792755D+03
 Normal termination of Gaussian 09 at Sat Aug 20 23:38:33 2022.
 SCF Done:  E(RHF) =  -278.956843938     A.U. after   10 cycles
 Normal termination of Gaussian 09 at Sat Aug 20 23:41:32 2022.

                         Standard orientation:
 ---------------------------------------------------------------------
 Center     Atomic      Atomic             Coordinates (Angstroms)
 Number     Number       Type             X           Y           Z
 ---------------------------------------------------------------------
      1          6           0       -1.823780   -0.149659    0.055678
      2          7           0       -0.694959   -0.735386   -0.041368
      3          7           0        0.421290   -0.002827   -0.361624
      4          7           0        0.505980    1.321666    0.110226
      5          8           0        1.555319   -0.727519    0.030138
      6          1           0       -1.982704    0.920746   -0.085464
      7          1           0       -2.687113   -0.773875    0.260867
      8          1           0       -0.085599    1.441280    0.937117
      9          1           0        0.174126    1.942178   -0.620157
     10          1           0        1.455243   -0.896393    0.981823
 ---------------------------------------------------------------------

 SCF Done:  E(RHF) =  -278.961624077     A.U. after    8 cycles

 The electronic state is 1-A.
 Alpha  occ. eigenvalues --  -20.59127 -15.68016 -15.61928 -15.59660 -11.28690
 Alpha  occ. eigenvalues --   -1.45759  -1.29051  -1.19797  -1.00441  -0.83127
 Alpha  occ. eigenvalues --   -0.73895  -0.72420  -0.70224  -0.65489  -0.58851
 Alpha  occ. eigenvalues --   -0.52055  -0.51084  -0.47862  -0.43539  -0.37681
 Alpha virt. eigenvalues --    0.03512   0.04594   0.04947   0.05604   0.08082
 Alpha virt. eigenvalues --    0.08789   0.09355   0.09975   0.11034   0.12235
 Alpha virt. eigenvalues --    0.13615   0.15034   0.15535   0.15728   0.16348

 Mulliken charges:
               1
     1  C   -0.246460
     2  N   -0.260217
     3  N    0.143373
     4  N   -0.583587
     5  O   -0.419903
     6  H    0.177647
     7  H    0.232121
     8  H    0.283174
     9  H    0.321760
    10  H    0.352091
 Sum of Mulliken charges =  -0.00000

 Dipole moment (field-independent basis, Debye):
    X=             -3.1955    Y=              2.1947    Z=              1.7022  Tot=              4.2338
 Quadrupole moment (field-independent basis, Debye-Ang):
   XX=            -29.8658   YY=            -29.6290   ZZ=            -28.6084
   XY=             -2.4266   XZ=              1.7887   YZ=             -2.4711

 Normal termination of Gaussian 09 at Sun Aug 21 00:55:15 2022.
