 Gaussian 09, Revision E.01,
 Gaussian 09:  ES64L-G09RevE.01 30-Nov-2015

 -----
 #P G4
 -----

 --------
 Frag_967
 --------
 Symbolic Z-matrix:
 Charge =  0 Multiplicity = 1

 SCF Done:  E(RB3LYP) =  -230.176625773     A.U. after   12 cycles
 SCF Done:  E(RB3LYP) =  -230.187298687     A.U. after   12 cycles
 SCF Done:  E(RB3LYP) =  -230.189564191     A.U. after   12 cycles
 SCF Done:  E(RB3LYP) =  -230.189899859     A.U. after   11 cycles
 SCF Done:  E(RB3LYP) =  -230.189935559     A.U. after   10 cycles
 SCF Done:  E(RB3LYP) =  -230.189945991     A.U. after    9 cycles
 SCF Done:  E(RB3LYP) =  -230.189948910     A.U. after    8 cycles
 SCF Done:  E(RB3LYP) =  -230.189949672     A.U. after    7 cycles
 SCF Done:  E(RB3LYP) =  -230.189949878     A.U. after    7 cycles
 Optimization completed.
    -- Stationary point found.
 Normal termination of Gaussian 09 at Fri Aug 26 15:18:50 2022.

 ----------------------------------------------------------
 #P Geom=AllCheck Guess=TCheck SCRF=Check B3LYP/GTBas3 Freq
 ----------------------------------------------------------

 Structure from the checkpoint file:  "G4.Frag_967.chk"
 --------
 Frag_967
 --------
 Charge =  0 Multiplicity = 1

 SCF Done:  E(RB3LYP) =  -230.189949878     A.U. after    1 cycles

  Exact polarizability:  38.479  -2.665  31.889   1.812  -0.173  28.883
 Approx polarizability:  48.216  -5.841  46.530   2.136  -2.330  41.150

                      1                      2                      3
                      A                      A                      A
 Frequencies --    154.6030               218.9643               238.2221
 Red. masses --      2.3538                 1.0363                 1.3713
 Frc consts  --      0.0331                 0.0293                 0.0458
 IR Inten    --      5.5096                67.1869                34.6662

                      4                      5                      6
                      A                      A                      A
 Frequencies --    368.2680               503.7081               794.9378
 Red. masses --      2.5340                 2.9409                 1.2204
 Frc consts  --      0.2025                 0.4396                 0.4544
 IR Inten    --      4.7659                 4.8649                 2.2863

                      7                      8                      9
                      A                      A                      A
 Frequencies --    869.0024               925.3413              1056.7492
 Red. masses --      2.7420                 3.9430                 3.7046
 Frc consts  --      1.2200                 1.9892                 2.4374
 IR Inten    --      8.7599                 7.3365                22.9543

                     10                     11                     12
                      A                      A                      A
 Frequencies --   1106.4052              1193.5125              1313.7668
 Red. masses --      1.9592                 1.8309                 1.1153
 Frc consts  --      1.4130                 1.5366                 1.1342
 IR Inten    --      7.8172                 4.9534                 1.7209

                     13                     14                     15
                      A                      A                      A
 Frequencies --   1375.3024              1394.3704              1410.8469
 Red. masses --      1.1461                 1.2072                 1.3102
 Frc consts  --      1.2772                 1.3829                 1.5365
 IR Inten    --     20.7920                27.6182                40.0549

                     16                     17                     18
                      A                      A                      A
 Frequencies --   1469.6876              1484.2059              1506.8237
 Red. masses --      1.0867                 1.0429                 1.0558
 Frc consts  --      1.3829                 1.3535                 1.4124
 IR Inten    --      0.5487                 4.5540                 2.1697

                     19                     20                     21
                      A                      A                      A
 Frequencies --   3004.4792              3044.9072              3064.6070
 Red. masses --      1.0629                 1.0364                 1.0988
 Frc consts  --      5.6529                 5.6613                 6.0801
 IR Inten    --     48.1024                14.4425                18.0337

                     22                     23                     24
                      A                      A                      A
 Frequencies --   3115.0838              3136.3129              3752.2817
 Red. masses --      1.1007                 1.1019                 1.0687
 Frc consts  --      6.2933                 6.3860                 8.8654
 IR Inten    --     26.0283                18.8397                26.9507

 - Thermochemistry -
 -------------------
 Temperature   298.150 Kelvin.  Pressure   1.00000 Atm.
 Atom     1 has atomic number  6 and mass  12.00000

 Molecular mass:    62.03678 amu.
 Principal axes and moments of inertia in atomic units:
                           1         2         3
     Eigenvalues --   114.14990 328.70411 389.67062
           X            0.99965   0.01891   0.01855
           Y           -0.01985   0.99848   0.05137
           Z           -0.01755  -0.05172   0.99851
 This molecule is an asymmetric top.
 Rotational symmetry number  1.
 Rotational temperatures (Kelvin)      0.75877     0.26350     0.22227
 Rotational constants (GHZ):          15.81027     5.49047     4.63145
 Zero-point vibrational energy     218332.8 (Joules/Mol)
                                   52.18279 (Kcal/Mol)
 Warning -- explicit consideration of   5 degrees of freedom as
           vibrations may cause significant error
 Vibrational temperatures:    222.44   315.04   342.75   529.85   724.72
          (Kelvin)           1143.74  1250.30  1331.36  1520.42  1591.87
                             1717.20  1890.21  1978.75  2006.19  2029.89
                             2114.55  2135.44  2167.98  4322.77  4380.94
                             4409.28  4481.91  4512.45  5398.69

 Zero-point correction=                           0.083159 (Hartree/Particle)
 Thermal correction to Energy=                    0.088534
 Thermal correction to Enthalpy=                  0.089478
 Thermal correction to Gibbs Free Energy=         0.055546
 Sum of electronic and zero-point Energies=           -230.106791
 Sum of electronic and thermal Energies=              -230.101416
 Sum of electronic and thermal Enthalpies=            -230.100472
 Sum of electronic and thermal Free Energies=         -230.134404

                     E (Thermal)             CV                S
                      KCal/Mol        Cal/Mol-Kelvin    Cal/Mol-Kelvin
 Total                   55.556             17.407             71.417
 Electronic               0.000              0.000              0.000
 Translational            0.889              2.981             38.295
 Rotational               0.889              2.981             24.195
 Vibrational             53.779             11.446              8.926
 Vibration     1          0.620              1.898              2.615
 Vibration     2          0.647              1.812              1.968
 Vibration     3          0.656              1.782              1.816
 Vibration     4          0.741              1.537              1.087
 Vibration     5          0.859              1.242              0.649

 Optimization completed.
    -- Stationary point found.
 Normal termination of Gaussian 09 at Fri Aug 26 15:19:04 2022.

 -----------------------------------------------------------------
 #P Geom=AllCheck Guess=TCheck SCRF=Check CCSD(T,E4T,FrzG4)/GTBas1
 -----------------------------------------------------------------

 Structure from the checkpoint file:  "G4.Frag_967.chk"
 --------
 Frag_967
 --------
 Charge =  0 Multiplicity = 1

 SCF Done:  E(RHF) =  -228.833380279     A.U. after   12 cycles
 E2 =    -0.6271334590D+00 EUMP2 =    -0.22946051373803D+03
 CCSD(T)
 CCSD(T)= -0.22951467342D+03
 Normal termination of Gaussian 09 at Fri Aug 26 15:19:30 2022.

 ---------------------------------------------------------
 #P Geom=AllCheck Guess=TCheck SCRF=Check MP4=FrzG4/GTBas2
 ---------------------------------------------------------

 Structure from the checkpoint file:  "G4.Frag_967.chk"
 --------
 Frag_967
 --------
 Charge =  0 Multiplicity = 1

 SCF Done:  E(RHF) =  -228.839533686     A.U. after   13 cycles
 E2 =    -0.6376467156D+00 EUMP2 =    -0.22947718040180D+03
 Normal termination of Gaussian 09 at Fri Aug 26 15:19:38 2022.

 ---------------------------------------------------------
 #P Geom=AllCheck Guess=TCheck SCRF=Check MP4=FrzG4/GTBas3
 ---------------------------------------------------------

 Structure from the checkpoint file:  "G4.Frag_967.chk"
 --------
 Frag_967
 --------
 Charge =  0 Multiplicity = 1

 SCF Done:  E(RHF) =  -228.861949229     A.U. after   12 cycles
 E2 =    -0.7821816137D+00 EUMP2 =    -0.22964413084261D+03
 Normal termination of Gaussian 09 at Fri Aug 26 15:20:11 2022.

 -----------------------------------------------------------
 #P Geom=AllCheck Guess=TCheck SCRF=Check MP2=Full/GTLargeXP
 -----------------------------------------------------------

 Structure from the checkpoint file:  "G4.Frag_967.chk"
 --------
 Frag_967
 --------
 Charge =  0 Multiplicity = 1

 SCF Done:  E(RHF) =  -228.924656513     A.U. after   12 cycles
 E2 =    -0.1017662686D+01 EUMP2 =    -0.22994231919882D+03
 Normal termination of Gaussian 09 at Fri Aug 26 15:20:32 2022.
 SCF Done:  E(RHF) =  -228.945172842     A.U. after    9 cycles
 Normal termination of Gaussian 09 at Fri Aug 26 15:21:01 2022.

                         Standard orientation:
 ---------------------------------------------------------------------
 Center     Atomic      Atomic             Coordinates (Angstroms)
 Number     Number       Type             X           Y           Z
 ---------------------------------------------------------------------
      1          6           0       -1.497814   -0.506307   -0.087796
      2          6           0       -0.548427    0.625587    0.280608
      3          8           0        0.698513    0.562383   -0.399793
      4          8           0        1.392072   -0.613522    0.079663
      5          1           0       -2.455541   -0.379181    0.427529
      6          1           0       -1.073582   -1.469596    0.203952
      7          1           0       -1.681159   -0.518485   -1.165983
      8          1           0       -0.378001    0.663669    1.365929
      9          1           0       -0.947779    1.596998   -0.036158
     10          1           0        2.088830   -0.199983    0.608899
 ---------------------------------------------------------------------

 SCF Done:  E(RHF) =  -228.949415857     A.U. after    8 cycles

 The electronic state is 1-A.
 Alpha  occ. eigenvalues --  -20.61887 -20.61829 -11.28360 -11.21668  -1.47191
 Alpha  occ. eigenvalues --   -1.22533  -1.00578  -0.84262  -0.71325  -0.66873
 Alpha  occ. eigenvalues --   -0.65500  -0.57538  -0.56803  -0.53654  -0.49643
 Alpha  occ. eigenvalues --   -0.48100  -0.44882
 Alpha virt. eigenvalues --    0.04204   0.04557   0.05421   0.06048   0.07816
 Alpha virt. eigenvalues --    0.08065   0.08443   0.10543   0.12671   0.14576
 Alpha virt. eigenvalues --    0.15071   0.16244   0.17331   0.18701   0.20075

 Mulliken charges:
               1
     1  C   -0.497428
     2  C   -0.104139
     3  O   -0.220413
     4  O   -0.420505
     5  H    0.164881
     6  H    0.193797
     7  H    0.174229
     8  H    0.143865
     9  H    0.175310
    10  H    0.390403
 Sum of Mulliken charges =  -0.00000

 Dipole moment (field-independent basis, Debye):
    X=             -0.5358    Y=              0.7264    Z=              1.6903  Tot=              1.9162
 Quadrupole moment (field-independent basis, Debye-Ang):
   XX=            -21.5011   YY=            -26.0055   ZZ=            -24.8767
   XY=             -0.0842   XZ=              2.8621   YZ=              0.3963

 Normal termination of Gaussian 09 at Fri Aug 26 15:23:43 2022.
