 Gaussian 09, Revision E.01,
 Gaussian 09:  ES64L-G09RevE.01 30-Nov-2015

 -----
 #P G4
 -----

 ---------
 Frag_1110
 ---------
 Symbolic Z-matrix:
 Charge =  0 Multiplicity = 1

 SCF Done:  E(RB3LYP) =  -264.445950386     A.U. after   14 cycles
 SCF Done:  E(RB3LYP) =  -264.452738151     A.U. after   12 cycles
 SCF Done:  E(RB3LYP) =  -264.454932961     A.U. after   12 cycles
 SCF Done:  E(RB3LYP) =  -264.455339023     A.U. after   12 cycles
 SCF Done:  E(RB3LYP) =  -264.455659878     A.U. after   12 cycles
 SCF Done:  E(RB3LYP) =  -264.456634480     A.U. after   12 cycles
 SCF Done:  E(RB3LYP) =  -264.442212966     A.U. after   14 cycles
 SCF Done:  E(RB3LYP) =  -264.457499567     A.U. after   10 cycles
 SCF Done:  E(RB3LYP) =  -264.457087727     A.U. after   14 cycles
 SCF Done:  E(RB3LYP) =  -264.458990693     A.U. after   11 cycles
 SCF Done:  E(RB3LYP) =  -264.464652400     A.U. after   10 cycles
 SCF Done:  E(RB3LYP) =  -264.464655228     A.U. after    8 cycles
 SCF Done:  E(RB3LYP) =  -264.464655374     A.U. after    7 cycles
 Optimization completed.
    -- Stationary point found.
 Normal termination of Gaussian 09 at Fri Aug 19 08:52:17 2022.

 ----------------------------------------------------------
 #P Geom=AllCheck Guess=TCheck SCRF=Check B3LYP/GTBas3 Freq
 ----------------------------------------------------------

 Structure from the checkpoint file:  "G4.Frag_1110.chk"
 ---------
 Frag_1110
 ---------
 Charge =  0 Multiplicity = 1

 SCF Done:  E(RB3LYP) =  -264.464655374     A.U. after    1 cycles

  Exact polarizability:  59.935  -0.575  40.630  -2.059   1.711  30.158
 Approx polarizability:  84.337  -1.856  61.650  -7.509   2.947  47.302

                      1                      2                      3
                      A                      A                      A
 Frequencies --    199.9804               259.6392               338.1275
 Red. masses --      2.5114                 1.1405                 2.7004
 Frc consts  --      0.0592                 0.0453                 0.1819
 IR Inten    --      8.2443                 2.7991                 1.6765

                      4                      5                      6
                      A                      A                      A
 Frequencies --    375.4911               410.3190               453.1487
 Red. masses --      1.1969                 2.5319                 2.9523
 Frc consts  --      0.0994                 0.2512                 0.3572
 IR Inten    --     35.7709                26.7464                34.5403

                      7                      8                      9
                      A                      A                      A
 Frequencies --    637.6728               779.8856               818.9696
 Red. masses --      3.1306                 6.0571                 1.2698
 Frc consts  --      0.7500                 2.1706                 0.5018
 IR Inten    --     28.3455                25.7482                 3.1819

                     10                     11                     12
                      A                      A                      A
 Frequencies --    938.2074               959.9596              1127.6283
 Red. masses --      3.5527                 1.3769                 1.6308
 Frc consts  --      1.8425                 0.7476                 1.2218
 IR Inten    --     46.3745                26.4870                21.0339

                     13                     14                     15
                      A                      A                      A
 Frequencies --   1166.1829              1217.0710              1238.3062
 Red. masses --      1.6264                 1.7547                 3.2514
 Frc consts  --      1.3032                 1.5314                 2.9375
 IR Inten    --      3.6561                38.5792                 6.1385

                     16                     17                     18
                      A                      A                      A
 Frequencies --   1398.2609              1435.7369              1464.0373
 Red. masses --      1.1934                 1.1774                 1.1608
 Frc consts  --      1.3748                 1.4299                 1.4660
 IR Inten    --     21.7171                 1.2833                 2.4518

                     19                     20                     21
                      A                      A                      A
 Frequencies --   1483.8629              1499.8377              1678.2552
 Red. masses --      1.0545                 1.0675                 6.2335
 Frc consts  --      1.3680                 1.4148                10.3442
 IR Inten    --     19.1102                10.2911                12.5219

                     22                     23                     24
                      A                      A                      A
 Frequencies --   2976.2535              3112.8581              3116.5320
 Red. masses --      1.0558                 1.0750                 1.0548
 Frc consts  --      5.5104                 6.1374                 6.0363
 IR Inten    --     64.2302                15.3078                 8.1871

                     25                     26                     27
                      A                      A                      A
 Frequencies --   3164.7025              3222.9034              3583.0850
 Red. masses --      1.1056                 1.1172                 1.0666
 Frc consts  --      6.5238                 6.8371                 8.0677
 IR Inten    --      7.7898                 8.4490                 2.1700

 - Thermochemistry -
 -------------------
 Temperature   298.150 Kelvin.  Pressure   1.00000 Atm.
 Atom     1 has atomic number  6 and mass  12.00000

 Molecular mass:    74.04801 amu.
 Principal axes and moments of inertia in atomic units:
                           1         2         3
     Eigenvalues --   193.04572 393.29387 547.85330
           X            0.99839  -0.05666   0.00391
           Y            0.05659   0.99828   0.01540
           Z           -0.00478  -0.01515   0.99987
 This molecule is an asymmetric top.
 Rotational symmetry number  1.
 Rotational temperatures (Kelvin)      0.44867     0.22023     0.15810
 Rotational constants (GHZ):           9.34878     4.58879     3.29421
 Zero-point vibrational energy     233612.2 (Joules/Mol)
                                   55.83466 (Kcal/Mol)
 Warning -- explicit consideration of   6 degrees of freedom as
           vibrations may cause significant error
 Vibrational temperatures:    287.73   373.56   486.49   540.25   590.36
          (Kelvin)            651.98   917.47  1122.08  1178.31  1349.87
                             1381.17  1622.40  1677.87  1751.09  1781.64
                             2011.78  2065.70  2106.42  2134.95  2157.93
                             2414.63  4282.16  4478.70  4483.99  4553.30
                             4637.03  5155.25

 Zero-point correction=                           0.088978 (Hartree/Particle)
 Thermal correction to Energy=                    0.094605
 Thermal correction to Enthalpy=                  0.095549
 Thermal correction to Gibbs Free Energy=         0.060801
 Sum of electronic and zero-point Energies=           -264.375677
 Sum of electronic and thermal Energies=              -264.370050
 Sum of electronic and thermal Enthalpies=            -264.369106
 Sum of electronic and thermal Free Energies=         -264.403855

                     E (Thermal)             CV                S
                      KCal/Mol        Cal/Mol-Kelvin    Cal/Mol-Kelvin
 Total                   59.366             19.942             73.134
 Electronic               0.000              0.000              0.000
 Translational            0.889              2.981             38.822
 Rotational               0.889              2.981             25.234
 Vibrational             57.588             13.980              9.077
 Vibration     1          0.638              1.840              2.133
 Vibration     2          0.668              1.746              1.664
 Vibration     3          0.718              1.599              1.221
 Vibration     4          0.746              1.522              1.057
 Vibration     5          0.774              1.448              0.925
 Vibration     6          0.812              1.354              0.786

 Optimization completed.
    -- Stationary point found.
 Normal termination of Gaussian 09 at Fri Aug 19 08:53:31 2022.

 -----------------------------------------------------------------
 #P Geom=AllCheck Guess=TCheck SCRF=Check CCSD(T,E4T,FrzG4)/GTBas1
 -----------------------------------------------------------------

 Structure from the checkpoint file:  "G4.Frag_1110.chk"
 ---------
 Frag_1110
 ---------
 Charge =  0 Multiplicity = 1

 SCF Done:  E(RHF) =  -262.861046839     A.U. after   13 cycles
 E2 =    -0.7674478376D+00 EUMP2 =    -0.26362849467664D+03
 CCSD(T)
 CCSD(T)= -0.26369290468D+03
 \MP4SDQ=-263.6660746\CCSD=-263.6662702\CCSD(T)=-263.6929047\RMSD=8.948
 Normal termination of Gaussian 09 at Fri Aug 19 08:55:19 2022.

 ---------------------------------------------------------
 #P Geom=AllCheck Guess=TCheck SCRF=Check MP4=FrzG4/GTBas2
 ---------------------------------------------------------

 Structure from the checkpoint file:  "G4.Frag_1110.chk"
 ---------
 Frag_1110
 ---------
 Charge =  0 Multiplicity = 1

 SCF Done:  E(RHF) =  -262.869661398     A.U. after   13 cycles
 E2 =    -0.7788015603D+00 EUMP2 =    -0.26364846295864D+03
 Normal termination of Gaussian 09 at Fri Aug 19 08:57:12 2022.

 ---------------------------------------------------------
 #P Geom=AllCheck Guess=TCheck SCRF=Check MP4=FrzG4/GTBas3
 ---------------------------------------------------------

 Structure from the checkpoint file:  "G4.Frag_1110.chk"
 ---------
 Frag_1110
 ---------
 Charge =  0 Multiplicity = 1

 SCF Done:  E(RHF) =  -262.894615617     A.U. after   12 cycles
 E2 =    -0.9343256107D+00 EUMP2 =    -0.26382894122769D+03
 Normal termination of Gaussian 09 at Fri Aug 19 09:32:26 2022.

 -----------------------------------------------------------
 #P Geom=AllCheck Guess=TCheck SCRF=Check MP2=Full/GTLargeXP
 -----------------------------------------------------------

 Structure from the checkpoint file:  "G4.Frag_1110.chk"
 ---------
 Frag_1110
 ---------
 Charge =  0 Multiplicity = 1

 SCF Done:  E(RHF) =  -262.964521707     A.U. after   12 cycles
 E2 =    -0.1218033068D+01 EUMP2 =    -0.26418255477528D+03
 Normal termination of Gaussian 09 at Fri Aug 19 09:34:40 2022.
 SCF Done:  E(RHF) =  -262.985530539     A.U. after   10 cycles
 Normal termination of Gaussian 09 at Fri Aug 19 09:37:59 2022.

                         Standard orientation:
 ---------------------------------------------------------------------
 Center     Atomic      Atomic             Coordinates (Angstroms)
 Number     Number       Type             X           Y           Z
 ---------------------------------------------------------------------
      1          6           0       -1.836145   -0.164592    0.122281
      2          7           0       -0.724626   -0.746498   -0.111143
      3          7           0        0.386160   -0.016095   -0.388289
      4          6           0        1.591473   -0.620442    0.164812
      5          8           0        0.326378    1.358082   -0.055391
      6          1           0       -2.700977   -0.800675    0.277738
      7          1           0       -1.960625    0.916223    0.135375
      8          1           0        2.456793   -0.082422   -0.223489
      9          1           0        1.622911   -1.663101   -0.152927
     10          1           0        1.600145   -0.583089    1.266571
     11          1           0        0.208022    1.396763    0.913325
 ---------------------------------------------------------------------

 SCF Done:  E(RHF) =  -262.989980946     A.U. after    8 cycles

 The electronic state is 1-A.
 Alpha  occ. eigenvalues --  -20.60244 -15.65030 -15.60975 -11.26925 -11.25960
 Alpha  occ. eigenvalues --   -1.44467  -1.27164  -1.09915  -0.92585  -0.81244
 Alpha  occ. eigenvalues --   -0.72714  -0.68878  -0.67141  -0.60651  -0.57080
 Alpha  occ. eigenvalues --   -0.56394  -0.51030  -0.49985  -0.44583  -0.36052
 Alpha virt. eigenvalues --    0.03955   0.04211   0.05022   0.05466   0.06846
 Alpha virt. eigenvalues --    0.07081   0.07404   0.10230   0.11525   0.12128
 Alpha virt. eigenvalues --    0.13441   0.13803   0.15249   0.15585   0.16086

 Mulliken charges:
               1
     1  C   -0.286913
     2  N   -0.265965
     3  N    0.132889
     4  C   -0.426122
     5  O   -0.482842
     6  H    0.226635
     7  H    0.208597
     8  H    0.201886
     9  H    0.205771
    10  H    0.145173
    11  H    0.340891
 Sum of Mulliken charges =  -0.00000

 Dipole moment (field-independent basis, Debye):
    X=             -0.1687    Y=              0.2019    Z=              2.1221  Tot=              2.1383
 Quadrupole moment (field-independent basis, Debye-Ang):
   XX=            -25.2610   YY=            -33.0122   ZZ=            -31.1735
   XY=             -2.3009   XZ=              0.0625   YZ=              2.2043

 Normal termination of Gaussian 09 at Fri Aug 19 11:01:05 2022.
