 Gaussian 09, Revision E.01,
 Gaussian 09:  ES64L-G09RevE.01 30-Nov-2015

 -----
 #P G4
 -----

 --------
 Frag_450
 --------
 Symbolic Z-matrix:
 Charge =  0 Multiplicity = 1

 SCF Done:  E(RB3LYP) =  -308.447272540     A.U. after   12 cycles
 SCF Done:  E(RB3LYP) =  -308.451739393     A.U. after   11 cycles
 SCF Done:  E(RB3LYP) =  -308.452053916     A.U. after   10 cycles
 SCF Done:  E(RB3LYP) =  -308.452158519     A.U. after   10 cycles
 SCF Done:  E(RB3LYP) =  -308.452185362     A.U. after   10 cycles
 SCF Done:  E(RB3LYP) =  -308.452203225     A.U. after    9 cycles
 SCF Done:  E(RB3LYP) =  -308.452204291     A.U. after    7 cycles
 SCF Done:  E(RB3LYP) =  -308.452204362     A.U. after    6 cycles
 Optimization completed.
    -- Stationary point found.
 Normal termination of Gaussian 09 at Fri Aug 26 08:37:11 2022.

 ----------------------------------------------------------
 #P Geom=AllCheck Guess=TCheck SCRF=Check B3LYP/GTBas3 Freq
 ----------------------------------------------------------

 Structure from the checkpoint file:  "G4.Frag_450.chk"
 --------
 Frag_450
 --------
 Charge =  0 Multiplicity = 1

 SCF Done:  E(RB3LYP) =  -308.452204362     A.U. after    1 cycles

  Exact polarizability:  76.834   0.608  71.085  -0.581   0.040  65.853
 Approx polarizability: 101.926   2.165  99.372  -0.453   0.102  96.085

                      1                      2                      3
                      A                      A                      A
 Frequencies --     91.5894               196.2177               228.1629
 Red. masses --      2.5281                 1.0490                 1.2642
 Frc consts  --      0.0125                 0.0238                 0.0388
 IR Inten    --      0.3890                 0.4094                 2.7290

                      4                      5                      6
                      A                      A                      A
 Frequencies --    245.3657               266.8565               277.3558
 Red. masses --      1.0547                 1.4991                 1.5966
 Frc consts  --      0.0374                 0.0629                 0.0724
 IR Inten    --      0.4568                 1.7141                 2.2792

                      7                      8                      9
                      A                      A                      A
 Frequencies --    314.6051               333.2191               357.5996
 Red. masses --      1.7363                 1.1831                 2.3951
 Frc consts  --      0.1013                 0.0774                 0.1805
 IR Inten    --      1.7000                29.9725                 1.6517

                     10                     11                     12
                      A                      A                      A
 Frequencies --    378.5831               402.5019               471.6992
 Red. masses --      2.0159                 2.2132                 2.2137
 Frc consts  --      0.1702                 0.2113                 0.2902
 IR Inten    --      0.6502                 0.7335                 1.2726

                     13                     14                     15
                      A                      A                      A
 Frequencies --    490.4912               514.8785               690.3010
 Red. masses --      2.8275                 2.8987                 3.6132
 Frc consts  --      0.4008                 0.4528                 1.0144
 IR Inten    --      5.1127                 4.0385                 4.1942

                     16                     17                     18
                      A                      A                      A
 Frequencies --    820.2073               903.5525               913.8657
 Red. masses --      2.7609                 2.1635                 1.7133
 Frc consts  --      1.0943                 1.0407                 0.8430
 IR Inten    --      8.2408                63.1483                 2.2417

                     19                     20                     21
                      A                      A                      A
 Frequencies --    927.8541               956.7197              1025.1442
 Red. masses --      1.6172                 1.2157                 1.4875
 Frc consts  --      0.8203                 0.6556                 0.9210
 IR Inten    --      0.4497                 0.6847                 4.8174

                     22                     23                     24
                      A                      A                      A
 Frequencies --   1038.3950              1064.4437              1137.6226
 Red. masses --      1.4151                 1.3521                 1.6095
 Frc consts  --      0.8990                 0.9026                 1.2273
 IR Inten    --      1.8957                20.3146                13.3371

                     25                     26                     27
                      A                      A                      A
 Frequencies --   1158.6944              1213.4398              1245.8726
 Red. masses --      2.5540                 2.0467                 2.5515
 Frc consts  --      2.0202                 1.7755                 2.3334
 IR Inten    --      2.8558                32.5955                14.4942

                     28                     29                     30
                      A                      A                      A
 Frequencies --   1273.6383              1285.5406              1323.3114
 Red. masses --      3.0933                 2.6321                 1.2425
 Frc consts  --      2.9564                 2.5629                 1.2819
 IR Inten    --     11.9681                13.5998                 7.5475

                     31                     32                     33
                      A                      A                      A
 Frequencies --   1386.1555              1391.8371              1419.6904
 Red. masses --      1.2581                 1.2617                 1.2327
 Frc consts  --      1.4243                 1.4401                 1.4639
 IR Inten    --     10.8363                 8.6376                10.4075

                     34                     35                     36
                      A                      A                      A
 Frequencies --   1448.7095              1469.3249              1485.5335
 Red. masses --      1.1664                 1.0499                 1.0531
 Frc consts  --      1.4423                 1.3355                 1.3693
 IR Inten    --      0.7432                 0.2199                 9.7558

                     37                     38                     39
                      A                      A                      A
 Frequencies --   1489.1111              1494.5525              1496.2599
 Red. masses --      1.0485                 1.0503                 1.0536
 Frc consts  --      1.3699                 1.3822                 1.3898
 IR Inten    --      4.3377                 1.6507                 1.8805

                     40                     41                     42
                      A                      A                      A
 Frequencies --   1505.1891              1510.2867              1524.4214
 Red. masses --      1.0549                 1.0535                 1.0573
 Frc consts  --      1.4081                 1.4159                 1.4476
 IR Inten    --      1.1409                 1.5164                 5.0323

                     43                     44                     45
                      A                      A                      A
 Frequencies --   1671.9862              2923.7202              3032.4406
 Red. masses --      1.0800                 1.0608                 1.0353
 Frc consts  --      1.7788                 5.3428                 5.6093
 IR Inten    --     12.5384                68.3065                22.7986

                     46                     47                     48
                      A                      A                      A
 Frequencies --   3036.6029              3043.8790              3062.4020
 Red. masses --      1.0356                 1.0376                 1.0748
 Frc consts  --      5.6262                 5.6639                 5.9386
 IR Inten    --     21.3065                16.5092                40.4501

                     49                     50                     51
                      A                      A                      A
 Frequencies --   3095.9977              3104.7133              3107.2365
 Red. masses --      1.1006                 1.1014                 1.1014
 Frc consts  --      6.2155                 6.2553                 6.2651
 IR Inten    --     13.1275                12.1760                39.3253

                     52                     53                     54
                      A                      A                      A
 Frequencies --   3112.6106              3114.6291              3124.5048
 Red. masses --      1.1013                 1.1010                 1.0964
 Frc consts  --      6.2865                 6.2928                 6.3067
 IR Inten    --     23.4091                40.1689                27.2286

                     55                     56                     57
                      A                      A                      A
 Frequencies --   3144.5177              3376.0634              3523.2821
 Red. masses --      1.0986                 1.0567                 1.0837
 Frc consts  --      6.4001                 7.0965                 7.9261
 IR Inten    --     14.9820                16.2389                 0.0509

 - Thermochemistry -
 -------------------
 Temperature   298.150 Kelvin.  Pressure   1.00000 Atm.
 Atom     1 has atomic number  6 and mass  12.00000

 Molecular mass:   102.11570 amu.
 Principal axes and moments of inertia in atomic units:
                           1         2         3
     Eigenvalues --   575.73122 784.79376 936.36132
           X            0.99945  -0.03014  -0.01386
           Y            0.03014   0.99955  -0.00032
           Z            0.01386  -0.00010   0.99990
 This molecule is an asymmetric top.
 Rotational symmetry number  1.
 Warning -- assumption of classical behavior for rotation
           may cause significant error
 Rotational temperatures (Kelvin)      0.15044     0.11037     0.09250
 Rotational constants (GHZ):           3.13469     2.29964     1.92740
 Zero-point vibrational energy     506279.9 (Joules/Mol)
                                  121.00379 (Kcal/Mol)
 Warning -- explicit consideration of  14 degrees of freedom as
           vibrations may cause significant error
 Vibrational temperatures:    131.78   282.31   328.28   353.03   383.95
          (Kelvin)            399.05   452.65   479.43   514.51   544.70
                              579.11   678.67   705.71   740.79   993.19
                             1180.09  1300.01  1314.85  1334.97  1376.50
                             1474.95  1494.02  1531.50  1636.78  1667.10
                             1745.87  1792.53  1832.48  1849.60  1903.95
                             1994.37  2002.54  2042.62  2084.37  2114.03
                             2137.35  2142.50  2150.32  2152.78  2165.63
                             2172.96  2193.30  2405.61  4206.58  4363.00
                             4368.99  4379.46  4406.11  4454.44  4466.98
                             4470.61  4478.35  4481.25  4495.46  4524.25
                             4857.40  5069.21

 Zero-point correction=                           0.192832 (Hartree/Particle)
 Thermal correction to Energy=                    0.202025
 Thermal correction to Enthalpy=                  0.202969
 Thermal correction to Gibbs Free Energy=         0.160507
 Sum of electronic and zero-point Energies=           -308.259373
 Sum of electronic and thermal Energies=              -308.250179
 Sum of electronic and thermal Enthalpies=            -308.249235
 Sum of electronic and thermal Free Energies=         -308.291697

                     E (Thermal)             CV                S
                      KCal/Mol        Cal/Mol-Kelvin    Cal/Mol-Kelvin
 Total                  126.773             35.075             89.370
 Electronic               0.000              0.000              0.000
 Translational            0.889              2.981             39.780
 Rotational               0.889              2.981             27.539
 Vibrational            124.995             29.113             22.050
 Vibration     1          0.602              1.955              3.626
 Vibration     2          0.636              1.845              2.168
 Vibration     3          0.651              1.798              1.893
 Vibration     4          0.660              1.770              1.764
 Vibration     5          0.672              1.734              1.616
 Vibration     6          0.678              1.715              1.550
 Vibration     7          0.702              1.646              1.338
 Vibration     8          0.715              1.609              1.244
 Vibration     9          0.733              1.560              1.133
 Vibration    10          0.749              1.516              1.045
 Vibration    11          0.768              1.465              0.954
 Vibration    12          0.829              1.313              0.733
 Vibration    13          0.846              1.271              0.682
 Vibration    14          0.870              1.217              0.622

 Optimization completed.
    -- Stationary point found.
 Normal termination of Gaussian 09 at Fri Aug 26 08:38:17 2022.

 -----------------------------------------------------------------
 #P Geom=AllCheck Guess=TCheck SCRF=Check CCSD(T,E4T,FrzG4)/GTBas1
 -----------------------------------------------------------------

 Structure from the checkpoint file:  "G4.Frag_450.chk"
 --------
 Frag_450
 --------
 Charge =  0 Multiplicity = 1

 SCF Done:  E(RHF) =  -306.332781153     A.U. after   12 cycles
 E2 =    -0.9963658039D+00 EUMP2 =    -0.30732914695640D+03
 CCSD(T)
 CCSD(T)= -0.30743934938D+03
 Q=-307.4373505\MP4SDQ=-307.4055214\CCSD=-307.407073\CCSD(T)=-307.43934
 Normal termination of Gaussian 09 at Fri Aug 26 08:43:35 2022.

 ---------------------------------------------------------
 #P Geom=AllCheck Guess=TCheck SCRF=Check MP4=FrzG4/GTBas2
 ---------------------------------------------------------

 Structure from the checkpoint file:  "G4.Frag_450.chk"
 --------
 Frag_450
 --------
 Charge =  0 Multiplicity = 1

 SCF Done:  E(RHF) =  -306.339439910     A.U. after   12 cycles
 E2 =    -0.1010379881D+01 EUMP2 =    -0.30734981979077D+03
 Normal termination of Gaussian 09 at Fri Aug 26 08:45:17 2022.

 ---------------------------------------------------------
 #P Geom=AllCheck Guess=TCheck SCRF=Check MP4=FrzG4/GTBas3
 ---------------------------------------------------------

 Structure from the checkpoint file:  "G4.Frag_450.chk"
 --------
 Frag_450
 --------
 Charge =  0 Multiplicity = 1

 SCF Done:  E(RHF) =  -306.374425959     A.U. after   10 cycles
 E2 =    -0.1239205775D+01 EUMP2 =    -0.30761363173352D+03
 Normal termination of Gaussian 09 at Fri Aug 26 09:01:08 2022.

 -----------------------------------------------------------
 #P Geom=AllCheck Guess=TCheck SCRF=Check MP2=Full/GTLargeXP
 -----------------------------------------------------------

 Structure from the checkpoint file:  "G4.Frag_450.chk"
 --------
 Frag_450
 --------
 Charge =  0 Multiplicity = 1

 SCF Done:  E(RHF) =  -306.443277205     A.U. after   11 cycles
 E2 =    -0.1621262160D+01 EUMP2 =    -0.30806453936493D+03
 Normal termination of Gaussian 09 at Fri Aug 26 09:06:50 2022.
 SCF Done:  E(RHF) =  -306.467020255     A.U. after    8 cycles
 Normal termination of Gaussian 09 at Fri Aug 26 09:11:59 2022.

                         Standard orientation:
 ---------------------------------------------------------------------
 Center     Atomic      Atomic             Coordinates (Angstroms)
 Number     Number       Type             X           Y           Z
 ---------------------------------------------------------------------
      1          6           0       -1.632827    1.119389   -0.053135
      2          7           0       -0.809752   -0.018782   -0.435698
      3          7           0       -1.423578   -1.250477   -0.050212
      4          6           0        0.614640    0.010372    0.000821
      5          6           0        1.246481    1.338681   -0.449044
      6          6           0        0.771434   -0.151696    1.528164
      7          6           0        1.337319   -1.140147   -0.719703
      8          1           0       -2.616761    1.006765   -0.520334
      9          1           0       -1.203029    2.055737   -0.413739
     10          1           0       -1.791522    1.208879    1.038720
     11          1           0       -1.905347   -1.143650    0.846933
     12          1           0       -2.138762   -1.460992   -0.740400
     13          1           0        1.023983    1.533633   -1.502789
     14          1           0        0.902162    2.191502    0.142989
     15          1           0        2.333041    1.283120   -0.335738
     16          1           0        0.264293    0.649943    2.075942
     17          1           0        1.828527   -0.121125    1.811036
     18          1           0        0.364925   -1.110888    1.860756
     19          1           0        2.394680   -1.160915   -0.436787
     20          1           0        1.270448   -1.008161   -1.803991
     21          1           0        0.884397   -2.098629   -0.463841
 ---------------------------------------------------------------------

 SCF Done:  E(RHF) =  -306.472150838     A.U. after    8 cycles

 The electronic state is 1-A.
 Alpha  occ. eigenvalues --  -15.56620 -15.56256 -11.25627 -11.24202 -11.20778
 Alpha  occ. eigenvalues --  -11.20521 -11.19447  -1.27880  -1.09380  -1.02028
 Alpha  occ. eigenvalues --   -0.92818  -0.92334  -0.88378  -0.73012  -0.67388
 Alpha  occ. eigenvalues --   -0.64194  -0.63740  -0.59935  -0.58274  -0.55558
 Alpha  occ. eigenvalues --   -0.55038  -0.52626  -0.52288  -0.50596  -0.48860
 Alpha  occ. eigenvalues --   -0.46621  -0.45847  -0.40416  -0.35836
 Alpha virt. eigenvalues --    0.03248   0.03993   0.04346   0.04572   0.06112
 Alpha virt. eigenvalues --    0.06587   0.06682   0.07302   0.07370   0.09325
 Alpha virt. eigenvalues --    0.09511   0.09746   0.10161   0.10444   0.10990

 Mulliken charges:
               1
     1  C   -0.508889
     2  N   -0.020450
     3  N   -0.710551
     4  C    0.482435
     5  C   -0.629622
     6  C   -0.623928
     7  C   -0.635560
     8  H    0.164796
     9  H    0.177409
    10  H    0.136255
    11  H    0.284027
    12  H    0.314301
    13  H    0.183621
    14  H    0.165162
    15  H    0.178840
    16  H    0.162795
    17  H    0.167805
    18  H    0.179339
    19  H    0.160818
    20  H    0.166926
    21  H    0.204471
 Sum of Mulliken charges =  -0.00000

 Dipole moment (field-independent basis, Debye):
    X=             -1.0010    Y=              0.8781    Z=              0.7322  Tot=              1.5196
 Quadrupole moment (field-independent basis, Debye-Ang):
   XX=            -42.7672   YY=            -48.5110   ZZ=            -47.7761
   XY=              0.9790   XZ=             -0.2189   YZ=             -0.1077

 Normal termination of Gaussian 09 at Fri Aug 26 09:28:41 2022.
