 Gaussian 09, Revision E.01,
 Gaussian 09:  ES64L-G09RevE.01 30-Nov-2015

 -----
 #P G4
 -----

 --------
 Frag_666
 --------
 Symbolic Z-matrix:
 Charge =  0 Multiplicity = 1

 SCF Done:  E(RB3LYP) =  -299.932835211     A.U. after   14 cycles
 SCF Done:  E(RB3LYP) =  -299.948913113     A.U. after   12 cycles
 SCF Done:  E(RB3LYP) =  -299.951169704     A.U. after   11 cycles
 SCF Done:  E(RB3LYP) =  -299.953793749     A.U. after   12 cycles
 SCF Done:  E(RB3LYP) =  -299.956264748     A.U. after   12 cycles
 SCF Done:  E(RB3LYP) =  -299.957765694     A.U. after   12 cycles
 SCF Done:  E(RB3LYP) =  -299.959164840     A.U. after   11 cycles
 SCF Done:  E(RB3LYP) =  -299.959761211     A.U. after   11 cycles
 SCF Done:  E(RB3LYP) =  -299.959943106     A.U. after   10 cycles
 SCF Done:  E(RB3LYP) =  -299.960117555     A.U. after   11 cycles
 SCF Done:  E(RB3LYP) =  -299.962264393     A.U. after    9 cycles
 SCF Done:  E(RB3LYP) =  -299.962266086     A.U. after    8 cycles
 SCF Done:  E(RB3LYP) =  -299.962266261     A.U. after    7 cycles
 Optimization completed.
    -- Stationary point found.
 Normal termination of Gaussian 09 at Mon Aug 22 00:45:30 2022.

 ----------------------------------------------------------
 #P Geom=AllCheck Guess=TCheck SCRF=Check B3LYP/GTBas3 Freq
 ----------------------------------------------------------

 Structure from the checkpoint file:  "G4.Frag_666.chk"
 --------
 Frag_666
 --------
 Charge =  0 Multiplicity = 1

 SCF Done:  E(RB3LYP) =  -299.962266261     A.U. after    1 cycles

  Exact polarizability:  60.288   3.936  65.341   1.141   1.308  35.099
 Approx polarizability:  80.850   9.297  99.668   3.322   4.554  55.263

                      1                      2                      3
                      A                      A                      A
 Frequencies --     77.8984               215.2929               236.0423
 Red. masses --      3.3179                 1.3878                 1.1248
 Frc consts  --      0.0119                 0.0379                 0.0369
 IR Inten    --      1.5691                26.3501                87.8857

                      4                      5                      6
                      A                      A                      A
 Frequencies --    336.2233               351.2037               399.7735
 Red. masses --      3.0751                 1.9421                 1.1986
 Frc consts  --      0.2048                 0.1411                 0.1129
 IR Inten    --      0.5704                 8.8810                26.2212

                      7                      8                      9
                      A                      A                      A
 Frequencies --    449.7292               510.5853               544.5169
 Red. masses --      2.3910                 2.4765                 3.0801
 Frc consts  --      0.2849                 0.3804                 0.5381
 IR Inten    --      2.7014                17.7877                19.6671

                     10                     11                     12
                      A                      A                      A
 Frequencies --    613.7783               703.4800               743.7809
 Red. masses --      1.8116                 1.3082                 3.6294
 Frc consts  --      0.4021                 0.3814                 1.1830
 IR Inten    --     64.4087                13.4791                66.3609

                     13                     14                     15
                      A                      A                      A
 Frequencies --    782.4769               796.3425               879.7668
 Red. masses --      1.5185                 1.5203                 1.8707
 Frc consts  --      0.5478                 0.5681                 0.8531
 IR Inten    --     72.0731               115.7840                92.1233

                     16                     17                     18
                      A                      A                      A
 Frequencies --    944.3338               971.1065              1108.4687
 Red. masses --      1.9252                 1.6329                 1.9655
 Frc consts  --      1.0115                 0.9073                 1.4229
 IR Inten    --     89.0321                 2.8028                15.1039

                     19                     20                     21
                      A                      A                      A
 Frequencies --   1143.9063              1234.9130              1295.1931
 Red. masses --      1.8268                 1.8724                 1.3401
 Frc consts  --      1.4084                 1.6824                 1.3245
 IR Inten    --     37.0980                 5.5911                17.5034

                     22                     23                     24
                      A                      A                      A
 Frequencies --   1353.5873              1386.7927              1435.8698
 Red. masses --      1.2449                 3.0744                 1.2533
 Frc consts  --      1.3438                 3.4837                 1.5224
 IR Inten    --     20.1611                45.9958                 6.0251

                     25                     26                     27
                      A                      A                      A
 Frequencies --   1632.4623              1657.6514              1669.1616
 Red. masses --      1.2010                 1.0936                 1.2502
 Frc consts  --      1.8857                 1.7704                 2.0523
 IR Inten    --     71.2878                 0.8305                38.4403

                     28                     29                     30
                      A                      A                      A
 Frequencies --   1717.6727              3175.8704              3294.7977
 Red. masses --      2.7730                 1.0648                 1.1095
 Frc consts  --      4.8203                 6.3278                 7.0962
 IR Inten    --    116.4225                 7.9132                 3.1312

                     31                     32                     33
                      A                      A                      A
 Frequencies --   3379.3589              3385.8024              3545.1999
 Red. masses --      1.0551                 1.0573                 1.0490
 Frc consts  --      7.0995                 7.1415                 7.7680
 IR Inten    --     22.8047                 9.5645                 2.1419

                     34                     35                     36
                      A                      A                      A
 Frequencies --   3552.7999              3555.4057              3638.0022
 Red. masses --      1.0839                 1.0850                 1.0940
 Frc consts  --      8.0612                 8.0806                 8.5305
 IR Inten    --      5.5311                 2.3588                 9.8841

 - Thermochemistry -
 -------------------
 Temperature   298.150 Kelvin.  Pressure   1.00000 Atm.
 Atom     1 has atomic number  6 and mass  12.00000

 Molecular mass:    88.07490 amu.
 Principal axes and moments of inertia in atomic units:
                           1         2         3
     Eigenvalues --   360.12437 508.57770 826.67057
           X            0.99999  -0.00044   0.00388
           Y            0.00045   0.99999  -0.00327
           Z           -0.00388   0.00328   0.99999
 This molecule is an asymmetric top.
 Rotational symmetry number  1.
 Rotational temperatures (Kelvin)      0.24051     0.17031     0.10477
 Rotational constants (GHZ):           5.01144     3.54860     2.18314
 Zero-point vibrational energy     315331.1 (Joules/Mol)
                                   75.36595 (Kcal/Mol)
 Warning -- explicit consideration of  10 degrees of freedom as
           vibrations may cause significant error
 Vibrational temperatures:    112.08   309.76   339.61   483.75   505.30
          (Kelvin)            575.18   647.06   734.62   783.44   883.09
                             1012.15  1070.13  1125.81  1145.76  1265.79
                             1358.68  1397.20  1594.84  1645.82  1776.76
                             1863.49  1947.51  1995.28  2065.89  2348.75
                             2384.99  2401.55  2471.34  4569.36  4740.47
                             4862.14  4871.41  5100.75  5111.68  5115.43
                             5234.27

 Zero-point correction=                           0.120103 (Hartree/Particle)
 Thermal correction to Energy=                    0.127249
 Thermal correction to Enthalpy=                  0.128194
 Thermal correction to Gibbs Free Energy=         0.089699
 Sum of electronic and zero-point Energies=           -299.842163
 Sum of electronic and thermal Energies=              -299.835017
 Sum of electronic and thermal Enthalpies=            -299.834073
 Sum of electronic and thermal Free Energies=         -299.872567

                     E (Thermal)             CV                S
                      KCal/Mol        Cal/Mol-Kelvin    Cal/Mol-Kelvin
 Total                   79.850             26.550             81.018
 Electronic               0.000              0.000              0.000
 Translational            0.889              2.981             39.340
 Rotational               0.889              2.981             26.518
 Vibrational             78.073             20.588             15.161
 Vibration     1          0.599              1.964              3.943
 Vibration     2          0.645              1.818              1.998
 Vibration     3          0.655              1.786              1.833
 Vibration     4          0.717              1.603              1.230
 Vibration     5          0.728              1.573              1.161
 Vibration     6          0.766              1.471              0.963
 Vibration     7          0.809              1.361              0.797
 Vibration     8          0.866              1.227              0.632
 Vibration     9          0.900              1.152              0.556
 Vibration    10          0.973              1.003              0.427

 Optimization completed.
    -- Stationary point found.
 Normal termination of Gaussian 09 at Mon Aug 22 00:47:51 2022.

 -----------------------------------------------------------------
 #P Geom=AllCheck Guess=TCheck SCRF=Check CCSD(T,E4T,FrzG4)/GTBas1
 -----------------------------------------------------------------

 Structure from the checkpoint file:  "G4.Frag_666.chk"
 --------
 Frag_666
 --------
 Charge =  0 Multiplicity = 1

 SCF Done:  E(RHF) =  -298.069476194     A.U. after   12 cycles
 E2 =    -0.9102785449D+00 EUMP2 =    -0.29897975473902D+03
 CCSD(T)
 CCSD(T)= -0.29905921948D+03
 SDQ=-299.0287138\CCSD=-299.02949\CCSD(T)=-299.0592195\RMSD=8.428e-09\P
 Normal termination of Gaussian 09 at Mon Aug 22 00:54:04 2022.

 ---------------------------------------------------------
 #P Geom=AllCheck Guess=TCheck SCRF=Check MP4=FrzG4/GTBas2
 ---------------------------------------------------------

 Structure from the checkpoint file:  "G4.Frag_666.chk"
 --------
 Frag_666
 --------
 Charge =  0 Multiplicity = 1

 SCF Done:  E(RHF) =  -298.082962030     A.U. after   12 cycles
 E2 =    -0.9257238324D+00 EUMP2 =    -0.29900868586273D+03
 Normal termination of Gaussian 09 at Mon Aug 22 01:00:13 2022.

 ---------------------------------------------------------
 #P Geom=AllCheck Guess=TCheck SCRF=Check MP4=FrzG4/GTBas3
 ---------------------------------------------------------

 Structure from the checkpoint file:  "G4.Frag_666.chk"
 --------
 Frag_666
 --------
 Charge =  0 Multiplicity = 1

 SCF Done:  E(RHF) =  -298.115880443     A.U. after   11 cycles
 E2 =    -0.1107088011D+01 EUMP2 =    -0.29922296845402D+03
 Normal termination of Gaussian 09 at Mon Aug 22 03:30:38 2022.

 -----------------------------------------------------------
 #P Geom=AllCheck Guess=TCheck SCRF=Check MP2=Full/GTLargeXP
 -----------------------------------------------------------

 Structure from the checkpoint file:  "G4.Frag_666.chk"
 --------
 Frag_666
 --------
 Charge =  0 Multiplicity = 1

 SCF Done:  E(RHF) =  -298.196296268     A.U. after   12 cycles
 E2 =    -0.1444597018D+01 EUMP2 =    -0.29964089328589D+03
 Normal termination of Gaussian 09 at Mon Aug 22 03:36:20 2022.
 SCF Done:  E(RHF) =  -298.219386066     A.U. after    9 cycles
 Normal termination of Gaussian 09 at Mon Aug 22 03:42:15 2022.

                         Standard orientation:
 ---------------------------------------------------------------------
 Center     Atomic      Atomic             Coordinates (Angstroms)
 Number     Number       Type             X           Y           Z
 ---------------------------------------------------------------------
      1          6           0        1.306601    1.326641    0.167349
      2          6           0        0.733728    0.134585   -0.056390
      3          7           0        1.468123   -1.060177   -0.186431
      4          7           0       -0.648507   -0.043688   -0.320427
      5          7           0       -1.407836    1.118135   -0.082907
      6          7           0       -1.265798   -1.212676    0.215938
      7          1           0        2.380815    1.392562    0.292153
      8          1           0        0.734481    2.238703    0.130317
      9          1           0        2.433800   -0.924909    0.080118
     10          1           0        1.080154   -1.839167    0.328868
     11          1           0       -2.293923    0.978421   -0.557446
     12          1           0       -1.614656    1.198902    0.916630
     13          1           0       -1.062044   -1.996512   -0.395463
     14          1           0       -0.922477   -1.426514    1.155860
 ---------------------------------------------------------------------

 SCF Done:  E(RHF) =  -298.224366482     A.U. after    8 cycles

 The electronic state is 1-A.
 Alpha  occ. eigenvalues --  -15.62108 -15.58939 -15.57393 -15.56571 -11.30098
 Alpha  occ. eigenvalues --  -11.18773  -1.34892  -1.21215  -1.15642  -1.02859
 Alpha  occ. eigenvalues --   -0.94129  -0.77124  -0.72404  -0.70118  -0.68263
 Alpha  occ. eigenvalues --   -0.65150  -0.60572  -0.59758  -0.54542  -0.50486
 Alpha  occ. eigenvalues --   -0.45322  -0.43046  -0.40262  -0.30529
 Alpha virt. eigenvalues --    0.03468   0.04582   0.05092   0.05872   0.07147
 Alpha virt. eigenvalues --    0.07595   0.08378   0.09105   0.09494   0.10379
 Alpha virt. eigenvalues --    0.10834   0.11787   0.12842   0.12857   0.13092

 Mulliken charges:
               1
     1  C   -0.552324
     2  C    0.291641
     3  N   -0.704674
     4  N   -0.002468
     5  N   -0.589047
     6  N   -0.643697
     7  H    0.158158
     8  H    0.227375
     9  H    0.312757
    10  H    0.290607
    11  H    0.312932
    12  H    0.279429
    13  H    0.330604
    14  H    0.288706
 Sum of Mulliken charges =  -0.00000

 Dipole moment (field-independent basis, Debye):
    X=             -0.0541    Y=             -2.2139    Z=              2.0894  Tot=              3.0446
 Quadrupole moment (field-independent basis, Debye-Ang):
   XX=            -34.1564   YY=            -35.3399   ZZ=            -39.3358
   XY=             -2.6186   XZ=              1.3585   YZ=             -1.2279

 Normal termination of Gaussian 09 at Mon Aug 22 06:23:24 2022.
