 Gaussian 09, Revision E.01,
 Gaussian 09:  ES64L-G09RevE.01 30-Nov-2015

 -----
 #P G4
 -----

 ---------
 Frag_1161
 ---------
 Symbolic Z-matrix:
 Charge =  0 Multiplicity = 1

 SCF Done:  E(RB3LYP) =  -281.742970393     A.U. after   12 cycles
 SCF Done:  E(RB3LYP) =  -281.752666961     A.U. after   12 cycles
 SCF Done:  E(RB3LYP) =  -281.754428780     A.U. after   11 cycles
 SCF Done:  E(RB3LYP) =  -281.754791602     A.U. after   10 cycles
 SCF Done:  E(RB3LYP) =  -281.754860433     A.U. after   10 cycles
 SCF Done:  E(RB3LYP) =  -281.754874771     A.U. after    9 cycles
 SCF Done:  E(RB3LYP) =  -281.754880297     A.U. after    9 cycles
 SCF Done:  E(RB3LYP) =  -281.754881629     A.U. after    7 cycles
 SCF Done:  E(RB3LYP) =  -281.754881991     A.U. after    7 cycles
 Optimization completed.
    -- Stationary point found.
 Normal termination of Gaussian 09 at Sun Aug 21 02:26:06 2022.

 ----------------------------------------------------------
 #P Geom=AllCheck Guess=TCheck SCRF=Check B3LYP/GTBas3 Freq
 ----------------------------------------------------------

 Structure from the checkpoint file:  "G4.Frag_1161.chk"
 ---------
 Frag_1161
 ---------
 Charge =  0 Multiplicity = 1

 SCF Done:  E(RB3LYP) =  -281.754881991     A.U. after    1 cycles

  Exact polarizability:  45.694   1.696  38.743   2.509  -1.258  35.824
 Approx polarizability:  59.867   2.298  53.908   2.734  -0.677  53.635

                      1                      2                      3
                      A                      A                      A
 Frequencies --    170.6717               258.3781               281.3840
 Red. masses --      3.2400                 1.1579                 1.1548
 Frc consts  --      0.0556                 0.0455                 0.0539
 IR Inten    --      5.2654                31.5635                47.5172

                      4                      5                      6
                      A                      A                      A
 Frequencies --    308.4735               345.4013               426.3424
 Red. masses --      2.4746                 1.1595                 2.7355
 Frc consts  --      0.1387                 0.0815                 0.2930
 IR Inten    --     32.0893                22.5731                31.5983

                      7                      8                      9
                      A                      A                      A
 Frequencies --    550.9059               572.7322               859.4171
 Red. masses --      3.2634                 2.7584                 2.1320
 Frc consts  --      0.5835                 0.5331                 0.9278
 IR Inten    --     13.0943                11.4225                45.8865

                     10                     11                     12
                      A                      A                      A
 Frequencies --    870.6866               930.8801               958.8747
 Red. masses --      1.8635                 2.1445                 5.5190
 Frc consts  --      0.8323                 1.0949                 2.9897
 IR Inten    --    104.3546               176.3590                 1.7433

                     13                     14                     15
                      A                      A                      A
 Frequencies --   1022.9383              1160.4099              1181.0524
 Red. masses --      1.8870                 1.3905                 2.6828
 Frc consts  --      1.1634                 1.1032                 2.2048
 IR Inten    --    117.9606                41.9381                59.4903

                     16                     17                     18
                      A                      A                      A
 Frequencies --   1232.3166              1325.2012              1354.1337
 Red. masses --      1.3568                 1.5845                 1.1302
 Frc consts  --      1.2140                 1.6395                 1.2210
 IR Inten    --     89.0341                35.2736                20.1082

                     19                     20                     21
                      A                      A                      A
 Frequencies --   1386.5729              1434.6306              1641.3381
 Red. masses --      1.2573                 1.3115                 1.1046
 Frc consts  --      1.4242                 1.5904                 1.7533
 IR Inten    --     23.0335                30.0155                31.5929

                     22                     23                     24
                      A                      A                      A
 Frequencies --   1659.6103              1662.3339              2977.2407
 Red. masses --      1.0749                 1.0920                 1.0844
 Frc consts  --      1.7444                 1.7779                 5.6633
 IR Inten    --      3.0924                48.6370                58.2165

                     25                     26                     27
                      A                      A                      A
 Frequencies --   3367.0554              3460.1806              3472.9350
 Red. masses --      1.0467                 1.0937                 1.0490
 Frc consts  --      6.9915                 7.7150                 7.4544
 IR Inten    --     14.6946                 4.4357                 0.2278

                     28                     29                     30
                      A                      A                      A
 Frequencies --   3485.7261              3552.7489              3577.9659
 Red. masses --      1.0504                 1.0912                 1.0907
 Frc consts  --      7.5199                 8.1151                 8.2271
 IR Inten    --      1.1700                 0.7892                 3.4439

 - Thermochemistry -
 -------------------
 Temperature   298.150 Kelvin.  Pressure   1.00000 Atm.
 Atom     1 has atomic number  7 and mass  14.00307

 Molecular mass:    77.05891 amu.
 Principal axes and moments of inertia in atomic units:
                           1         2         3
     Eigenvalues --   213.57730 447.97699 600.88802
           X            0.99934   0.02500   0.02635
           Y           -0.02444   0.99947  -0.02136
           Z           -0.02687   0.02070   0.99942
 This molecule is an asymmetric top.
 Rotational symmetry number  1.
 Rotational temperatures (Kelvin)      0.40554     0.19334     0.14414
 Rotational constants (GHZ):           8.45006     4.02865     3.00346
 Zero-point vibrational energy     272081.9 (Joules/Mol)
                                   65.02913 (Kcal/Mol)
 Warning -- explicit consideration of   8 degrees of freedom as
           vibrations may cause significant error
 Vibrational temperatures:    245.56   371.75   404.85   443.82   496.95
          (Kelvin)            613.41   792.63   824.03  1236.51  1252.72
                             1339.33  1379.61  1471.78  1669.57  1699.27
                             1773.03  1906.67  1948.29  1994.97  2064.11
                             2361.52  2387.81  2391.72  4283.58  4844.44
                             4978.42  4996.77  5015.18  5111.61  5147.89

 Zero-point correction=                           0.103631 (Hartree/Particle)
 Thermal correction to Energy=                    0.109757
 Thermal correction to Enthalpy=                  0.110701
 Thermal correction to Gibbs Free Energy=         0.074847
 Sum of electronic and zero-point Energies=           -281.651251
 Sum of electronic and thermal Energies=              -281.645125
 Sum of electronic and thermal Enthalpies=            -281.644181
 Sum of electronic and thermal Free Energies=         -281.680035

                     E (Thermal)             CV                S
                      KCal/Mol        Cal/Mol-Kelvin    Cal/Mol-Kelvin
 Total                   68.874             21.745             75.461
 Electronic               0.000              0.000              0.000
 Translational            0.889              2.981             38.941
 Rotational               0.889              2.981             25.556
 Vibrational             67.096             15.783             10.964
 Vibration     1          0.626              1.879              2.428
 Vibration     2          0.667              1.749              1.673
 Vibration     3          0.681              1.708              1.525
 Vibration     4          0.698              1.658              1.371
 Vibration     5          0.724              1.585              1.187
 Vibration     6          0.788              1.413              0.871
 Vibration     7          0.906              1.138              0.542
 Vibration     8          0.929              1.090              0.499

 Optimization completed.
    -- Stationary point found.
 Normal termination of Gaussian 09 at Sun Aug 21 02:27:35 2022.

 -----------------------------------------------------------------
 #P Geom=AllCheck Guess=TCheck SCRF=Check CCSD(T,E4T,FrzG4)/GTBas1
 -----------------------------------------------------------------

 Structure from the checkpoint file:  "G4.Frag_1161.chk"
 ---------
 Frag_1161
 ---------
 Charge =  0 Multiplicity = 1

 SCF Done:  E(RHF) =  -280.067590020     A.U. after   12 cycles
 E2 =    -0.8044725012D+00 EUMP2 =    -0.28087206252140D+03
 CCSD(T)
 CCSD(T)= -0.28093578813D+03
 D=-280.9135777\CCSD(T)=-280.9357881\RMSD=8.956e-09\PG=C01 [X(C1H7N3O1)
 Normal termination of Gaussian 09 at Sun Aug 21 02:29:40 2022.

 ---------------------------------------------------------
 #P Geom=AllCheck Guess=TCheck SCRF=Check MP4=FrzG4/GTBas2
 ---------------------------------------------------------

 Structure from the checkpoint file:  "G4.Frag_1161.chk"
 ---------
 Frag_1161
 ---------
 Charge =  0 Multiplicity = 1

 SCF Done:  E(RHF) =  -280.079728871     A.U. after   11 cycles
 E2 =    -0.8193020572D+00 EUMP2 =    -0.28089903092770D+03
 Normal termination of Gaussian 09 at Sun Aug 21 02:32:13 2022.

 ---------------------------------------------------------
 #P Geom=AllCheck Guess=TCheck SCRF=Check MP4=FrzG4/GTBas3
 ---------------------------------------------------------

 Structure from the checkpoint file:  "G4.Frag_1161.chk"
 ---------
 Frag_1161
 ---------
 Charge =  0 Multiplicity = 1

 SCF Done:  E(RHF) =  -280.109432655     A.U. after   11 cycles
 E2 =    -0.9889350682D+00 EUMP2 =    -0.28109836772368D+03
 Normal termination of Gaussian 09 at Sun Aug 21 03:20:23 2022.

 -----------------------------------------------------------
 #P Geom=AllCheck Guess=TCheck SCRF=Check MP2=Full/GTLargeXP
 -----------------------------------------------------------

 Structure from the checkpoint file:  "G4.Frag_1161.chk"
 ---------
 Frag_1161
 ---------
 Charge =  0 Multiplicity = 1

 SCF Done:  E(RHF) =  -280.189490660     A.U. after   12 cycles
 E2 =    -0.1281871009D+01 EUMP2 =    -0.28147136166910D+03
 Normal termination of Gaussian 09 at Sun Aug 21 03:23:15 2022.
 SCF Done:  E(RHF) =  -280.211694723     A.U. after    9 cycles
 Normal termination of Gaussian 09 at Sun Aug 21 03:26:32 2022.

                         Standard orientation:
 ---------------------------------------------------------------------
 Center     Atomic      Atomic             Coordinates (Angstroms)
 Number     Number       Type             X           Y           Z
 ---------------------------------------------------------------------
      1          7           0        1.927766   -0.153657   -0.015967
      2          8           0        0.635987   -0.677440   -0.336319
      3          6           0       -0.426595    0.001869    0.329086
      4          7           0       -0.409949    1.394587   -0.072061
      5          7           0       -1.661808   -0.679440    0.032136
      6          1           0        2.073755   -0.368525    0.975202
      7          1           0        1.812836    0.862591   -0.059231
      8          1           0       -0.261851   -0.035526    1.418447
      9          1           0       -1.099341    1.914545    0.461434
     10          1           0       -0.668834    1.465464   -1.053630
     11          1           0       -1.781472   -0.714978   -0.978454
     12          1           0       -1.595486   -1.645692    0.343515
 ---------------------------------------------------------------------

 SCF Done:  E(RHF) =  -280.216649093     A.U. after    8 cycles

 The electronic state is 1-A.
 Alpha  occ. eigenvalues --  -20.58130 -15.59683 -15.55662 -15.55365 -11.34333
 Alpha  occ. eigenvalues --   -1.41475  -1.22870  -1.14785  -1.06932  -0.85870
 Alpha  occ. eigenvalues --   -0.73221  -0.68504  -0.67680  -0.64914  -0.63053
 Alpha  occ. eigenvalues --   -0.57568  -0.52667  -0.46244  -0.45386  -0.43467
 Alpha  occ. eigenvalues --   -0.40613
 Alpha virt. eigenvalues --    0.04203   0.04598   0.05023   0.05723   0.08651
 Alpha virt. eigenvalues --    0.09346   0.09468   0.09912   0.10160   0.12221
 Alpha virt. eigenvalues --    0.12796   0.12948   0.13754   0.16641   0.17373

 Mulliken charges:
               1
     1  N   -0.509797
     2  O   -0.270386
     3  C    0.221031
     4  N   -0.680921
     5  N   -0.658625
     6  H    0.277034
     7  H    0.319378
     8  H    0.143424
     9  H    0.303267
    10  H    0.281510
    11  H    0.283477
    12  H    0.290607
 Sum of Mulliken charges =  -0.00000

 Dipole moment (field-independent basis, Debye):
    X=             -1.4403    Y=              0.9427    Z=              1.1767  Tot=              2.0851
 Quadrupole moment (field-independent basis, Debye-Ang):
   XX=            -35.6189   YY=            -29.5833   ZZ=            -28.1155
   XY=              1.5122   XZ=              5.3840   YZ=             -1.8156

 Normal termination of Gaussian 09 at Sun Aug 21 04:54:42 2022.
