 Gaussian 09, Revision E.01,
 Gaussian 09:  ES64L-G09RevE.01 30-Nov-2015

 -----
 #P G4
 -----

 --------
 Frag_883
 --------
 Symbolic Z-matrix:
 Charge =  0 Multiplicity = 1

 SCF Done:  E(RB3LYP) =  -265.725294581     A.U. after   12 cycles
 SCF Done:  E(RB3LYP) =  -265.734193410     A.U. after   11 cycles
 SCF Done:  E(RB3LYP) =  -265.736498046     A.U. after   11 cycles
 SCF Done:  E(RB3LYP) =  -265.737239048     A.U. after   11 cycles
 SCF Done:  E(RB3LYP) =  -265.737279270     A.U. after    9 cycles
 SCF Done:  E(RB3LYP) =  -265.737285873     A.U. after    7 cycles
 SCF Done:  E(RB3LYP) =  -265.737287358     A.U. after    7 cycles
 SCF Done:  E(RB3LYP) =  -265.737287522     A.U. after    6 cycles
 Optimization completed.
    -- Stationary point found.
 Normal termination of Gaussian 09 at Fri Aug 26 06:37:08 2022.

 ----------------------------------------------------------
 #P Geom=AllCheck Guess=TCheck SCRF=Check B3LYP/GTBas3 Freq
 ----------------------------------------------------------

 Structure from the checkpoint file:  "G4.Frag_883.chk"
 --------
 Frag_883
 --------
 Charge =  0 Multiplicity = 1

 SCF Done:  E(RB3LYP) =  -265.737287522     A.U. after    1 cycles

  Exact polarizability:  48.535  -1.251  39.408   2.135   0.441  39.346
 Approx polarizability:  59.451  -0.389  56.926   3.104   0.235  58.233

                      1                      2                      3
                      A                      A                      A
 Frequencies --    169.3992               223.6413               269.6046
 Red. masses --      2.6586                 1.0603                 3.2402
 Frc consts  --      0.0450                 0.0312                 0.1388
 IR Inten    --      2.7457                 1.2836                 4.7969

                      4                      5                      6
                      A                      A                      A
 Frequencies --    319.8754               378.1575               395.5164
 Red. masses --      1.0895                 1.9442                 1.4144
 Frc consts  --      0.0657                 0.1638                 0.1304
 IR Inten    --     85.4065                12.1041                44.4983

                      7                      8                      9
                      A                      A                      A
 Frequencies --    523.5031               574.7721               750.2287
 Red. masses --      2.2246                 3.1206                 2.1456
 Frc consts  --      0.3592                 0.6074                 0.7115
 IR Inten    --      2.7540                14.3773                79.5797

                     10                     11                     12
                      A                      A                      A
 Frequencies --    862.0803               932.4934               976.5773
 Red. masses --      2.3846                 1.4309                 1.8812
 Frc consts  --      1.0442                 0.7331                 1.0570
 IR Inten    --     68.6828                 9.0115                77.9089

                     13                     14                     15
                      A                      A                      A
 Frequencies --   1051.0211              1102.0903              1169.9289
 Red. masses --      1.5345                 2.7063                 2.5980
 Frc consts  --      0.9987                 1.9367                 2.0951
 IR Inten    --    110.2810                16.4538                85.9340

                     16                     17                     18
                      A                      A                      A
 Frequencies --   1194.7035              1285.2089              1326.1815
 Red. masses --      2.0088                 1.3809                 1.2519
 Frc consts  --      1.6893                 1.3439                 1.2973
 IR Inten    --      7.7540                 8.0604                 4.7496

                     19                     20                     21
                      A                      A                      A
 Frequencies --   1361.0879              1402.3151              1426.7776
 Red. masses --      1.3225                 1.2862                 1.1732
 Frc consts  --      1.4435                 1.4902                 1.4072
 IR Inten    --     10.9461                11.5504                35.2724

                     22                     23                     24
                      A                      A                      A
 Frequencies --   1482.8314              1491.2656              1513.5724
 Red. masses --      1.0645                 1.0556                 1.1326
 Frc consts  --      1.3791                 1.3831                 1.5287
 IR Inten    --      2.9339                 3.9102                11.5241

                     25                     26                     27
                      A                      A                      A
 Frequencies --   1679.4086              3025.2285              3048.9938
 Red. masses --      1.0618                 1.0472                 1.0816
 Frc consts  --      1.7644                 5.6468                 5.9244
 IR Inten    --     14.3606                10.5610                28.9452

                     28                     29                     30
                      A                      A                      A
 Frequencies --   3105.7569              3139.1714              3425.2559
 Red. masses --      1.0903                 1.1032                 1.0505
 Frc consts  --      6.1964                 6.4054                 7.2614
 IR Inten    --     27.1273                14.3233                 8.5283

                     31                     32                     33
                      A                      A                      A
 Frequencies --   3489.5876              3530.4592              3782.0823
 Red. masses --      1.0746                 1.0898                 1.0657
 Frc consts  --      7.7102                 8.0029                 8.9815
 IR Inten    --      2.8686                 0.7532                10.8876

 - Thermochemistry -
 -------------------
 Temperature   298.150 Kelvin.  Pressure   1.00000 Atm.
 Atom     1 has atomic number  6 and mass  12.00000

 Molecular mass:    76.06366 amu.
 Principal axes and moments of inertia in atomic units:
                           1         2         3
     Eigenvalues --   215.40221 477.25150 630.63538
           X            0.99868  -0.04878   0.01601
           Y            0.04862   0.99876   0.01078
           Z           -0.01652  -0.00999   0.99981
 This molecule is an asymmetric top.
 Rotational symmetry number  1.
 Rotational temperatures (Kelvin)      0.40210     0.18148     0.13734
 Rotational constants (GHZ):           8.37847     3.78153     2.86178
 Zero-point vibrational energy     301511.4 (Joules/Mol)
                                   72.06296 (Kcal/Mol)
 Warning -- explicit consideration of   8 degrees of freedom as
           vibrations may cause significant error
 Vibrational temperatures:    243.73   321.77   387.90   460.23   544.08
          (Kelvin)            569.06   753.20   826.97  1079.41  1240.34
                             1341.65  1405.08  1512.18  1585.66  1683.26
                             1718.91  1849.13  1908.08  1958.30  2017.62
                             2052.81  2133.46  2145.60  2177.69  2416.29
                             4352.62  4386.82  4468.49  4516.56  4928.17
                             5020.73  5079.54  5441.57

 Zero-point correction=                           0.114840 (Hartree/Particle)
 Thermal correction to Energy=                    0.121087
 Thermal correction to Enthalpy=                  0.122031
 Thermal correction to Gibbs Free Energy=         0.085922
 Sum of electronic and zero-point Energies=           -265.622448
 Sum of electronic and thermal Energies=              -265.616201
 Sum of electronic and thermal Enthalpies=            -265.615257
 Sum of electronic and thermal Free Energies=         -265.651366

                     E (Thermal)             CV                S
                      KCal/Mol        Cal/Mol-Kelvin    Cal/Mol-Kelvin
 Total                   75.983             22.361             75.998
 Electronic               0.000              0.000              0.000
 Translational            0.889              2.981             38.903
 Rotational               0.889              2.981             25.675
 Vibrational             74.205             16.399             11.421
 Vibration     1          0.625              1.880              2.442
 Vibration     2          0.649              1.805              1.929
 Vibration     3          0.674              1.729              1.599
 Vibration     4          0.706              1.636              1.311
 Vibration     5          0.748              1.517              1.047
 Vibration     6          0.762              1.480              0.979
 Vibration     7          0.878              1.198              0.602
 Vibration     8          0.931              1.086              0.495

 Optimization completed.
    -- Stationary point found.
 Normal termination of Gaussian 09 at Fri Aug 26 06:37:32 2022.

 -----------------------------------------------------------------
 #P Geom=AllCheck Guess=TCheck SCRF=Check CCSD(T,E4T,FrzG4)/GTBas1
 -----------------------------------------------------------------

 Structure from the checkpoint file:  "G4.Frag_883.chk"
 --------
 Frag_883
 --------
 Charge =  0 Multiplicity = 1

 SCF Done:  E(RHF) =  -264.098588529     A.U. after   12 cycles
 E2 =    -0.7709269873D+00 EUMP2 =    -0.26486951551664D+03
 CCSD(T)
 CCSD(T)= -0.26493695421D+03
 4SDTQ=-264.9362578\MP4SDQ=-264.915129\CCSD=-264.9158238\CCSD(T)=-264.9
 Normal termination of Gaussian 09 at Fri Aug 26 06:38:35 2022.

 ---------------------------------------------------------
 #P Geom=AllCheck Guess=TCheck SCRF=Check MP4=FrzG4/GTBas2
 ---------------------------------------------------------

 Structure from the checkpoint file:  "G4.Frag_883.chk"
 --------
 Frag_883
 --------
 Charge =  0 Multiplicity = 1

 SCF Done:  E(RHF) =  -264.108733555     A.U. after   11 cycles
 E2 =    -0.7845174202D+00 EUMP2 =    -0.26489325097530D+03
 Normal termination of Gaussian 09 at Fri Aug 26 06:38:53 2022.

 ---------------------------------------------------------
 #P Geom=AllCheck Guess=TCheck SCRF=Check MP4=FrzG4/GTBas3
 ---------------------------------------------------------

 Structure from the checkpoint file:  "G4.Frag_883.chk"
 --------
 Frag_883
 --------
 Charge =  0 Multiplicity = 1

 SCF Done:  E(RHF) =  -264.138096757     A.U. after   11 cycles
 E2 =    -0.9544932056D+00 EUMP2 =    -0.26509258996268D+03
 Normal termination of Gaussian 09 at Fri Aug 26 06:40:38 2022.

 -----------------------------------------------------------
 #P Geom=AllCheck Guess=TCheck SCRF=Check MP2=Full/GTLargeXP
 -----------------------------------------------------------

 Structure from the checkpoint file:  "G4.Frag_883.chk"
 --------
 Frag_883
 --------
 Charge =  0 Multiplicity = 1

 SCF Done:  E(RHF) =  -264.210706682     A.U. after   11 cycles
 E2 =    -0.1242934966D+01 EUMP2 =    -0.26545364164865D+03
 Normal termination of Gaussian 09 at Fri Aug 26 06:41:34 2022.
 SCF Done:  E(RHF) =  -264.231864474     A.U. after    9 cycles
 Normal termination of Gaussian 09 at Fri Aug 26 06:42:44 2022.

                         Standard orientation:
 ---------------------------------------------------------------------
 Center     Atomic      Atomic             Coordinates (Angstroms)
 Number     Number       Type             X           Y           Z
 ---------------------------------------------------------------------
      1          6           0        1.744972   -0.629860    0.007138
      2          6           0        0.417570    0.029763   -0.346756
      3          8           0        0.390372    1.407729    0.049083
      4          7           0       -0.679187   -0.751811    0.182676
      5          7           0       -1.967614   -0.151599    0.028836
      6          1           0        2.574677   -0.048709   -0.400936
      7          1           0        1.788664   -1.647991   -0.387056
      8          1           0        1.870092   -0.683866    1.096708
      9          1           0        0.290873    0.078760   -1.434783
     10          1           0        0.622985    1.448661    0.984629
     11          1           0       -0.543818   -0.920850    1.175760
     12          1           0       -2.318344   -0.426664   -0.884493
     13          1           0       -1.855755    0.863282    0.014638
 ---------------------------------------------------------------------

 SCF Done:  E(RHF) =  -264.236585219     A.U. after    8 cycles

 The electronic state is 1-A.
 Alpha  occ. eigenvalues --  -20.56255 -15.57283 -15.56560 -11.31177 -11.22737
 Alpha  occ. eigenvalues --   -1.37611  -1.26421  -1.06641  -0.96795  -0.84778
 Alpha  occ. eigenvalues --   -0.69435  -0.68434  -0.65486  -0.61759  -0.61245
 Alpha  occ. eigenvalues --   -0.54782  -0.54410  -0.50450  -0.47727  -0.41246
 Alpha  occ. eigenvalues --   -0.40190
 Alpha virt. eigenvalues --    0.03623   0.04717   0.05012   0.05545   0.07438
 Alpha virt. eigenvalues --    0.07575   0.07987   0.09791   0.10454   0.10876
 Alpha virt. eigenvalues --    0.11966   0.12460   0.14325   0.15995   0.16065

 Mulliken charges:
               1
     1  C   -0.523629
     2  C    0.132118
     3  O   -0.573175
     4  N   -0.340936
     5  N   -0.636242
     6  H    0.191213
     7  H    0.197046
     8  H    0.152257
     9  H    0.159141
    10  H    0.353815
    11  H    0.287215
    12  H    0.292631
    13  H    0.308547
 Sum of Mulliken charges =  -0.00000

 Dipole moment (field-independent basis, Debye):
    X=              1.4817    Y=              0.0133    Z=              0.4353  Tot=              1.5444
 Quadrupole moment (field-independent basis, Debye-Ang):
   XX=            -33.5215   YY=            -35.7146   ZZ=            -27.7789
   XY=             -2.4367   XZ=              3.7335   YZ=              1.8348

 Normal termination of Gaussian 09 at Fri Aug 26 06:47:18 2022.
