 Gaussian 09, Revision E.01,
 Gaussian 09:  ES64L-G09RevE.01 30-Nov-2015

 -----
 #P G4
 -----

 --------
 Frag_709
 --------
 Symbolic Z-matrix:
 Charge =  0 Multiplicity = 1

 SCF Done:  E(RB3LYP) =  -382.892921527     A.U. after   13 cycles
 SCF Done:  E(RB3LYP) =  -382.908138109     A.U. after   11 cycles
 SCF Done:  E(RB3LYP) =  -382.911817934     A.U. after   12 cycles
 SCF Done:  E(RB3LYP) =  -382.912413109     A.U. after   10 cycles
 SCF Done:  E(RB3LYP) =  -382.912637553     A.U. after   11 cycles
 SCF Done:  E(RB3LYP) =  -382.912769344     A.U. after   10 cycles
 SCF Done:  E(RB3LYP) =  -382.912828769     A.U. after   10 cycles
 SCF Done:  E(RB3LYP) =  -382.912853287     A.U. after   10 cycles
 SCF Done:  E(RB3LYP) =  -382.912874296     A.U. after   10 cycles
 SCF Done:  E(RB3LYP) =  -382.912895991     A.U. after   11 cycles
 SCF Done:  E(RB3LYP) =  -382.920229584     A.U. after    9 cycles
 SCF Done:  E(RB3LYP) =  -382.920231355     A.U. after    9 cycles
 SCF Done:  E(RB3LYP) =  -382.920231889     A.U. after    7 cycles
 Optimization completed.
    -- Stationary point found.
 Normal termination of Gaussian 09 at Fri Aug 26 11:14:32 2022.

 ----------------------------------------------------------
 #P Geom=AllCheck Guess=TCheck SCRF=Check B3LYP/GTBas3 Freq
 ----------------------------------------------------------

 Structure from the checkpoint file:  "G4.Frag_709.chk"
 --------
 Frag_709
 --------
 Charge =  0 Multiplicity = 1

 SCF Done:  E(RB3LYP) =  -382.920231889     A.U. after    1 cycles

  Exact polarizability:  59.815   6.735  59.600   0.089  -0.170  45.450
 Approx polarizability:  81.640  11.445  95.594   2.227  -1.450  63.976

                      1                      2                      3
                      A                      A                      A
 Frequencies --     64.9552               221.0236               244.0879
 Red. masses --      4.2856                 1.4337                 1.5405
 Frc consts  --      0.0107                 0.0413                 0.0541
 IR Inten    --      3.0644                 0.7520                 7.9684

                      4                      5                      6
                      A                      A                      A
 Frequencies --    268.4800               304.4420               353.6579
 Red. masses --      1.2664                 3.7272                 2.7120
 Frc consts  --      0.0538                 0.2035                 0.1998
 IR Inten    --     53.3476                 9.4791                20.5702

                      7                      8                      9
                      A                      A                      A
 Frequencies --    384.8471               409.5905               497.0004
 Red. masses --      3.5280                 1.7155                 1.7099
 Frc consts  --      0.3079                 0.1696                 0.2489
 IR Inten    --      4.6514                77.4151                 6.7498

                     10                     11                     12
                      A                      A                      A
 Frequencies --    513.8168               567.5893               671.8499
 Red. masses --      3.3633                 4.4012                 1.9903
 Frc consts  --      0.5232                 0.8354                 0.5293
 IR Inten    --      1.1237                 9.4037                36.1063

                     13                     14                     15
                      A                      A                      A
 Frequencies --    683.7603               722.6478               768.6192
 Red. masses --      1.4573                 3.7445                 1.0944
 Frc consts  --      0.4014                 1.1521                 0.3809
 IR Inten    --     39.2521                 7.2985                20.6020

                     16                     17                     18
                      A                      A                      A
 Frequencies --    848.9218               921.2610               964.1080
 Red. masses --      1.4167                 2.4037                 1.9689
 Frc consts  --      0.6015                 1.2020                 1.0783
 IR Inten    --     49.3446                47.3984                27.4059

                     19                     20                     21
                      A                      A                      A
 Frequencies --    989.1022              1053.2112              1135.4597
 Red. masses --      1.9534                 2.2595                 1.8584
 Frc consts  --      1.1259                 1.4767                 1.4117
 IR Inten    --     45.2105                96.6842                61.7729

                     22                     23                     24
                      A                      A                      A
 Frequencies --   1170.4272              1252.0840              1330.8801
 Red. masses --      2.6461                 1.7690                 1.6066
 Frc consts  --      2.1358                 1.6339                 1.6766
 IR Inten    --     54.8756                56.1838               177.4590

                     25                     26                     27
                      A                      A                      A
 Frequencies --   1379.4751              1403.5255              1426.6697
 Red. masses --      1.4388                 1.5990                 1.6623
 Frc consts  --      1.6131                 1.8558                 1.9934
 IR Inten    --    126.7334                64.8125                36.0612

                     28                     29                     30
                      A                      A                      A
 Frequencies --   1445.0396              1480.7471              1486.0102
 Red. masses --      1.1911                 1.0535                 1.0776
 Frc consts  --      1.4654                 1.3610                 1.4020
 IR Inten    --     33.6262                 3.9248                 0.8523

                     31                     32                     33
                      A                      A                      A
 Frequencies --   1735.4206              3058.4541              3138.3420
 Red. masses --      5.3976                 1.0338                 1.1028
 Frc consts  --      9.5777                 5.6978                 6.3993
 IR Inten    --     69.2560                 7.9709                11.9869

                     34                     35                     36
                      A                      A                      A
 Frequencies --   3149.6845              3176.4542              3266.4839
 Red. masses --      1.1031                 1.0599                 1.1162
 Frc consts  --      6.4474                 6.3007                 7.0170
 IR Inten    --     11.4202                 0.1587                 3.0554

                     37                     38                     39
                      A                      A                      A
 Frequencies --   3662.1841              3770.2588              3806.2295
 Red. masses --      1.0639                 1.0655                 1.0656
 Frc consts  --      8.4072                 8.9240                 9.0958
 IR Inten    --    165.5154                34.6590                37.3149

 - Thermochemistry -
 -------------------
 Temperature   298.150 Kelvin.  Pressure   1.00000 Atm.
 Atom     1 has atomic number  6 and mass  12.00000

 Molecular mass:   104.04734 amu.
 Principal axes and moments of inertia in atomic units:
                           1         2         3
     Eigenvalues --   525.92932 736.60009 895.65136
           X            0.99661   0.07358  -0.03694
           Y           -0.07293   0.99716   0.01860
           Z            0.03820  -0.01584   0.99914
 This molecule is an asymmetric top.
 Rotational symmetry number  1.
 Warning -- assumption of classical behavior for rotation
           may cause significant error
 Rotational temperatures (Kelvin)      0.16469     0.11759     0.09670
 Rotational constants (GHZ):           3.43153     2.45010     2.01500
 Zero-point vibrational energy     321357.6 (Joules/Mol)
                                   76.80632 (Kcal/Mol)
 Warning -- explicit consideration of  11 degrees of freedom as
           vibrations may cause significant error
 Vibrational temperatures:     93.46   318.00   351.19   386.28   438.02
          (Kelvin)            508.83   553.71   589.31   715.07   739.27
                              816.63   966.64   983.78  1039.73  1105.87
                             1221.41  1325.49  1387.13  1423.10  1515.33
                             1633.67  1683.98  1801.47  1914.84  1984.75
                             2019.36  2052.66  2079.09  2130.46  2138.03
                             2496.88  4400.43  4515.37  4531.69  4570.20
                             4699.74  5269.06  5424.55  5476.31

 Zero-point correction=                           0.122399 (Hartree/Particle)
 Thermal correction to Energy=                    0.130301
 Thermal correction to Enthalpy=                  0.131246
 Thermal correction to Gibbs Free Energy=         0.090804
 Sum of electronic and zero-point Energies=           -382.797833
 Sum of electronic and thermal Energies=              -382.789931
 Sum of electronic and thermal Enthalpies=            -382.788986
 Sum of electronic and thermal Free Energies=         -382.829428

                     E (Thermal)             CV                S
                      KCal/Mol        Cal/Mol-Kelvin    Cal/Mol-Kelvin
 Total                   81.765             29.798             85.116
 Electronic               0.000              0.000              0.000
 Translational            0.889              2.981             39.836
 Rotational               0.889              2.981             27.342
 Vibrational             79.988             23.836             17.938
 Vibration     1          0.597              1.971              4.301
 Vibration     2          0.648              1.809              1.951
 Vibration     3          0.659              1.773              1.773
 Vibration     4          0.673              1.731              1.606
 Vibration     5          0.695              1.665              1.392
 Vibration     6          0.730              1.568              1.150
 Vibration     7          0.754              1.503              1.020
 Vibration     8          0.774              1.449              0.928
 Vibration     9          0.853              1.257              0.666
 Vibration    10          0.869              1.219              0.624
 Vibration    11          0.924              1.101              0.509

 Optimization completed.
    -- Stationary point found.
 Normal termination of Gaussian 09 at Fri Aug 26 11:15:17 2022.

 -----------------------------------------------------------------
 #P Geom=AllCheck Guess=TCheck SCRF=Check CCSD(T,E4T,FrzG4)/GTBas1
 -----------------------------------------------------------------

 Structure from the checkpoint file:  "G4.Frag_709.chk"
 --------
 Frag_709
 --------
 Charge =  0 Multiplicity = 1

 SCF Done:  E(RHF) =  -380.676796298     A.U. after   13 cycles
 E2 =    -0.1056170470D+01 EUMP2 =    -0.38173296676808D+03
 CCSD(T)
 CCSD(T)= -0.38181287522D+03
 .7804463\CCSD(T)=-381.8128752\RMSD=2.608e-09\PG=C01 [X(C4H8O3)]\\@
 Normal termination of Gaussian 09 at Fri Aug 26 11:19:19 2022.

 ---------------------------------------------------------
 #P Geom=AllCheck Guess=TCheck SCRF=Check MP4=FrzG4/GTBas2
 ---------------------------------------------------------

 Structure from the checkpoint file:  "G4.Frag_709.chk"
 --------
 Frag_709
 --------
 Charge =  0 Multiplicity = 1

 SCF Done:  E(RHF) =  -380.690082212     A.U. after   12 cycles
 E2 =    -0.1074531041D+01 EUMP2 =    -0.38176461325321D+03
 Normal termination of Gaussian 09 at Fri Aug 26 11:20:31 2022.

 ---------------------------------------------------------
 #P Geom=AllCheck Guess=TCheck SCRF=Check MP4=FrzG4/GTBas3
 ---------------------------------------------------------

 Structure from the checkpoint file:  "G4.Frag_709.chk"
 --------
 Frag_709
 --------
 Charge =  0 Multiplicity = 1

 SCF Done:  E(RHF) =  -380.731186234     A.U. after   11 cycles
 E2 =    -0.1304816875D+01 EUMP2 =    -0.38203600310892D+03
 Normal termination of Gaussian 09 at Fri Aug 26 11:28:03 2022.

 -----------------------------------------------------------
 #P Geom=AllCheck Guess=TCheck SCRF=Check MP2=Full/GTLargeXP
 -----------------------------------------------------------

 Structure from the checkpoint file:  "G4.Frag_709.chk"
 --------
 Frag_709
 --------
 Charge =  0 Multiplicity = 1

 SCF Done:  E(RHF) =  -380.835501103     A.U. after   12 cycles
 E2 =    -0.1706943117D+01 EUMP2 =    -0.38254244421970D+03
 Normal termination of Gaussian 09 at Fri Aug 26 11:31:29 2022.
 SCF Done:  E(RHF) =  -380.866316102     A.U. after    8 cycles
 Normal termination of Gaussian 09 at Fri Aug 26 11:34:33 2022.

                         Standard orientation:
 ---------------------------------------------------------------------
 Center     Atomic      Atomic             Coordinates (Angstroms)
 Number     Number       Type             X           Y           Z
 ---------------------------------------------------------------------
      1          6           0       -1.741886   -1.077574   -0.072436
      2          6           0       -0.955508    0.000376   -0.040323
      3          8           0       -1.444108    1.259654   -0.092682
      4          6           0        0.576221   -0.072592    0.035436
      5          6           0        1.224810   -0.139459   -1.342926
      6          8           0        1.042823    1.149196    0.636213
      7          8           0        0.992849   -1.174865    0.792557
      8          1           0       -2.818955   -0.981072   -0.121601
      9          1           0       -1.313990   -2.070484   -0.104417
     10          1           0       -0.700311    1.834956    0.154904
     11          1           0        0.967565    0.750010   -1.922852
     12          1           0        0.875298   -1.025654   -1.875157
     13          1           0        2.309895   -0.185873   -1.224432
     14          1           0        1.080990    0.987774    1.586301
     15          1           0        0.245174   -1.446041    1.340046
 ---------------------------------------------------------------------

 SCF Done:  E(RHF) =  -380.873079627     A.U. after    8 cycles

 The electronic state is 1-A.
 Alpha  occ. eigenvalues --  -20.58499 -20.58343 -20.58326 -11.36571 -11.30758
 Alpha  occ. eigenvalues --  -11.22615 -11.21805  -1.44257  -1.40294  -1.35366
 Alpha  occ. eigenvalues --   -1.05763  -1.00600  -0.86973  -0.78399  -0.77128
 Alpha  occ. eigenvalues --   -0.73157  -0.65854  -0.63947  -0.62292  -0.59263
 Alpha  occ. eigenvalues --   -0.57607  -0.56244  -0.55522  -0.55112  -0.53371
 Alpha  occ. eigenvalues --   -0.49161  -0.46811  -0.35237
 Alpha virt. eigenvalues --    0.03413   0.04181   0.04395   0.05239   0.06753
 Alpha virt. eigenvalues --    0.06804   0.07212   0.07279   0.07477   0.09609
 Alpha virt. eigenvalues --    0.09784   0.10453   0.11186   0.13348   0.14104

 Mulliken charges:
               1
     1  C   -0.525213
     2  C    0.220532
     3  O   -0.590722
     4  C    0.494630
     5  C   -0.531223
     6  O   -0.621584
     7  O   -0.618568
     8  H    0.213249
     9  H    0.210424
    10  H    0.418008
    11  H    0.189594
    12  H    0.182188
    13  H    0.186133
    14  H    0.386456
    15  H    0.386096
 Sum of Mulliken charges =  -0.00000

 Dipole moment (field-independent basis, Debye):
    X=              0.2464    Y=             -0.4899    Z=              1.0157  Tot=              1.1543
 Quadrupole moment (field-independent basis, Debye-Ang):
   XX=            -47.6968   YY=            -42.5812   ZZ=            -38.7367
   XY=              3.3251   XZ=             -1.1564   YZ=              0.9284

 Normal termination of Gaussian 09 at Fri Aug 26 11:45:22 2022.
