 Gaussian 09, Revision E.01,
 Gaussian 09:  ES64L-G09RevE.01 30-Nov-2015

 -----
 #P G4
 -----

 --------
 Frag_613
 --------
 Symbolic Z-matrix:
 Charge =  0 Multiplicity = 1

 SCF Done:  E(RB3LYP) =  -250.644498853     A.U. after   13 cycles
 SCF Done:  E(RB3LYP) =  -250.647508629     A.U. after   11 cycles
 SCF Done:  E(RB3LYP) =  -250.644650775     A.U. after   13 cycles
 SCF Done:  E(RB3LYP) =  -250.647637727     A.U. after   10 cycles
 SCF Done:  E(RB3LYP) =  -250.647247560     A.U. after   11 cycles
 SCF Done:  E(RB3LYP) =  -250.647675430     A.U. after    8 cycles
 SCF Done:  E(RB3LYP) =  -250.647723027     A.U. after   10 cycles
 SCF Done:  E(RB3LYP) =  -250.647720244     A.U. after    9 cycles
 SCF Done:  E(RB3LYP) =  -250.647738265     A.U. after    9 cycles
 SCF Done:  E(RB3LYP) =  -250.647741650     A.U. after    8 cycles
 SCF Done:  E(RB3LYP) =  -250.647742680     A.U. after    8 cycles
 Optimization completed.
    -- Stationary point found.
 Normal termination of Gaussian 09 at Fri Aug 26 13:58:35 2022.

 ----------------------------------------------------------
 #P Geom=AllCheck Guess=TCheck SCRF=Check B3LYP/GTBas3 Freq
 ----------------------------------------------------------

 Structure from the checkpoint file:  "G4.Frag_613.chk"
 --------
 Frag_613
 --------
 Charge =  0 Multiplicity = 1

 SCF Done:  E(RB3LYP) =  -250.647742680     A.U. after    1 cycles

  Exact polarizability:  75.383  -0.245  50.220  -0.568  -1.163  49.965
 Approx polarizability: 115.290  -0.816  67.729  -2.143  -1.858  70.311

                      1                      2                      3
                      A                      A                      A
 Frequencies --    175.3250               183.0004               232.4737
 Red. masses --      2.7337                 2.8606                 1.0629
 Frc consts  --      0.0495                 0.0564                 0.0338
 IR Inten    --      2.4059                 0.9375                 8.6963

                      4                      5                      6
                      A                      A                      A
 Frequencies --    266.6739               280.3833               352.9249
 Red. masses --      1.1127                 1.0550                 2.2775
 Frc consts  --      0.0466                 0.0489                 0.1671
 IR Inten    --     29.3994                 0.3752                 0.6429

                      7                      8                      9
                      A                      A                      A
 Frequencies --    390.8083               405.8703               555.8834
 Red. masses --      2.6641                 2.6762                 4.4495
 Frc consts  --      0.2397                 0.2597                 0.8101
 IR Inten    --      6.8677                 3.2964                 4.4974

                     10                     11                     12
                      A                      A                      A
 Frequencies --    563.2023               623.6808               649.1589
 Red. masses --      5.0935                 1.2192                 1.2377
 Frc consts  --      0.9519                 0.2794                 0.3073
 IR Inten    --      2.2479                44.2478                39.1689

                     13                     14                     15
                      A                      A                      A
 Frequencies --    706.3702               871.3194               921.1664
 Red. masses --      4.1119                 1.8813                 1.6033
 Frc consts  --      1.2088                 0.8415                 0.8016
 IR Inten    --      1.1862               100.7591                45.5315

                     16                     17                     18
                      A                      A                      A
 Frequencies --    925.8135               967.5750              1026.7034
 Red. masses --      1.6574                 1.7138                 1.3142
 Frc consts  --      0.8370                 0.9453                 0.8162
 IR Inten    --      0.3999                 2.1175                 3.4659

                     19                     20                     21
                      A                      A                      A
 Frequencies --   1105.4977              1184.2338              1236.1816
 Red. masses --      1.5480                 2.3601                 2.7823
 Frc consts  --      1.1147                 1.9501                 2.5051
 IR Inten    --     11.2805                29.8471                27.0341

                     22                     23                     24
                      A                      A                      A
 Frequencies --   1347.7562              1391.1964              1411.9006
 Red. masses --      1.9197                 1.2269                 1.2248
 Frc consts  --      2.0546                 1.3990                 1.4385
 IR Inten    --     20.4257                 4.6640                 2.5486

                     25                     26                     27
                      A                      A                      A
 Frequencies --   1476.8836              1481.5995              1494.4902
 Red. masses --      1.0480                 1.0479                 1.0509
 Frc consts  --      1.3468                 1.3553                 1.3829
 IR Inten    --      0.1744                 1.4825                 2.6550

                     28                     29                     30
                      A                      A                      A
 Frequencies --   1505.8284              1647.7297              2236.8329
 Red. masses --      1.0690                 1.0914                 5.9059
 Frc consts  --      1.4281                 1.7458                17.4103
 IR Inten    --      2.0699                24.4817                 0.2987

                     31                     32                     33
                      A                      A                      A
 Frequencies --   3027.5249              3038.9584              3101.0710
 Red. masses --      1.0349                 1.0382                 1.1011
 Frc consts  --      5.5887                 5.6492                 6.2387
 IR Inten    --     17.5524                23.8431                15.6075

                     34                     35                     36
                      A                      A                      A
 Frequencies --   3111.6361              3113.9831              3141.5584
 Red. masses --      1.1005                 1.0993                 1.1028
 Frc consts  --      6.2780                 6.2808                 6.4129
 IR Inten    --     20.0387                37.3831                15.8622

                     37                     38                     39
                      A                      A                      A
 Frequencies --   3470.0339              3502.4675              3555.3499
 Red. masses --      1.0490                 1.1625                 1.0920
 Frc consts  --      7.4417                 8.4021                 8.1328
 IR Inten    --      0.8873                61.2268                 0.0334

 - Thermochemistry -
 -------------------
 Temperature   298.150 Kelvin.  Pressure   1.00000 Atm.
 Atom     1 has atomic number  6 and mass  12.00000

 Molecular mass:    83.07350 amu.
 Principal axes and moments of inertia in atomic units:
                           1         2         3
     Eigenvalues --   387.82044 661.10440 667.43508
           X            0.99989   0.00560   0.01348
           Y           -0.00030   0.93130  -0.36424
           Z           -0.01460   0.36420   0.93121
 This molecule is an asymmetric top.
 Rotational symmetry number  1.
 Rotational temperatures (Kelvin)      0.22333     0.13101     0.12977
 Rotational constants (GHZ):           4.65355     2.72989     2.70400
 Zero-point vibrational energy     339027.9 (Joules/Mol)
                                   81.02962 (Kcal/Mol)
 Warning -- explicit consideration of  10 degrees of freedom as
           vibrations may cause significant error
 Vibrational temperatures:    252.25   263.30   334.48   383.68   403.41
          (Kelvin)            507.78   562.29   583.96   799.79   810.32
                              897.34   933.99  1016.31  1253.63  1325.35
                             1332.04  1392.12  1477.20  1590.56  1703.85
                             1778.59  1939.12  2001.62  2031.41  2124.90
                             2131.69  2150.24  2166.55  2370.71  3218.30
                             4355.93  4372.38  4461.74  4476.94  4480.32
                             4520.00  4992.60  5039.26  5115.35

 Zero-point correction=                           0.129129 (Hartree/Particle)
 Thermal correction to Energy=                    0.136648
 Thermal correction to Enthalpy=                  0.137592
 Thermal correction to Gibbs Free Energy=         0.098837
 Sum of electronic and zero-point Energies=           -250.518614
 Sum of electronic and thermal Energies=              -250.511095
 Sum of electronic and thermal Enthalpies=            -250.510150
 Sum of electronic and thermal Free Energies=         -250.548906

                     E (Thermal)             CV                S
                      KCal/Mol        Cal/Mol-Kelvin    Cal/Mol-Kelvin
 Total                   85.748             28.027             81.568
 Electronic               0.000              0.000              0.000
 Translational            0.889              2.981             39.165
 Rotational               0.889              2.981             26.640
 Vibrational             83.970             22.066             15.763
 Vibration     1          0.627              1.873              2.378
 Vibration     2          0.630              1.863              2.298
 Vibration     3          0.653              1.791              1.860
 Vibration     4          0.672              1.734              1.618
 Vibration     5          0.680              1.710              1.531
 Vibration     6          0.729              1.569              1.153
 Vibration     7          0.758              1.490              0.997
 Vibration     8          0.771              1.457              0.941
 Vibration     9          0.911              1.127              0.532
 Vibration    10          0.919              1.111              0.517

 Optimization completed.
    -- Stationary point found.
 Normal termination of Gaussian 09 at Fri Aug 26 13:59:10 2022.

 -----------------------------------------------------------------
 #P Geom=AllCheck Guess=TCheck SCRF=Check CCSD(T,E4T,FrzG4)/GTBas1
 -----------------------------------------------------------------

 Structure from the checkpoint file:  "G4.Frag_613.chk"
 --------
 Frag_613
 --------
 Charge =  0 Multiplicity = 1

 SCF Done:  E(RHF) =  -248.951557963     A.U. after   13 cycles
 E2 =    -0.8093413706D+00 EUMP2 =    -0.24976089933397D+03
 CCSD(T)
 CCSD(T)= -0.24984456340D+03
 544\CCSD(T)=-249.8445634\RMSD=9.120e-09\PG=C01 [X(C5H9N1)]\\@
 Normal termination of Gaussian 09 at Fri Aug 26 14:01:05 2022.

 ---------------------------------------------------------
 #P Geom=AllCheck Guess=TCheck SCRF=Check MP4=FrzG4/GTBas2
 ---------------------------------------------------------

 Structure from the checkpoint file:  "G4.Frag_613.chk"
 --------
 Frag_613
 --------
 Charge =  0 Multiplicity = 1

 SCF Done:  E(RHF) =  -248.960819612     A.U. after   13 cycles
 E2 =    -0.8185657167D+00 EUMP2 =    -0.24977938532905D+03
 Normal termination of Gaussian 09 at Fri Aug 26 14:01:46 2022.

 ---------------------------------------------------------
 #P Geom=AllCheck Guess=TCheck SCRF=Check MP4=FrzG4/GTBas3
 ---------------------------------------------------------

 Structure from the checkpoint file:  "G4.Frag_613.chk"
 --------
 Frag_613
 --------
 Charge =  0 Multiplicity = 1

 SCF Done:  E(RHF) =  -248.986311493     A.U. after   12 cycles
 E2 =    -0.9880516496D+00 EUMP2 =    -0.24997436314288D+03
 Normal termination of Gaussian 09 at Fri Aug 26 14:05:26 2022.

 -----------------------------------------------------------
 #P Geom=AllCheck Guess=TCheck SCRF=Check MP2=Full/GTLargeXP
 -----------------------------------------------------------

 Structure from the checkpoint file:  "G4.Frag_613.chk"
 --------
 Frag_613
 --------
 Charge =  0 Multiplicity = 1

 SCF Done:  E(RHF) =  -249.044281874     A.U. after   13 cycles
 E2 =    -0.1304274317D+01 EUMP2 =    -0.25034855619091D+03
 Normal termination of Gaussian 09 at Fri Aug 26 14:07:23 2022.
 SCF Done:  E(RHF) =  -249.063549860     A.U. after    9 cycles
 Normal termination of Gaussian 09 at Fri Aug 26 14:09:31 2022.

                         Standard orientation:
 ---------------------------------------------------------------------
 Center     Atomic      Atomic             Coordinates (Angstroms)
 Number     Number       Type             X           Y           Z
 ---------------------------------------------------------------------
      1          6           0        2.368432    0.031127   -0.023094
      2          6           0        1.167274    0.030264    0.012784
      3          6           0       -0.301986    0.001659    0.027897
      4          6           0       -0.789625   -1.127022   -0.912479
      5          6           0       -0.851593    1.360781   -0.449093
      6          7           0       -0.736955   -0.188346    1.428953
      7          1           0        3.430081    0.043531   -0.044809
      8          1           0       -1.884894   -1.160140   -0.913316
      9          1           0       -0.412894   -2.097039   -0.575126
     10          1           0       -0.449342   -0.968990   -1.940519
     11          1           0       -0.525603    1.576556   -1.469543
     12          1           0       -1.947223    1.343280   -0.434385
     13          1           0       -0.507909    2.157862    0.212636
     14          1           0       -0.349918   -1.058271    1.785259
     15          1           0       -1.748618   -0.299222    1.441042
 ---------------------------------------------------------------------

 SCF Done:  E(RHF) =  -249.067472762     A.U. after    8 cycles

 The electronic state is 1-A.
 Alpha  occ. eigenvalues --  -15.54667 -11.29209 -11.22798 -11.22452 -11.22013
 Alpha  occ. eigenvalues --  -11.21927  -1.20376  -1.04971  -0.99787  -0.94222
 Alpha  occ. eigenvalues --   -0.83553  -0.71275  -0.67674  -0.63021  -0.61068
 Alpha  occ. eigenvalues --   -0.58144  -0.54992  -0.52721  -0.51919  -0.49820
 Alpha  occ. eigenvalues --   -0.40857  -0.39053  -0.38114
 Alpha virt. eigenvalues --    0.03272   0.03945   0.04431   0.05127   0.06303
 Alpha virt. eigenvalues --    0.06959   0.06968   0.07227   0.07673   0.09355
 Alpha virt. eigenvalues --    0.09639   0.09881   0.10851   0.11449   0.13070

 Mulliken charges:
               1
     1  C   -0.535051
     2  C    0.107305
     3  C    0.381763
     4  C   -0.540796
     5  C   -0.561651
     6  N   -0.718377
     7  H    0.243501
     8  H    0.164549
     9  H    0.172589
    10  H    0.177456
    11  H    0.176531
    12  H    0.159200
    13  H    0.187644
    14  H    0.297369
    15  H    0.287966
 Sum of Mulliken charges =  -0.00000

 Dipole moment (field-independent basis, Debye):
    X=             -0.9811    Y=             -1.0334    Z=             -0.8277  Tot=              1.6479
 Quadrupole moment (field-independent basis, Debye-Ang):
   XX=            -32.3983   YY=            -38.4822   ZZ=            -41.0943
   XY=              0.5646   XZ=             -0.4988   YZ=             -2.6172

 Normal termination of Gaussian 09 at Fri Aug 26 14:17:46 2022.
