 Gaussian 09, Revision E.01,
 Gaussian 09:  ES64L-G09RevE.01 30-Nov-2015

 -----
 #P G4
 -----

 ---------
 Frag_1107
 ---------
 Symbolic Z-matrix:
 Charge =  0 Multiplicity = 1

 SCF Done:  E(RB3LYP) =  -321.107365527     A.U. after   13 cycles
 SCF Done:  E(RB3LYP) =  -321.114457853     A.U. after   11 cycles
 SCF Done:  E(RB3LYP) =  -321.114908721     A.U. after   10 cycles
 SCF Done:  E(RB3LYP) =  -321.115172473     A.U. after   11 cycles
 SCF Done:  E(RB3LYP) =  -321.115492431     A.U. after   11 cycles
 SCF Done:  E(RB3LYP) =  -321.115870962     A.U. after   10 cycles
 SCF Done:  E(RB3LYP) =  -321.116486882     A.U. after   11 cycles
 SCF Done:  E(RB3LYP) =  -321.116663561     A.U. after   10 cycles
 SCF Done:  E(RB3LYP) =  -321.116777370     A.U. after   10 cycles
 SCF Done:  E(RB3LYP) =  -321.116821855     A.U. after    9 cycles
 SCF Done:  E(RB3LYP) =  -321.116872439     A.U. after    7 cycles
 SCF Done:  E(RB3LYP) =  -321.116873162     A.U. after    7 cycles
 SCF Done:  E(RB3LYP) =  -321.116873627     A.U. after    6 cycles
 Optimization completed.
    -- Stationary point found.
 Normal termination of Gaussian 09 at Wed Aug 24 14:15:50 2022.

 ----------------------------------------------------------
 #P Geom=AllCheck Guess=TCheck SCRF=Check B3LYP/GTBas3 Freq
 ----------------------------------------------------------

 Structure from the checkpoint file:  "G4.Frag_1107.chk"
 ---------
 Frag_1107
 ---------
 Charge =  0 Multiplicity = 1

 SCF Done:  E(RB3LYP) =  -321.116873627     A.U. after    1 cycles

  Exact polarizability:  50.171   2.701  48.265   0.745  -0.484  48.843
 Approx polarizability:  68.659   4.079  68.712   0.863  -0.638  69.998

                      1                      2                      3
                      A                      A                      A
 Frequencies --     96.3622               176.4963               234.4855
 Red. masses --      1.2602                 2.2453                 1.9098
 Frc consts  --      0.0069                 0.0412                 0.0619
 IR Inten    --     34.7389                38.9938                 4.6983

                      4                      5                      6
                      A                      A                      A
 Frequencies --    259.9248               335.7339               353.1126
 Red. masses --      1.3964                 1.2070                 1.5179
 Frc consts  --      0.0556                 0.0802                 0.1115
 IR Inten    --      9.6340                61.6232                15.8683

                      7                      8                      9
                      A                      A                      A
 Frequencies --    385.1876               422.0250               472.3027
 Red. masses --      1.9102                 2.1247                 2.6476
 Frc consts  --      0.1670                 0.2230                 0.3480
 IR Inten    --     52.3412                29.1918                 9.7997

                     10                     11                     12
                      A                      A                      A
 Frequencies --    490.6437               598.4879               673.5125
 Red. masses --      2.7760                 2.7114                 1.4935
 Frc consts  --      0.3937                 0.5722                 0.3992
 IR Inten    --      3.9137                11.6405               171.1893

                     13                     14                     15
                      A                      A                      A
 Frequencies --    792.9839               898.1427               937.5479
 Red. masses --      3.3456                 1.9589                 2.0623
 Frc consts  --      1.2395                 0.9310                 1.0680
 IR Inten    --     18.2415               122.2208               119.6461

                     16                     17                     18
                      A                      A                      A
 Frequencies --    955.1145               986.0186              1063.8144
 Red. masses --      1.3699                 1.6606                 1.6990
 Frc consts  --      0.7363                 0.9512                 1.1329
 IR Inten    --     79.9130                44.5993                10.5758

                     19                     20                     21
                      A                      A                      A
 Frequencies --   1082.4397              1149.5405              1162.2222
 Red. masses --      4.1353                 1.1699                 1.4065
 Frc consts  --      2.8548                 0.9108                 1.1193
 IR Inten    --     83.3480                 7.5802                27.8019

                     22                     23                     24
                      A                      A                      A
 Frequencies --   1253.8833              1325.6142              1368.0216
 Red. masses --      1.8292                 1.6259                 1.4926
 Frc consts  --      1.6944                 1.6834                 1.6458
 IR Inten    --     52.8987                25.6859                57.7849

                     25                     26                     27
                      A                      A                      A
 Frequencies --   1393.0249              1425.6660              1500.4040
 Red. masses --      1.6202                 1.4664                 1.0852
 Frc consts  --      1.8524                 1.7560                 1.4393
 IR Inten    --      9.6327                13.1813                 1.5261

                     28                     29                     30
                      A                      A                      A
 Frequencies --   1613.3981              1652.1919              1655.1216
 Red. masses --      1.1140                 1.1095                 1.0931
 Frc consts  --      1.7085                 1.7844                 1.7643
 IR Inten    --     40.8975                48.7094                13.7709

                     31                     32                     33
                      A                      A                      A
 Frequencies --   2950.7391              3106.5253              3477.2273
 Red. masses --      1.0721                 1.0909                 1.0502
 Frc consts  --      5.4996                 6.2026                 7.4812
 IR Inten    --     72.1298                20.6452                 0.5031

                     34                     35                     36
                      A                      A                      A
 Frequencies --   3482.8644              3521.1271              3550.6426
 Red. masses --      1.0501                 1.0479                 1.0901
 Frc consts  --      7.5048                 7.6551                 8.0970
 IR Inten    --      2.5657                 2.7114                 0.9271

                     37                     38                     39
                      A                      A                      A
 Frequencies --   3568.6981              3632.2038              3781.5231
 Red. masses --      1.0905                 1.0961                 1.0652
 Frc consts  --      8.1824                 8.5201                 8.9742
 IR Inten    --      5.7754                 5.9919                13.4509

 - Thermochemistry -
 -------------------
 Temperature   298.150 Kelvin.  Pressure   1.00000 Atm.
 Atom     1 has atomic number  7 and mass  14.00307

 Molecular mass:    91.07456 amu.
 Principal axes and moments of inertia in atomic units:
                           1         2         3
     Eigenvalues --   380.44067 656.31520 667.76654
           X            0.99972   0.02296   0.00591
           Y           -0.02286   0.99960  -0.01638
           Z           -0.00628   0.01624   0.99985
 This molecule is an asymmetric top.
 Rotational symmetry number  1.
 Rotational temperatures (Kelvin)      0.22767     0.13197     0.12971
 Rotational constants (GHZ):           4.74382     2.74981     2.70265
 Zero-point vibrational energy     345630.9 (Joules/Mol)
                                   82.60777 (Kcal/Mol)
 Warning -- explicit consideration of  11 degrees of freedom as
           vibrations may cause significant error
 Vibrational temperatures:    138.64   253.94   337.37   373.97   483.05
          (Kelvin)            508.05   554.20   607.20   679.54   705.93
                              861.09   969.03  1140.93  1292.23  1348.92
                             1374.19  1418.66  1530.59  1557.39  1653.93
                             1672.18  1804.06  1907.26  1968.28  2004.25
                             2051.21  2158.74  2321.32  2377.13  2381.35
                             4245.45  4469.59  5002.95  5011.06  5066.11
                             5108.58  5134.55  5225.92  5440.76

 Zero-point correction=                           0.131644 (Hartree/Particle)
 Thermal correction to Energy=                    0.139326
 Thermal correction to Enthalpy=                  0.140270
 Thermal correction to Gibbs Free Energy=         0.100829
 Sum of electronic and zero-point Energies=           -320.985230
 Sum of electronic and thermal Energies=              -320.977548
 Sum of electronic and thermal Enthalpies=            -320.976603
 Sum of electronic and thermal Free Energies=         -321.016045

                     E (Thermal)             CV                S
                      KCal/Mol        Cal/Mol-Kelvin    Cal/Mol-Kelvin
 Total                   87.428             28.274             83.012
 Electronic               0.000              0.000              0.000
 Translational            0.889              2.981             39.439
 Rotational               0.889              2.981             26.614
 Vibrational             85.651             22.312             16.959
 Vibration     1          0.603              1.952              3.527
 Vibration     2          0.628              1.871              2.365
 Vibration     3          0.654              1.788              1.844
 Vibration     4          0.668              1.746              1.662
 Vibration     5          0.717              1.604              1.232
 Vibration     6          0.729              1.569              1.152
 Vibration     7          0.754              1.502              1.019
 Vibration     8          0.784              1.422              0.885
 Vibration     9          0.829              1.312              0.731
 Vibration    10          0.846              1.271              0.682
 Vibration    11          0.956              1.035              0.452

 Optimization completed.
    -- Stationary point found.
 Normal termination of Gaussian 09 at Wed Aug 24 14:18:45 2022.

 -----------------------------------------------------------------
 #P Geom=AllCheck Guess=TCheck SCRF=Check CCSD(T,E4T,FrzG4)/GTBas1
 -----------------------------------------------------------------

 Structure from the checkpoint file:  "G4.Frag_1107.chk"
 ---------
 Frag_1107
 ---------
 Charge =  0 Multiplicity = 1

 SCF Done:  E(RHF) =  -319.148826295     A.U. after   12 cycles
 E2 =    -0.9371008286D+00 EUMP2 =    -0.32008592712324D+03
 CCSD(T)
 CCSD(T)= -0.32016225746D+03
 1366533\CCSD(T)=-320.1622575\RMSD=4.123e-09\PG=C01 [X(C2H9N3O1)]\\@
 Normal termination of Gaussian 09 at Wed Aug 24 14:24:53 2022.

 ---------------------------------------------------------
 #P Geom=AllCheck Guess=TCheck SCRF=Check MP4=FrzG4/GTBas2
 ---------------------------------------------------------

 Structure from the checkpoint file:  "G4.Frag_1107.chk"
 ---------
 Frag_1107
 ---------
 Charge =  0 Multiplicity = 1

 SCF Done:  E(RHF) =  -319.163461178     A.U. after   12 cycles
 E2 =    -0.9556923873D+00 EUMP2 =    -0.32011915356503D+03
 Normal termination of Gaussian 09 at Wed Aug 24 14:33:55 2022.

 ---------------------------------------------------------
 #P Geom=AllCheck Guess=TCheck SCRF=Check MP4=FrzG4/GTBas3
 ---------------------------------------------------------

 Structure from the checkpoint file:  "G4.Frag_1107.chk"
 ---------
 Frag_1107
 ---------
 Charge =  0 Multiplicity = 1

 SCF Done:  E(RHF) =  -319.200593942     A.U. after   11 cycles
 E2 =    -0.1155730120D+01 EUMP2 =    -0.32035632406230D+03
 Normal termination of Gaussian 09 at Wed Aug 24 17:53:12 2022.

 -----------------------------------------------------------
 #P Geom=AllCheck Guess=TCheck SCRF=Check MP2=Full/GTLargeXP
 -----------------------------------------------------------

 Structure from the checkpoint file:  "G4.Frag_1107.chk"
 ---------
 Frag_1107
 ---------
 Charge =  0 Multiplicity = 1

 SCF Done:  E(RHF) =  -319.290299998     A.U. after   12 cycles
 E2 =    -0.1503474217D+01 EUMP2 =    -0.32079377421551D+03
 Normal termination of Gaussian 09 at Wed Aug 24 17:59:50 2022.
 SCF Done:  E(RHF) =  -319.315239364     A.U. after    9 cycles
 Normal termination of Gaussian 09 at Wed Aug 24 18:06:34 2022.

                         Standard orientation:
 ---------------------------------------------------------------------
 Center     Atomic      Atomic             Coordinates (Angstroms)
 Number     Number       Type             X           Y           Z
 ---------------------------------------------------------------------
      1          7           0        1.575250    0.865921   -0.253997
      2          6           0        0.431938   -0.008221   -0.009099
      3          7           0        0.455436   -1.232780   -0.828784
      4          7           0        0.515269   -0.431796    1.386196
      5          6           0       -0.848230    0.807730   -0.297378
      6          8           0       -2.015163    0.106117    0.097062
      7          1           0        2.413400    0.299490   -0.138997
      8          1           0        1.572591    1.142867   -1.232555
      9          1           0       -0.182346   -1.217945   -1.615601
     10          1           0        0.308852   -2.060371   -0.266232
     11          1           0       -0.425245   -0.658264    1.702467
     12          1           0        0.826672    0.365163    1.933503
     13          1           0       -0.886892    1.083644   -1.365960
     14          1           0       -0.825708    1.731073    0.285906
     15          1           0       -2.003957   -0.741061   -0.364080
 ---------------------------------------------------------------------

 SCF Done:  E(RHF) =  -319.320908336     A.U. after    8 cycles

 The electronic state is 1-A.
 Alpha  occ. eigenvalues --  -20.56761 -15.54576 -15.54252 -15.54136 -11.32202
 Alpha  occ. eigenvalues --  -11.28028  -1.37568  -1.26051  -1.13550  -1.12938
 Alpha  occ. eigenvalues --   -0.95469  -0.80269  -0.72396  -0.69007  -0.66281
 Alpha  occ. eigenvalues --   -0.65409  -0.63282  -0.59693  -0.56580  -0.55590
 Alpha  occ. eigenvalues --   -0.51124  -0.47510  -0.43703  -0.41286  -0.38752
 Alpha virt. eigenvalues --    0.03461   0.04723   0.05059   0.05156   0.07229
 Alpha virt. eigenvalues --    0.07281   0.07522   0.08902   0.09310   0.11966
 Alpha virt. eigenvalues --    0.12666   0.12739   0.12970   0.14469   0.14982

 Mulliken charges:
               1
     1  N   -0.704062
     2  C    0.475404
     3  N   -0.784873
     4  N   -0.773266
     5  C   -0.163814
     6  O   -0.567238
     7  H    0.303922
     8  H    0.271771
     9  H    0.292092
    10  H    0.331546
    11  H    0.311513
    12  H    0.317958
    13  H    0.135481
    14  H    0.190855
    15  H    0.362710
 Sum of Mulliken charges =  -0.00000

 Dipole moment (field-independent basis, Debye):
    X=             -0.5669    Y=             -0.5264    Z=             -1.5028  Tot=              1.6902
 Quadrupole moment (field-independent basis, Debye-Ang):
   XX=            -42.5787   YY=            -37.8554   ZZ=            -35.1026
   XY=              3.8083   XZ=              0.8642   YZ=              0.2806

 Normal termination of Gaussian 09 at Wed Aug 24 21:08:13 2022.
