 Gaussian 09, Revision E.01,
 Gaussian 09:  ES64L-G09RevE.01 30-Nov-2015

 -----
 #P G4
 -----

 --------
 Frag_763
 --------
 Symbolic Z-matrix:
 Charge =  0 Multiplicity = 1

 SCF Done:  E(RB3LYP) =  -225.203187635     A.U. after   13 cycles
 SCF Done:  E(RB3LYP) =  -225.207200250     A.U. after   11 cycles
 SCF Done:  E(RB3LYP) =  -225.207618121     A.U. after   10 cycles
 SCF Done:  E(RB3LYP) =  -225.207660563     A.U. after   10 cycles
 SCF Done:  E(RB3LYP) =  -225.207674183     A.U. after    9 cycles
 SCF Done:  E(RB3LYP) =  -225.207678116     A.U. after    8 cycles
 SCF Done:  E(RB3LYP) =  -225.207678956     A.U. after    8 cycles
 Optimization completed.
    -- Stationary point found.
 Normal termination of Gaussian 09 at Tue Aug 30 11:36:55 2022.

 ----------------------------------------------------------
 #P Geom=AllCheck Guess=TCheck SCRF=Check B3LYP/GTBas3 Freq
 ----------------------------------------------------------

 Structure from the checkpoint file:  "G4.Frag_763.chk"
 --------
 Frag_763
 --------
 Charge =  0 Multiplicity = 1

 SCF Done:  E(RB3LYP) =  -225.207678956     A.U. after    1 cycles

  Exact polarizability:  45.133   3.214  29.063  -0.409  -0.476  17.162
 Approx polarizability:  70.098   2.235  42.051   0.631  -0.281  25.345

                      1                      2                      3
                      A                      A                      A
 Frequencies --    286.9655               295.6544               382.1364
 Red. masses --      1.4962                 2.2740                 1.0918
 Frc consts  --      0.0726                 0.1171                 0.0939
 IR Inten    --     84.7781                53.7822                25.0826

                      4                      5                      6
                      A                      A                      A
 Frequencies --    581.3302               752.2551               787.3914
 Red. masses --      3.0742                 3.8640                 1.8526
 Frc consts  --      0.6121                 1.2883                 0.6767
 IR Inten    --     21.9837                 7.2953               212.0617

                      7                      8                      9
                      A                      A                      A
 Frequencies --    839.2317              1060.9756              1122.0406
 Red. masses --      1.3792                 2.8241                 2.4706
 Frc consts  --      0.5723                 1.8730                 1.8326
 IR Inten    --     12.2103                 7.7591                76.1968

                     10                     11                     12
                      A                      A                      A
 Frequencies --   1244.8303              1347.1109              1401.8296
 Red. masses --      1.4739                 1.2729                 1.2380
 Frc consts  --      1.3457                 1.3610                 1.4334
 IR Inten    --    181.6562                22.5931                 5.3350

                     13                     14                     15
                      A                      A                      A
 Frequencies --   1653.5981              1769.2441              3182.1616
 Red. masses --      1.1256                 6.0054                 1.0920
 Frc consts  --      1.8134                11.0756                 6.5152
 IR Inten    --     23.3352                60.0681                10.1563

                     16                     17                     18
                      A                      A                      A
 Frequencies --   3463.5742              3602.9314              3848.7921
 Red. masses --      1.0502                 1.0928                 1.0667
 Frc consts  --      7.4226                 8.3582                 9.3100
 IR Inten    --      1.2250                 7.5893                70.8894

 - Thermochemistry -
 -------------------
 Temperature   298.150 Kelvin.  Pressure   1.00000 Atm.
 Atom     1 has atomic number  7 and mass  14.00307

 Molecular mass:    60.03236 amu.
 Principal axes and moments of inertia in atomic units:
                           1         2         3
     Eigenvalues --    88.18386 269.82936 355.56901
           X            0.99860   0.05137  -0.01267
           Y           -0.05163   0.99846  -0.02037
           Z            0.01160   0.02100   0.99971
 This molecule is an asymmetric top.
 Rotational symmetry number  1.
 Rotational temperatures (Kelvin)      0.98220     0.32099     0.24359
 Rotational constants (GHZ):          20.46566     6.68845     5.07564
 Zero-point vibrational energy     165216.6 (Joules/Mol)
                                   39.48771 (Kcal/Mol)
 Warning -- explicit consideration of   4 degrees of freedom as
           vibrations may cause significant error
 Vibrational temperatures:    412.88   425.38   549.81   836.40  1082.33
          (Kelvin)           1132.88  1207.47  1526.51  1614.36  1791.03
                             1938.19  2016.92  2379.16  2545.54  4578.42
                             4983.30  5183.81  5537.55

 Zero-point correction=                           0.062928 (Hartree/Particle)
 Thermal correction to Energy=                    0.067450
 Thermal correction to Enthalpy=                  0.068394
 Thermal correction to Gibbs Free Energy=         0.036487
 Sum of electronic and zero-point Energies=           -225.144751
 Sum of electronic and thermal Energies=              -225.140229
 Sum of electronic and thermal Enthalpies=            -225.139285
 Sum of electronic and thermal Free Energies=         -225.171192

                     E (Thermal)             CV                S
                      KCal/Mol        Cal/Mol-Kelvin    Cal/Mol-Kelvin
 Total                   42.326             14.972             67.155
 Electronic               0.000              0.000              0.000
 Translational            0.889              2.981             38.197
 Rotational               0.889              2.981             23.652
 Vibrational             40.548              9.010              5.307
 Vibration     1          0.684              1.698              1.492
 Vibration     2          0.690              1.682              1.441
 Vibration     3          0.752              1.508              1.031
 Vibration     4          0.938              1.072              0.483

 Normal termination of Gaussian 09 at Tue Aug 30 11:37:07 2022.

 -----------------------------------------------------------------
 #P Geom=AllCheck Guess=TCheck SCRF=Check CCSD(T,E4T,FrzG4)/GTBas1
 -----------------------------------------------------------------

 Structure from the checkpoint file:  "G4.Frag_763.chk"
 --------
 Frag_763
 --------
 Charge =  0 Multiplicity = 1

 SCF Done:  E(RHF) =  -223.891866958     A.U. after   13 cycles
 E2 =    -0.6320390795D+00 EUMP2 =    -0.22452390603760D+03
 CCSD(T)
 CCSD(T)= -0.22456934084D+03
 .5700758\MP4SDQ=-224.5495365\CCSD=-224.5494476\CCSD(T)=-224.5693408\RM
 Normal termination of Gaussian 09 at Tue Aug 30 11:37:26 2022.

 ---------------------------------------------------------
 #P Geom=AllCheck Guess=TCheck SCRF=Check MP4=FrzG4/GTBas2
 ---------------------------------------------------------

 Structure from the checkpoint file:  "G4.Frag_763.chk"
 --------
 Frag_763
 --------
 Charge =  0 Multiplicity = 1

 SCF Done:  E(RHF) =  -223.902112803     A.U. after   12 cycles
 E2 =    -0.6432858326D+00 EUMP2 =    -0.22454539863561D+03
 Normal termination of Gaussian 09 at Tue Aug 30 11:37:33 2022.

 ---------------------------------------------------------
 #P Geom=AllCheck Guess=TCheck SCRF=Check MP4=FrzG4/GTBas3
 ---------------------------------------------------------

 Structure from the checkpoint file:  "G4.Frag_763.chk"
 --------
 Frag_763
 --------
 Charge =  0 Multiplicity = 1

 SCF Done:  E(RHF) =  -223.924311293     A.U. after   11 cycles
 E2 =    -0.7673944809D+00 EUMP2 =    -0.22469170577423D+03
 Normal termination of Gaussian 09 at Tue Aug 30 11:37:57 2022.

 -----------------------------------------------------------
 #P Geom=AllCheck Guess=TCheck SCRF=Check MP2=Full/GTLargeXP
 -----------------------------------------------------------

 Structure from the checkpoint file:  "G4.Frag_763.chk"
 --------
 Frag_763
 --------
 Charge =  0 Multiplicity = 1

 SCF Done:  E(RHF) =  -223.989384979     A.U. after   12 cycles
 E2 =    -0.9997616479D+00 EUMP2 =    -0.22498914662733D+03
 Normal termination of Gaussian 09 at Tue Aug 30 11:38:12 2022.
 SCF Done:  E(RHF) =  -224.007788926     A.U. after   10 cycles
 Normal termination of Gaussian 09 at Tue Aug 30 11:38:35 2022.

                         Standard orientation:
 ---------------------------------------------------------------------
 Center     Atomic      Atomic             Coordinates (Angstroms)
 Number     Number       Type             X           Y           Z
 ---------------------------------------------------------------------
      1          7           0       -1.379057   -0.457459   -0.104278
      2          7           0       -0.637080    0.713261    0.004393
      3          6           0        0.623588    0.601807    0.010981
      4          8           0        1.263637   -0.607680   -0.012337
      5          1           0       -2.275363   -0.300738    0.337646
      6          1           0       -0.916122   -1.263952    0.309847
      7          1           0        1.240542    1.494655    0.039404
      8          1           0        2.213275   -0.469978    0.045105
 ---------------------------------------------------------------------

 SCF Done:  E(RHF) =  -224.011680791     A.U. after    8 cycles

 The electronic state is 1-A.
 Alpha  occ. eigenvalues --  -20.60623 -15.58293 -15.57441 -11.32411  -1.42688
 Alpha  occ. eigenvalues --   -1.28796  -1.07306  -0.82328  -0.76660  -0.70271
 Alpha  occ. eigenvalues --   -0.63888  -0.61133  -0.56399  -0.50988  -0.44650
 Alpha  occ. eigenvalues --   -0.34538
 Alpha virt. eigenvalues --    0.03477   0.05156   0.05496   0.06000   0.08655
 Alpha virt. eigenvalues --    0.09831   0.10417   0.12878   0.13136   0.14141
 Alpha virt. eigenvalues --    0.14482   0.16019   0.16775   0.18000   0.18470

 Mulliken charges:
               1
     1  N   -0.558740
     2  N   -0.303646
     3  C    0.182825
     4  O   -0.535782
     5  H    0.314104
     6  H    0.306022
     7  H    0.208305
     8  H    0.386912
 Sum of Mulliken charges =  -0.00000

 Dipole moment (field-independent basis, Debye):
    X=              2.5267    Y=             -0.3745    Z=              1.3772  Tot=              2.9019
 Quadrupole moment (field-independent basis, Debye-Ang):
   XX=            -15.6386   YY=            -24.9971   ZZ=            -25.9510
   XY=              3.0617   XZ=             -2.0787   YZ=             -1.2649

 Normal termination of Gaussian 09 at Tue Aug 30 11:40:35 2022.
