 Gaussian 09, Revision E.01,
 Gaussian 09:  ES64L-G09RevE.01 30-Nov-2015

 -----
 #P G4
 -----

 --------
 Frag_907
 --------
 Symbolic Z-matrix:
 Charge =  0 Multiplicity = 1

 SCF Done:  E(RB3LYP) =  -284.420997151     A.U. after   13 cycles
 SCF Done:  E(RB3LYP) =  -284.435224429     A.U. after   12 cycles
 SCF Done:  E(RB3LYP) =  -284.436891664     A.U. after   11 cycles
 SCF Done:  E(RB3LYP) =  -284.436984477     A.U. after   11 cycles
 SCF Done:  E(RB3LYP) =  -284.437071332     A.U. after    9 cycles
 SCF Done:  E(RB3LYP) =  -284.437079630     A.U. after    8 cycles
 SCF Done:  E(RB3LYP) =  -284.437183277     A.U. after   11 cycles
 SCF Done:  E(RB3LYP) =  -284.437259820     A.U. after   11 cycles
 SCF Done:  E(RB3LYP) =  -284.437332047     A.U. after    9 cycles
 SCF Done:  E(RB3LYP) =  -284.437354496     A.U. after    9 cycles
 SCF Done:  E(RB3LYP) =  -284.437368018     A.U. after    9 cycles
 SCF Done:  E(RB3LYP) =  -284.437368065     A.U. after    7 cycles
 SCF Done:  E(RB3LYP) =  -284.437368069     A.U. after    6 cycles
 Optimization completed.
    -- Stationary point found.
 Normal termination of Gaussian 09 at Tue Aug 30 10:26:24 2022.

 ----------------------------------------------------------
 #P Geom=AllCheck Guess=TCheck SCRF=Check B3LYP/GTBas3 Freq
 ----------------------------------------------------------

 Structure from the checkpoint file:  "G4.Frag_907.chk"
 --------
 Frag_907
 --------
 Charge =  0 Multiplicity = 1

 SCF Done:  E(RB3LYP) =  -284.437368069     A.U. after    1 cycles

  Exact polarizability:  50.196  -2.019  36.618  -0.000   0.000  24.856
 Approx polarizability:  69.216  -6.799  54.990  -0.000  -0.000  35.684

                      1                      2                      3
                      A                      A                      A
 Frequencies --     40.1062               234.6443               276.6429
 Red. masses --      1.0688                 3.0005                 3.4389
 Frc consts  --      0.0010                 0.0973                 0.1551
 IR Inten    --      0.6501                40.3343                10.3278

                      4                      5                      6
                      A                      A                      A
 Frequencies --    403.3669               507.5502               533.0384
 Red. masses --      1.1605                 3.6231                 1.1319
 Frc consts  --      0.1113                 0.5499                 0.1895
 IR Inten    --    133.8632                18.9486                47.4799

                      7                      8                      9
                      A                      A                      A
 Frequencies --    612.5790               720.9851               891.8728
 Red. masses --      4.6535                10.8087                 5.9890
 Frc consts  --      1.0288                 3.3104                 2.8068
 IR Inten    --      2.4827                20.6208                27.5691

                     10                     11                     12
                      A                      A                      A
 Frequencies --   1071.5205              1140.9415              1155.3824
 Red. masses --      3.2516                 1.3265                 1.5263
 Frc consts  --      2.1996                 1.0174                 1.2004
 IR Inten    --    122.3941                 0.0486                18.5452

                     13                     14                     15
                      A                      A                      A
 Frequencies --   1183.8337              1309.5900              1421.3041
 Red. masses --      1.5774                 1.6724                 2.7106
 Frc consts  --      1.3025                 1.6899                 3.2262
 IR Inten    --    125.8403                98.4315               190.7145

                     16                     17                     18
                      A                      A                      A
 Frequencies --   1449.5855              1495.9530              1504.1457
 Red. masses --      1.2196                 1.0428                 1.0523
 Frc consts  --      1.5099                 1.3750                 1.4028
 IR Inten    --     33.1834                 2.8727                 2.8319

                     19                     20                     21
                      A                      A                      A
 Frequencies --   1838.3308              3014.5611              3071.5557
 Red. masses --      7.4592                 1.0320                 1.1014
 Frc consts  --     14.8522                 5.5257                 6.1223
 IR Inten    --    476.0917                55.6600                29.7960

                     22                     23                     24
                      A                      A                      A
 Frequencies --   3082.6158              3791.5814              3811.6194
 Red. masses --      1.1037                 1.0643                 1.0653
 Frc consts  --      6.1793                 9.0147                 9.1187
 IR Inten    --     28.9773                62.7351                84.6768

 - Thermochemistry -
 -------------------
 Temperature   298.150 Kelvin.  Pressure   1.00000 Atm.
 Atom     1 has atomic number  6 and mass  12.00000

 Molecular mass:    75.03203 amu.
 Principal axes and moments of inertia in atomic units:
                           1         2         3
     Eigenvalues --   172.63720 435.51125 596.99537
           X            0.99998   0.00664  -0.00000
           Y           -0.00664   0.99998   0.00000
           Z            0.00000  -0.00000   1.00000
 This molecule is an asymmetric top.
 Rotational symmetry number  1.
 Rotational temperatures (Kelvin)      0.50171     0.19888     0.14508
 Rotational constants (GHZ):          10.45395     4.14396     3.02304
 Zero-point vibrational energy     206734.5 (Joules/Mol)
                                   49.41073 (Kcal/Mol)
 Warning -- explicit consideration of   7 degrees of freedom as
           vibrations may cause significant error
 Vibrational temperatures:     57.70   337.60   398.03   580.35   730.25
          (Kelvin)            766.92   881.36  1037.34  1283.20  1541.68
                             1641.56  1662.34  1703.27  1884.21  2044.94
                             2085.63  2152.34  2164.13  2644.94  4337.28
                             4419.28  4435.19  5455.23  5484.06

 Zero-point correction=                           0.078741 (Hartree/Particle)
 Thermal correction to Energy=                    0.084548
 Thermal correction to Enthalpy=                  0.085493
 Thermal correction to Gibbs Free Energy=         0.049312
 Sum of electronic and zero-point Energies=           -284.358627
 Sum of electronic and thermal Energies=              -284.352820
 Sum of electronic and thermal Enthalpies=            -284.351875
 Sum of electronic and thermal Free Energies=         -284.388056

                     E (Thermal)             CV                S
                      KCal/Mol        Cal/Mol-Kelvin    Cal/Mol-Kelvin
 Total                   53.055             19.133             76.148
 Electronic               0.000              0.000              0.000
 Translational            0.889              2.981             38.862
 Rotational               0.889              2.981             25.310
 Vibrational             51.277             13.171             11.977
 Vibration     1          0.594              1.981              5.254
 Vibration     2          0.654              1.788              1.843
 Vibration     3          0.678              1.717              1.554
 Vibration     4          0.769              1.463              0.950
 Vibration     5          0.863              1.233              0.640
 Vibration     6          0.888              1.177              0.580
 Vibration     7          0.972              1.005              0.429

 Optimization completed.
    -- Stationary point found.
 Normal termination of Gaussian 09 at Tue Aug 30 10:26:41 2022.

 -----------------------------------------------------------------
 #P Geom=AllCheck Guess=TCheck SCRF=Check CCSD(T,E4T,FrzG4)/GTBas1
 -----------------------------------------------------------------

 Structure from the checkpoint file:  "G4.Frag_907.chk"
 --------
 Frag_907
 --------
 Charge =  0 Multiplicity = 1

 SCF Done:  E(RHF) =  -282.808044961     A.U. after   13 cycles
 E2 =    -0.7711450769D+00 EUMP2 =    -0.28357919003811D+03
 CCSD(T)
 CCSD(T)= -0.28363158357D+03
 Normal termination of Gaussian 09 at Tue Aug 30 10:27:26 2022.

 ---------------------------------------------------------
 #P Geom=AllCheck Guess=TCheck SCRF=Check MP4=FrzG4/GTBas2
 ---------------------------------------------------------

 Structure from the checkpoint file:  "G4.Frag_907.chk"
 --------
 Frag_907
 --------
 Charge =  0 Multiplicity = 1

 SCF Done:  E(RHF) =  -282.817312287     A.U. after   12 cycles
 E2 =    -0.7837062833D+00 EUMP2 =    -0.28360101857036D+03
 Normal termination of Gaussian 09 at Tue Aug 30 10:27:41 2022.

 ---------------------------------------------------------
 #P Geom=AllCheck Guess=TCheck SCRF=Check MP4=FrzG4/GTBas3
 ---------------------------------------------------------

 Structure from the checkpoint file:  "G4.Frag_907.chk"
 --------
 Frag_907
 --------
 Charge =  0 Multiplicity = 1

 SCF Done:  E(RHF) =  -282.847400875     A.U. after   11 cycles
 E2 =    -0.9468424403D+00 EUMP2 =    -0.28379424331499D+03
 Normal termination of Gaussian 09 at Tue Aug 30 10:28:50 2022.

 -----------------------------------------------------------
 #P Geom=AllCheck Guess=TCheck SCRF=Check MP2=Full/GTLargeXP
 -----------------------------------------------------------

 Structure from the checkpoint file:  "G4.Frag_907.chk"
 --------
 Frag_907
 --------
 Charge =  0 Multiplicity = 1

 SCF Done:  E(RHF) =  -282.926048860     A.U. after   12 cycles
 E2 =    -0.1237209476D+01 EUMP2 =    -0.28416325833514D+03
 Normal termination of Gaussian 09 at Tue Aug 30 10:29:31 2022.
 SCF Done:  E(RHF) =  -282.949256904     A.U. after    8 cycles
 Normal termination of Gaussian 09 at Tue Aug 30 10:30:13 2022.

                         Standard orientation:
 ---------------------------------------------------------------------
 Center     Atomic      Atomic             Coordinates (Angstroms)
 Number     Number       Type             X           Y           Z
 ---------------------------------------------------------------------
      1          6           0        1.925275   -0.019391    0.000012
      2          7           0        0.649913   -0.713437   -0.000015
      3          6           0       -0.419889   -0.053497   -0.000016
      4          8           0       -1.635813   -0.651777    0.000003
      5          8           0       -0.549253    1.289605   -0.000017
      6          1           0        1.840973    1.073573    0.000122
      7          1           0        2.504789   -0.321362    0.880161
      8          1           0        2.504744   -0.321192   -0.880217
      9          1           0       -1.461052   -1.602238    0.000054
     10          1           0       -1.490634    1.499980    0.000131
 ---------------------------------------------------------------------

 SCF Done:  E(RHF) =  -282.954218233     A.U. after    8 cycles

 The electronic state is 1-A.
 Alpha  occ. eigenvalues --  -20.61370 -20.61089 -15.53444 -11.39603 -11.24152
 Alpha  occ. eigenvalues --   -1.48402  -1.39087  -1.21272  -0.94481  -0.84104
 Alpha  occ. eigenvalues --   -0.78210  -0.68972  -0.66355  -0.61830  -0.60089
 Alpha  occ. eigenvalues --   -0.56914  -0.54944  -0.54537  -0.42268  -0.38420
 Alpha virt. eigenvalues --    0.03955   0.04687   0.05193   0.05487   0.07087
 Alpha virt. eigenvalues --    0.07847   0.07932   0.11896   0.12823   0.13242
 Alpha virt. eigenvalues --    0.13913   0.14746   0.15510   0.16129   0.16463

 Mulliken charges:
               1
     1  C   -0.427349
     2  N   -0.469955
     3  C    0.649471
     4  O   -0.566914
     5  O   -0.548593
     6  H    0.182989
     7  H    0.173950
     8  H    0.173952
     9  H    0.420831
    10  H    0.411618
 Sum of Mulliken charges =  -0.00000

 Dipole moment (field-independent basis, Debye):
    X=             -1.2289    Y=              0.4624    Z=              0.0004  Tot=              1.3130
 Quadrupole moment (field-independent basis, Debye-Ang):
   XX=            -26.8562   YY=            -28.4425   ZZ=            -30.4584
   XY=              0.1145   XZ=             -0.0006   YZ=              0.0002

 Normal termination of Gaussian 09 at Tue Aug 30 10:34:57 2022.
