 Gaussian 09, Revision E.01,
 Gaussian 09:  ES64L-G09RevE.01 30-Nov-2015

 -----
 #P G4
 -----

 --------
 Frag_849
 --------
 Symbolic Z-matrix:
 Charge =  0 Multiplicity = 1

 SCF Done:  E(RB3LYP) =  -343.065579470     A.U. after   18 cycles
 SCF Done:  E(RB3LYP) =  -343.082042048     A.U. after   13 cycles
 SCF Done:  E(RB3LYP) =  -343.084230761     A.U. after   13 cycles
 SCF Done:  E(RB3LYP) =  -343.084598929     A.U. after   12 cycles
 SCF Done:  E(RB3LYP) =  -343.084718624     A.U. after   12 cycles
 SCF Done:  E(RB3LYP) =  -343.085189020     A.U. after   13 cycles
 SCF Done:  E(RB3LYP) =  -343.086063988     A.U. after   13 cycles
 SCF Done:  E(RB3LYP) =  -343.087484776     A.U. after   13 cycles
 SCF Done:  E(RB3LYP) =  -343.089685653     A.U. after   14 cycles
 SCF Done:  E(RB3LYP) =  -343.092336532     A.U. after   13 cycles
 SCF Done:  E(RB3LYP) =  -343.177081020     A.U. after    7 cycles
 SCF Done:  E(RB3LYP) =  -343.177080513     A.U. after    7 cycles
 SCF Done:  E(RB3LYP) =  -343.177080382     A.U. after    6 cycles
 Optimization completed.
    -- Stationary point found.
 Normal termination of Gaussian 09 at Fri Aug 26 09:16:38 2022.

 ----------------------------------------------------------
 #P Geom=AllCheck Guess=TCheck SCRF=Check B3LYP/GTBas3 Freq
 ----------------------------------------------------------

 Structure from the checkpoint file:  "G4.Frag_849.chk"
 --------
 Frag_849
 --------
 Charge =  0 Multiplicity = 1

 SCF Done:  E(RB3LYP) =  -343.177080382     A.U. after    1 cycles

  Exact polarizability:  77.369   0.950  59.078  -0.002  -0.017  52.805
 Approx polarizability: 105.211   7.552  86.857  -0.023  -0.042  72.951

                      1                      2                      3
                      A                      A                      A
 Frequencies --     39.7941                71.1446                98.0927
 Red. masses --      4.6640                 1.3740                 1.7466
 Frc consts  --      0.0044                 0.0041                 0.0099
 IR Inten    --      0.2736                 0.4845                 0.2282

                      4                      5                      6
                      A                      A                      A
 Frequencies --    178.5787               239.7136               252.8746
 Red. masses --      2.4704                 1.0271                 1.1863
 Frc consts  --      0.0464                 0.0348                 0.0447
 IR Inten    --      1.1115                 0.0012                 0.9987

                      7                      8                      9
                      A                      A                      A
 Frequencies --    359.3614               386.5380               476.0143
 Red. masses --      2.5811                 2.5563                 3.2198
 Frc consts  --      0.1964                 0.2250                 0.4298
 IR Inten    --      0.5484                 8.9172                 1.0773

                     10                     11                     12
                      A                      A                      A
 Frequencies --    524.3179               525.9941               561.3731
 Red. masses --      3.4734                 1.1270                 3.8637
 Frc consts  --      0.5626                 0.1837                 0.7174
 IR Inten    --     28.8276                55.8303                 0.6494

                     13                     14                     15
                      A                      A                      A
 Frequencies --    597.1764               812.9163               914.6616
 Red. masses --      2.4711                 4.0153                 3.7647
 Frc consts  --      0.5192                 1.5634                 1.8557
 IR Inten    --     29.5279                 5.3640                21.4198

                     16                     17                     18
                      A                      A                      A
 Frequencies --   1014.7265              1030.6936              1054.2144
 Red. masses --      1.6215                 1.7027                 1.7887
 Frc consts  --      0.9837                 1.0657                 1.1712
 IR Inten    --     18.7147                13.1306                 2.0394

                     19                     20                     21
                      A                      A                      A
 Frequencies --   1100.7437              1117.3900              1184.7288
 Red. masses --      2.0360                 1.2376                 1.5912
 Frc consts  --      1.4534                 0.9104                 1.3159
 IR Inten    --     11.0104                 2.4978                17.7605

                     22                     23                     24
                      A                      A                      A
 Frequencies --   1254.1059              1285.3581              1340.6548
 Red. masses --      3.2897                 2.3705                 1.8506
 Frc consts  --      3.0484                 2.3075                 1.9597
 IR Inten    --      5.2353                 1.7097               142.2199

                     25                     26                     27
                      A                      A                      A
 Frequencies --   1395.9083              1436.0242              1446.5285
 Red. masses --      1.4945                 1.1608                 1.4257
 Frc consts  --      1.7158                 1.4103                 1.7576
 IR Inten    --     76.5306                 0.5156                21.6616

                     28                     29                     30
                      A                      A                      A
 Frequencies --   1460.3025              1475.2224              1477.2533
 Red. masses --      1.0927                 1.0481                 1.2681
 Frc consts  --      1.3729                 1.3439                 1.6305
 IR Inten    --      4.9561                 9.8613                19.9322

                     31                     32                     33
                      A                      A                      A
 Frequencies --   1478.5439              1492.8752              1506.1459
 Red. masses --      1.0489                 1.0474                 1.2470
 Frc consts  --      1.3510                 1.3754                 1.6667
 IR Inten    --      5.1231                 4.0525                 6.2787

                     34                     35                     36
                      A                      A                      A
 Frequencies --   1507.9657              1794.4609              2946.4100
 Red. masses --      1.0541                 8.5010                 1.0575
 Frc consts  --      1.4122                16.1284                 5.4090
 IR Inten    --      2.7197               324.4113                31.9264

                     37                     38                     39
                      A                      A                      A
 Frequencies --   2953.8743              3057.6601              3077.3335
 Red. masses --      1.0581                 1.0358                 1.0752
 Frc consts  --      5.4395                 5.7058                 5.9992
 IR Inten    --    106.9966                 4.0559                10.5901

                     40                     41                     42
                      A                      A                      A
 Frequencies --   3081.7913              3121.9688              3129.0376
 Red. masses --      1.0738                 1.0990                 1.1028
 Frc consts  --      6.0088                 6.3110                 6.3617
 IR Inten    --     37.2788                 8.2860                11.7555

                     43                     44                     45
                      A                      A                      A
 Frequencies --   3132.5531              3163.4633              3479.2011
 Red. masses --      1.1038                 1.1031                 1.0748
 Frc consts  --      6.3819                 6.5044                 7.6657
 IR Inten    --     26.3214                12.4253                11.1432

 - Thermochemistry -
 -------------------
 Temperature   298.150 Kelvin.  Pressure   1.00000 Atm.
 Atom     1 has atomic number  6 and mass  12.00000

 Molecular mass:   102.07931 amu.
 Principal axes and moments of inertia in atomic units:
                           1         2         3
     Eigenvalues --   388.734831147.018531163.39131
           X            0.99930  -0.03738   0.00006
           Y            0.03738   0.99930   0.00148
           Z           -0.00012  -0.00147   1.00000
 This molecule is an asymmetric top.
 Rotational symmetry number  1.
 Rotational temperatures (Kelvin)      0.22281     0.07551     0.07445
 Rotational constants (GHZ):           4.64260     1.57342     1.55128
 Zero-point vibrational energy     383018.5 (Joules/Mol)
                                   91.54362 (Kcal/Mol)
 Warning -- explicit consideration of  13 degrees of freedom as
           vibrations may cause significant error
 Vibrational temperatures:     57.25   102.36   141.13   256.93   344.89
          (Kelvin)            363.83   517.04   556.14   684.88   754.38
                              756.79   807.69   859.20  1169.60  1315.99
                             1459.96  1482.94  1516.78  1583.72  1607.67
                             1704.56  1804.38  1849.34  1928.90  2008.40
                             2066.12  2081.23  2101.05  2122.51  2125.44
                             2127.29  2147.91  2167.01  2169.62  2581.83
                             4239.22  4249.96  4399.29  4427.59  4434.00
                             4491.81  4501.98  4507.04  4551.51  5005.79

 Zero-point correction=                           0.145884 (Hartree/Particle)
 Thermal correction to Energy=                    0.154736
 Thermal correction to Enthalpy=                  0.155680
 Thermal correction to Gibbs Free Energy=         0.111846
 Sum of electronic and zero-point Energies=           -343.031196
 Sum of electronic and thermal Energies=              -343.022344
 Sum of electronic and thermal Enthalpies=            -343.021400
 Sum of electronic and thermal Free Energies=         -343.065235

                     E (Thermal)             CV                S
                      KCal/Mol        Cal/Mol-Kelvin    Cal/Mol-Kelvin
 Total                   97.098             30.392             92.257
 Electronic               0.000              0.000              0.000
 Translational            0.889              2.981             39.779
 Rotational               0.889              2.981             27.741
 Vibrational             95.321             24.430             24.736
 Vibration     1          0.594              1.981              5.269
 Vibration     2          0.598              1.968              4.121
 Vibration     3          0.604              1.951              3.492
 Vibration     4          0.629              1.869              2.343
 Vibration     5          0.657              1.780              1.805
 Vibration     6          0.664              1.758              1.710
 Vibration     7          0.734              1.556              1.125
 Vibration     8          0.755              1.499              1.013
 Vibration     9          0.833              1.303              0.721
 Vibration    10          0.879              1.196              0.600
 Vibration    11          0.881              1.192              0.596
 Vibration    12          0.917              1.115              0.521
 Vibration    13          0.955              1.038              0.455

 Optimization completed.
    -- Stationary point found.
 Normal termination of Gaussian 09 at Fri Aug 26 09:17:26 2022.

 -----------------------------------------------------------------
 #P Geom=AllCheck Guess=TCheck SCRF=Check CCSD(T,E4T,FrzG4)/GTBas1
 -----------------------------------------------------------------

 Structure from the checkpoint file:  "G4.Frag_849.chk"
 --------
 Frag_849
 --------
 Charge =  0 Multiplicity = 1

 SCF Done:  E(RHF) =  -341.024367441     A.U. after   12 cycles
 E2 =    -0.1020114420D+01 EUMP2 =    -0.34204448186032D+03
 CCSD(T)
 CCSD(T)= -0.34213612928D+03
 1027245\CCSD=-342.1019676\CCSD(T)=-342.1361293\RMSD=4.298e-09\PG=C01 [
 Normal termination of Gaussian 09 at Fri Aug 26 09:21:50 2022.

 ---------------------------------------------------------
 #P Geom=AllCheck Guess=TCheck SCRF=Check MP4=FrzG4/GTBas2
 ---------------------------------------------------------

 Structure from the checkpoint file:  "G4.Frag_849.chk"
 --------
 Frag_849
 --------
 Charge =  0 Multiplicity = 1

 SCF Done:  E(RHF) =  -341.033492313     A.U. after   12 cycles
 E2 =    -0.1034887541D+01 EUMP2 =    -0.34206837985309D+03
 Normal termination of Gaussian 09 at Fri Aug 26 09:23:11 2022.

 ---------------------------------------------------------
 #P Geom=AllCheck Guess=TCheck SCRF=Check MP4=FrzG4/GTBas3
 ---------------------------------------------------------

 Structure from the checkpoint file:  "G4.Frag_849.chk"
 --------
 Frag_849
 --------
 Charge =  0 Multiplicity = 1

 SCF Done:  E(RHF) =  -341.064415972     A.U. after   11 cycles
 E2 =    -0.1253429746D+01 EUMP2 =    -0.34231784571793D+03
 Normal termination of Gaussian 09 at Fri Aug 26 09:34:37 2022.

 -----------------------------------------------------------
 #P Geom=AllCheck Guess=TCheck SCRF=Check MP2=Full/GTLargeXP
 -----------------------------------------------------------

 Structure from the checkpoint file:  "G4.Frag_849.chk"
 --------
 Frag_849
 --------
 Charge =  0 Multiplicity = 1

 SCF Done:  E(RHF) =  -341.149128189     A.U. after   12 cycles
 E2 =    -0.1641854176D+01 EUMP2 =    -0.34279098236433D+03
 Normal termination of Gaussian 09 at Fri Aug 26 09:38:18 2022.
 SCF Done:  E(RHF) =  -341.175450257     A.U. after    9 cycles
 Normal termination of Gaussian 09 at Fri Aug 26 09:42:24 2022.

                         Standard orientation:
 ---------------------------------------------------------------------
 Center     Atomic      Atomic             Coordinates (Angstroms)
 Number     Number       Type             X           Y           Z
 ---------------------------------------------------------------------
      1          6           0        1.549048   -1.346469    0.004366
      2          6           0        1.381400    0.160902   -0.000460
      3          8           0        2.312259    0.942834   -0.003020
      4          7           0       -1.040466   -0.195946    0.000674
      5          6           0       -1.828531   -0.012173   -1.214816
      6          6           0       -1.828762   -0.003987    1.214734
      7          7           0        0.087463    0.624249   -0.001905
      8          1           0        1.075428   -1.792632    0.882904
      9          1           0        2.616739   -1.564475    0.006653
     10          1           0        1.078430   -1.797724   -0.873230
     11          1           0       -2.659711   -0.723160   -1.215329
     12          1           0       -1.199084   -0.205175   -2.085991
     13          1           0       -2.246042    1.007112   -1.302334
     14          1           0       -2.245399    1.016190    1.295769
     15          1           0       -1.199834   -0.192130    2.087353
     16          1           0       -2.660575   -0.714231    1.219355
     17          1           0       -0.025936    1.635796   -0.005319
 ---------------------------------------------------------------------

 SCF Done:  E(RHF) =  -341.181057215     A.U. after    7 cycles

 The electronic state is 1-A.
 Alpha  occ. eigenvalues --  -20.51066 -15.60399 -15.60017 -11.34597 -11.26189
 Alpha  occ. eigenvalues --  -11.26188 -11.22773  -1.38294  -1.31582  -1.12124
 Alpha  occ. eigenvalues --   -0.99414  -0.97423  -0.87559  -0.78724  -0.69903
 Alpha  occ. eigenvalues --   -0.67240  -0.65492  -0.62067  -0.59704  -0.59171
 Alpha  occ. eigenvalues --   -0.56420  -0.55810  -0.55013  -0.53631  -0.51102
 Alpha  occ. eigenvalues --   -0.42430  -0.39644  -0.39549
 Alpha virt. eigenvalues --    0.03004   0.03740   0.03903   0.04884   0.06056
 Alpha virt. eigenvalues --    0.06381   0.06786   0.06817   0.07213   0.09136
 Alpha virt. eigenvalues --    0.09298   0.09841   0.10014   0.11595   0.13056

 Mulliken charges:
               1
     1  C   -0.534536
     2  C    0.530590
     3  O   -0.645237
     4  N    0.076187
     5  C   -0.482960
     6  C   -0.483046
     7  N   -0.430519
     8  H    0.190963
     9  H    0.219962
    10  H    0.190892
    11  H    0.174966
    12  H    0.181015
    13  H    0.149917
    14  H    0.149921
    15  H    0.181009
    16  H    0.174971
    17  H    0.355905
 Sum of Mulliken charges =  -0.00000

 Dipole moment (field-independent basis, Debye):
    X=             -4.3741    Y=             -1.5173    Z=              0.0043  Tot=              4.6298
 Quadrupole moment (field-independent basis, Debye-Ang):
   XX=            -50.4031   YY=            -43.7919   ZZ=            -41.9828
   XY=             -6.7125   XZ=              0.0213   YZ=              0.0061

 Normal termination of Gaussian 09 at Fri Aug 26 09:52:17 2022.
