 Gaussian 09, Revision E.01,
 Gaussian 09:  ES64L-G09RevE.01 30-Nov-2015

 -----
 #P G4
 -----

 --------
 Frag_786
 --------
 Symbolic Z-matrix:
 Charge =  0 Multiplicity = 1

 SCF Done:  E(RB3LYP) =  -382.909507322     A.U. after   13 cycles
 SCF Done:  E(RB3LYP) =  -382.916609307     A.U. after   12 cycles
 SCF Done:  E(RB3LYP) =  -382.919373733     A.U. after   12 cycles
 SCF Done:  E(RB3LYP) =  -382.921257599     A.U. after   12 cycles
 SCF Done:  E(RB3LYP) =  -382.922028203     A.U. after   11 cycles
 SCF Done:  E(RB3LYP) =  -382.922922939     A.U. after   11 cycles
 SCF Done:  E(RB3LYP) =  -382.920833768     A.U. after   14 cycles
 SCF Done:  E(RB3LYP) =  -382.923678175     A.U. after   10 cycles
 SCF Done:  E(RB3LYP) =  -382.924216536     A.U. after   11 cycles
 SCF Done:  E(RB3LYP) =  -382.924556387     A.U. after   10 cycles
 SCF Done:  E(RB3LYP) =  -382.924587267     A.U. after    8 cycles
 SCF Done:  E(RB3LYP) =  -382.924587782     A.U. after    7 cycles
 SCF Done:  E(RB3LYP) =  -382.924588200     A.U. after    7 cycles
 Optimization completed.
    -- Stationary point found.
 Normal termination of Gaussian 09 at Fri Aug 26 08:59:37 2022.

 ----------------------------------------------------------
 #P Geom=AllCheck Guess=TCheck SCRF=Check B3LYP/GTBas3 Freq
 ----------------------------------------------------------

 Structure from the checkpoint file:  "G4.Frag_786.chk"
 --------
 Frag_786
 --------
 Charge =  0 Multiplicity = 1

 SCF Done:  E(RB3LYP) =  -382.924588200     A.U. after    1 cycles

  Exact polarizability:  58.038   4.539  63.348  -0.121   0.033  42.884
 Approx polarizability:  76.610   9.884  96.074   1.311  -0.094  64.587

                      1                      2                      3
                      A                      A                      A
 Frequencies --     76.0448               190.2514               226.1898
 Red. masses --      3.6240                 1.0557                 1.6628
 Frc consts  --      0.0123                 0.0225                 0.0501
 IR Inten    --      2.2764                 0.2076                15.0626

                      4                      5                      6
                      A                      A                      A
 Frequencies --    268.3115               277.2090               314.4772
 Red. masses --      2.9518                 1.5270                 1.3131
 Frc consts  --      0.1252                 0.0691                 0.0765
 IR Inten    --     19.4102                49.0094                54.6287

                      7                      8                      9
                      A                      A                      A
 Frequencies --    348.9628               376.2297               447.7349
 Red. masses --      1.3839                 2.9674                 2.6441
 Frc consts  --      0.0993                 0.2475                 0.3123
 IR Inten    --     94.2503                 9.9126                24.0953

                     10                     11                     12
                      A                      A                      A
 Frequencies --    514.9434               550.2122               580.0771
 Red. masses --      3.2348                 3.1004                 4.6082
 Frc consts  --      0.5054                 0.5530                 0.9136
 IR Inten    --     35.7788                26.8835                 7.0101

                     13                     14                     15
                      A                      A                      A
 Frequencies --    599.9243               758.4987               772.1818
 Red. masses --      2.7665                 5.0839                 1.2103
 Frc consts  --      0.5867                 1.7233                 0.4252
 IR Inten    --     21.6423                10.9398                 0.5242

                     16                     17                     18
                      A                      A                      A
 Frequencies --    937.9851               955.2521              1009.9229
 Red. masses --      2.0654                 1.3806                 1.7318
 Frc consts  --      1.0706                 0.7423                 1.0407
 IR Inten    --      3.3266                33.3310                25.9459

                     19                     20                     21
                      A                      A                      A
 Frequencies --   1020.5309              1073.0390              1076.2147
 Red. masses --      2.0306                 2.1211                 1.7152
 Frc consts  --      1.2460                 1.4389                 1.1705
 IR Inten    --    110.0408                78.5981                56.4478

                     22                     23                     24
                      A                      A                      A
 Frequencies --   1096.4215              1256.5895              1304.9246
 Red. masses --      3.5105                 1.7237                 1.7647
 Frc consts  --      2.4864                 1.6036                 1.7704
 IR Inten    --    247.1106                25.8776                60.8101

                     25                     26                     27
                      A                      A                      A
 Frequencies --   1372.8976              1405.6369              1417.8733
 Red. masses --      1.6925                 1.2452                 1.7090
 Frc consts  --      1.8796                 1.4496                 2.0242
 IR Inten    --    122.6992                 2.6488                80.9805

                     28                     29                     30
                      A                      A                      A
 Frequencies --   1448.6757              1473.7104              1495.8782
 Red. masses --      1.3019                 1.0502                 1.0639
 Frc consts  --      1.6098                 1.3439                 1.4026
 IR Inten    --     37.2878                 9.0321                20.3085

                     31                     32                     33
                      A                      A                      A
 Frequencies --   1726.2840              3041.0957              3102.0654
 Red. masses --      5.8019                 1.0353                 1.0984
 Frc consts  --     10.1870                 5.6411                 6.2272
 IR Inten    --      5.4037                15.4765                 9.4164

                     34                     35                     36
                      A                      A                      A
 Frequencies --   3124.2911              3153.6279              3237.5505
 Red. masses --      1.1030                 1.0611                 1.1140
 Frc consts  --      6.3435                 6.2179                 6.8799
 IR Inten    --     18.1307                 6.5406                 8.0594

                     37                     38                     39
                      A                      A                      A
 Frequencies --   3783.9265              3812.2440              3814.8765
 Red. masses --      1.0646                 1.0659                 1.0644
 Frc consts  --      8.9809                 9.1270                 9.1271
 IR Inten    --     37.5443                18.6080                47.5058

 - Thermochemistry -
 -------------------
 Temperature   298.150 Kelvin.  Pressure   1.00000 Atm.
 Atom     1 has atomic number  6 and mass  12.00000

 Molecular mass:   104.04734 amu.
 Principal axes and moments of inertia in atomic units:
                           1         2         3
     Eigenvalues --   515.44630 733.44199 914.37671
           X            0.99977  -0.02006  -0.00802
           Y            0.02010   0.99979   0.00480
           Z            0.00793  -0.00496   0.99996
 This molecule is an asymmetric top.
 Rotational symmetry number  1.
 Warning -- assumption of classical behavior for rotation
           may cause significant error
 Rotational temperatures (Kelvin)      0.16804     0.11809     0.09472
 Rotational constants (GHZ):           3.50132     2.46065     1.97374
 Zero-point vibrational energy     319658.7 (Joules/Mol)
                                   76.40026 (Kcal/Mol)
 Warning -- explicit consideration of  13 degrees of freedom as
           vibrations may cause significant error
 Vibrational temperatures:    109.41   273.73   325.44   386.04   398.84
          (Kelvin)            452.46   502.08   541.31   644.19   740.89
                              791.63   834.60   863.16  1091.31  1111.00
                             1349.55  1374.39  1453.05  1468.31  1543.86
                             1548.43  1577.50  1807.95  1877.49  1975.29
                             2022.40  2040.00  2084.32  2120.34  2152.23
                             2483.73  4375.45  4463.17  4495.15  4537.36
                             4658.11  5444.22  5484.96  5488.75

 Zero-point correction=                           0.121752 (Hartree/Particle)
 Thermal correction to Energy=                    0.129955
 Thermal correction to Enthalpy=                  0.130899
 Thermal correction to Gibbs Free Energy=         0.089958
 Sum of electronic and zero-point Energies=           -382.802837
 Sum of electronic and thermal Energies=              -382.794633
 Sum of electronic and thermal Enthalpies=            -382.793689
 Sum of electronic and thermal Free Energies=         -382.834630

                     E (Thermal)             CV                S
                      KCal/Mol        Cal/Mol-Kelvin    Cal/Mol-Kelvin
 Total                   81.548             30.426             86.167
 Electronic               0.000              0.000              0.000
 Translational            0.889              2.981             39.836
 Rotational               0.889              2.981             27.338
 Vibrational             79.770             24.464             18.992
 Vibration     1          0.599              1.965              3.990
 Vibration     2          0.634              1.853              2.225
 Vibration     3          0.650              1.801              1.909
 Vibration     4          0.673              1.731              1.607
 Vibration     5          0.678              1.716              1.551
 Vibration     6          0.702              1.646              1.339
 Vibration     7          0.726              1.577              1.171
 Vibration     8          0.747              1.521              1.054
 Vibration     9          0.807              1.366              0.803
 Vibration    10          0.870              1.217              0.622
 Vibration    11          0.906              1.139              0.544
 Vibration    12          0.937              1.074              0.485
 Vibration    13          0.958              1.032              0.450

 Normal termination of Gaussian 09 at Fri Aug 26 09:00:21 2022.

 -----------------------------------------------------------------
 #P Geom=AllCheck Guess=TCheck SCRF=Check CCSD(T,E4T,FrzG4)/GTBas1
 -----------------------------------------------------------------

 Structure from the checkpoint file:  "G4.Frag_786.chk"
 --------
 Frag_786
 --------
 Charge =  0 Multiplicity = 1

 SCF Done:  E(RHF) =  -380.690428326     A.U. after   12 cycles
 E2 =    -0.1051153243D+01 EUMP2 =    -0.38174158156883D+03
 CCSD(T)
 CCSD(T)= -0.38182202699D+03
 7903752\CCSD(T)=-381.822027\RMSD=5.005e-09\PG=C01 [X(C4H8O3)]\\@
 Normal termination of Gaussian 09 at Fri Aug 26 09:04:17 2022.

 ---------------------------------------------------------
 #P Geom=AllCheck Guess=TCheck SCRF=Check MP4=FrzG4/GTBas2
 ---------------------------------------------------------

 Structure from the checkpoint file:  "G4.Frag_786.chk"
 --------
 Frag_786
 --------
 Charge =  0 Multiplicity = 1

 SCF Done:  E(RHF) =  -380.703484684     A.U. after   12 cycles
 E2 =    -0.1069211666D+01 EUMP2 =    -0.38177269635054D+03
 Normal termination of Gaussian 09 at Fri Aug 26 09:05:33 2022.

 ---------------------------------------------------------
 #P Geom=AllCheck Guess=TCheck SCRF=Check MP4=FrzG4/GTBas3
 ---------------------------------------------------------

 Structure from the checkpoint file:  "G4.Frag_786.chk"
 --------
 Frag_786
 --------
 Charge =  0 Multiplicity = 1

 SCF Done:  E(RHF) =  -380.743395716     A.U. after   11 cycles
 E2 =    -0.1299907376D+01 EUMP2 =    -0.38204330309258D+03
 Normal termination of Gaussian 09 at Fri Aug 26 09:12:56 2022.

 -----------------------------------------------------------
 #P Geom=AllCheck Guess=TCheck SCRF=Check MP2=Full/GTLargeXP
 -----------------------------------------------------------

 Structure from the checkpoint file:  "G4.Frag_786.chk"
 --------
 Frag_786
 --------
 Charge =  0 Multiplicity = 1

 SCF Done:  E(RHF) =  -380.848018221     A.U. after   12 cycles
 E2 =    -0.1701836484D+01 EUMP2 =    -0.38254985470555D+03
 Normal termination of Gaussian 09 at Fri Aug 26 09:16:22 2022.
 SCF Done:  E(RHF) =  -380.879005869     A.U. after    8 cycles
 Normal termination of Gaussian 09 at Fri Aug 26 09:19:10 2022.

                         Standard orientation:
 ---------------------------------------------------------------------
 Center     Atomic      Atomic             Coordinates (Angstroms)
 Number     Number       Type             X           Y           Z
 ---------------------------------------------------------------------
      1          6           0       -1.430506   -1.409513   -0.014676
      2          6           0       -0.912473   -0.183852   -0.029354
      3          6           0       -1.740707    1.071058    0.006150
      4          6           0        0.600431    0.033282   -0.012350
      5          8           0        1.026147    0.512436    1.236959
      6          8           0        0.896278    1.012161   -0.953158
      7          8           0        1.339956   -1.143598   -0.242434
      8          1           0       -2.503973   -1.565032    0.016477
      9          1           0       -0.805051   -2.294297   -0.017439
     10          1           0       -1.586618    1.664670   -0.899823
     11          1           0       -1.439267    1.700785    0.850085
     12          1           0       -2.803963    0.838357    0.102011
     13          1           0        1.029159   -0.238474    1.841880
     14          1           0        1.821520    1.249470   -0.808438
     15          1           0        1.088679   -1.469321   -1.114310
 ---------------------------------------------------------------------

 SCF Done:  E(RHF) =  -380.885738795     A.U. after    7 cycles

 The electronic state is 1-A.
 Alpha  occ. eigenvalues --  -20.57579 -20.57396 -20.57285 -11.40384 -11.24800
 Alpha  occ. eigenvalues --  -11.22681 -11.21915  -1.46618  -1.35401  -1.34853
 Alpha  occ. eigenvalues --   -1.08795  -0.93879  -0.90302  -0.78386  -0.74651
 Alpha  occ. eigenvalues --   -0.72087  -0.67589  -0.63988  -0.59630  -0.57666
 Alpha  occ. eigenvalues --   -0.57101  -0.56346  -0.53830  -0.52362  -0.51976
 Alpha  occ. eigenvalues --   -0.48804  -0.46356  -0.37087
 Alpha virt. eigenvalues --    0.03525   0.04275   0.04579   0.04926   0.06501
 Alpha virt. eigenvalues --    0.06869   0.07155   0.07880   0.08008   0.09491
 Alpha virt. eigenvalues --    0.10975   0.11175   0.11862   0.12801   0.13275

 Mulliken charges:
               1
     1  C   -0.485884
     2  C    0.125265
     3  C   -0.564891
     4  C    0.616295
     5  O   -0.589140
     6  O   -0.594737
     7  O   -0.621548
     8  H    0.187725
     9  H    0.207341
    10  H    0.201110
    11  H    0.197465
    12  H    0.161808
    13  H    0.386781
    14  H    0.389201
    15  H    0.383211
 Sum of Mulliken charges =  -0.00000

 Dipole moment (field-independent basis, Debye):
    X=             -0.4837    Y=             -1.1142    Z=             -0.2030  Tot=              1.2315
 Quadrupole moment (field-independent basis, Debye-Ang):
   XX=            -40.5158   YY=            -41.8177   ZZ=            -41.5412
   XY=              1.1874   XZ=             -1.7068   YZ=              0.2093

 Normal termination of Gaussian 09 at Fri Aug 26 09:28:56 2022.
