 Gaussian 09, Revision E.01,
 Gaussian 09:  ES64L-G09RevE.01 30-Nov-2015

 -----
 #P G4
 -----

 ---------
 Frag_1070
 ---------
 Symbolic Z-matrix:
 Charge =  0 Multiplicity = 1

 SCF Done:  E(RB3LYP) =  -212.558475555     A.U. after   14 cycles
 SCF Done:  E(RB3LYP) =  -212.592193031     A.U. after   11 cycles
 SCF Done:  E(RB3LYP) =  -212.594925661     A.U. after   12 cycles
 SCF Done:  E(RB3LYP) =  -212.596943684     A.U. after   12 cycles
 SCF Done:  E(RB3LYP) =  -212.597058451     A.U. after   10 cycles
 SCF Done:  E(RB3LYP) =  -212.597084171     A.U. after   10 cycles
 SCF Done:  E(RB3LYP) =  -212.597093186     A.U. after    9 cycles
 SCF Done:  E(RB3LYP) =  -212.597105521     A.U. after    9 cycles
 SCF Done:  E(RB3LYP) =  -212.597106727     A.U. after    9 cycles
 SCF Done:  E(RB3LYP) =  -212.597145640     A.U. after    9 cycles
 SCF Done:  E(RB3LYP) =  -212.600010381     A.U. after   10 cycles
 SCF Done:  E(RB3LYP) =  -212.600011795     A.U. after    8 cycles
 SCF Done:  E(RB3LYP) =  -212.600011846     A.U. after    6 cycles
 Optimization completed.
    -- Stationary point found.
 Normal termination of Gaussian 09 at Tue Aug 30 10:33:58 2022.

 ----------------------------------------------------------
 #P Geom=AllCheck Guess=TCheck SCRF=Check B3LYP/GTBas3 Freq
 ----------------------------------------------------------

 Structure from the checkpoint file:  "G4.Frag_1070.chk"
 ---------
 Frag_1070
 ---------
 Charge =  0 Multiplicity = 1

 SCF Done:  E(RB3LYP) =  -212.600011846     A.U. after    1 cycles

  Exact polarizability:  72.087  -4.227  52.726  -0.776  -0.095  35.630
 Approx polarizability: 102.427  -9.574  72.713   0.086   0.073  52.520

                      1                      2                      3
                      A                      A                      A
 Frequencies --    124.2834               135.7564               241.5546
 Red. masses --      1.0404                 1.0554                 2.4491
 Frc consts  --      0.0095                 0.0115                 0.0842
 IR Inten    --      0.4916                 1.3066                 4.3940

                      4                      5                      6
                      A                      A                      A
 Frequencies --    294.4868               336.1220               427.0110
 Red. masses --      2.2750                 1.1268                 2.4424
 Frc consts  --      0.1162                 0.0750                 0.2624
 IR Inten    --      6.4889                38.2646                 3.0835

                      7                      8                      9
                      A                      A                      A
 Frequencies --    494.8567               533.4377               709.9558
 Red. masses --      2.1867                 2.9387                 1.3270
 Frc consts  --      0.3155                 0.4927                 0.3941
 IR Inten    --     19.4676                 5.3406               213.7265

                     10                     11                     12
                      A                      A                      A
 Frequencies --    796.9455               845.8456               979.9751
 Red. masses --      2.8826                 1.3422                 1.5633
 Frc consts  --      1.0787                 0.5658                 0.8846
 IR Inten    --      1.9471                52.4308                 7.5302

                     13                     14                     15
                      A                      A                      A
 Frequencies --   1014.9282              1059.7554              1064.3407
 Red. masses --      1.4180                 1.4460                 1.4858
 Frc consts  --      0.8606                 0.9568                 0.9917
 IR Inten    --      3.1534                 0.7168                 2.7973

                     16                     17                     18
                      A                      A                      A
 Frequencies --   1098.1876              1192.0076              1279.3832
 Red. masses --      1.9738                 1.4563                 2.5809
 Frc consts  --      1.4025                 1.2192                 2.4890
 IR Inten    --      2.5593                 1.7455                64.1209

                     19                     20                     21
                      A                      A                      A
 Frequencies --   1382.8810              1423.6249              1429.9251
 Red. masses --      1.2502                 1.2372                 1.7021
 Frc consts  --      1.4087                 1.4773                 2.0505
 IR Inten    --      0.8010                 2.3225                 6.8646

                     22                     23                     24
                      A                      A                      A
 Frequencies --   1476.7706              1482.6822              1489.3734
 Red. masses --      1.0441                 1.0433                 1.0557
 Frc consts  --      1.3416                 1.3513                 1.3798
 IR Inten    --      0.3674                 7.6924                 1.9246

                     25                     26                     27
                      A                      A                      A
 Frequencies --   1502.5491              1650.2820              1751.3187
 Red. masses --      1.0624                 1.1268                 6.0197
 Frc consts  --      1.4132                 1.8081                10.8782
 IR Inten    --      7.3088                39.0282                55.3026

                     28                     29                     30
                      A                      A                      A
 Frequencies --   3007.9435              3018.7717              3043.2054
 Red. masses --      1.0412                 1.0469                 1.0990
 Frc consts  --      5.5502                 5.6212                 5.9968
 IR Inten    --     64.4247                29.6734                32.3304

                     31                     32                     33
                      A                      A                      A
 Frequencies --   3070.6989              3104.7427              3120.0534
 Red. masses --      1.0931                 1.0890                 1.0914
 Frc consts  --      6.0727                 6.1850                 6.2600
 IR Inten    --     20.2796                 4.7773                49.2838

                     34                     35                     36
                      A                      A                      A
 Frequencies --   3153.1747              3522.0900              3618.9217
 Red. masses --      1.0940                 1.0476                 1.0956
 Frc consts  --      6.4088                 7.6567                 8.4543
 IR Inten    --     19.1526                 1.2432                 1.9612

 - Thermochemistry -
 -------------------
 Temperature   298.150 Kelvin.  Pressure   1.00000 Atm.
 Atom     1 has atomic number  6 and mass  12.00000

 Molecular mass:    71.07350 amu.
 Principal axes and moments of inertia in atomic units:
                           1         2         3
     Eigenvalues --   213.54056 502.22653 690.92691
           X            0.99991  -0.01009  -0.00923
           Y            0.01002   0.99992  -0.00818
           Z            0.00932   0.00809   0.99992
 This molecule is an asymmetric top.
 Rotational symmetry number  1.
 Rotational temperatures (Kelvin)      0.40561     0.17246     0.12536
 Rotational constants (GHZ):           8.45151     3.59348     2.61206
 Zero-point vibrational energy     328242.4 (Joules/Mol)
                                   78.45181 (Kcal/Mol)
 Warning -- explicit consideration of   8 degrees of freedom as
           vibrations may cause significant error
 Vibrational temperatures:    178.82   195.32   347.54   423.70   483.60
          (Kelvin)            614.37   711.99   767.50  1021.47  1146.63
                             1216.98  1409.96  1460.25  1524.75  1531.35
                             1580.04  1715.03  1840.74  1989.65  2048.28
                             2057.34  2124.74  2133.25  2142.87  2161.83
                             2374.38  2519.75  4327.75  4343.33  4378.49
                             4418.05  4467.03  4489.06  4536.71  5067.50
                             5206.81

 Zero-point correction=                           0.125021 (Hartree/Particle)
 Thermal correction to Energy=                    0.131714
 Thermal correction to Enthalpy=                  0.132658
 Thermal correction to Gibbs Free Energy=         0.095478
 Sum of electronic and zero-point Energies=           -212.474991
 Sum of electronic and thermal Energies=              -212.468298
 Sum of electronic and thermal Enthalpies=            -212.467354
 Sum of electronic and thermal Free Energies=         -212.504534

                     E (Thermal)             CV                S
                      KCal/Mol        Cal/Mol-Kelvin    Cal/Mol-Kelvin
 Total                   82.652             23.498             78.252
 Electronic               0.000              0.000              0.000
 Translational            0.889              2.981             38.700
 Rotational               0.889              2.981             25.808
 Vibrational             80.874             17.536             13.744
 Vibration     1          0.610              1.929              3.033
 Vibration     2          0.614              1.918              2.863
 Vibration     3          0.658              1.777              1.791
 Vibration     4          0.689              1.684              1.448
 Vibration     5          0.717              1.603              1.231
 Vibration     6          0.789              1.411              0.868
 Vibration     7          0.850              1.261              0.671
 Vibration     8          0.888              1.176              0.580

 Optimization completed.
    -- Stationary point found.
 Normal termination of Gaussian 09 at Tue Aug 30 10:34:21 2022.

 -----------------------------------------------------------------
 #P Geom=AllCheck Guess=TCheck SCRF=Check CCSD(T,E4T,FrzG4)/GTBas1
 -----------------------------------------------------------------

 Structure from the checkpoint file:  "G4.Frag_1070.chk"
 ---------
 Frag_1070
 ---------
 Charge =  0 Multiplicity = 1

 SCF Done:  E(RHF) =  -211.135162543     A.U. after   12 cycles
 E2 =    -0.6819846159D+00 EUMP2 =    -0.21181714715859D+03
 CCSD(T)
 CCSD(T)= -0.21189421217D+03
 P4SDQ=-211.8699027\CCSD=-211.8710163\CCSD(T)=-211.8942122\RMSD=5.644e-
 Normal termination of Gaussian 09 at Tue Aug 30 10:35:19 2022.

 ---------------------------------------------------------
 #P Geom=AllCheck Guess=TCheck SCRF=Check MP4=FrzG4/GTBas2
 ---------------------------------------------------------

 Structure from the checkpoint file:  "G4.Frag_1070.chk"
 ---------
 Frag_1070
 ---------
 Charge =  0 Multiplicity = 1

 SCF Done:  E(RHF) =  -211.141374225     A.U. after   12 cycles
 E2 =    -0.6902806719D+00 EUMP2 =    -0.21183165489704D+03
 Normal termination of Gaussian 09 at Tue Aug 30 10:35:37 2022.

 ---------------------------------------------------------
 #P Geom=AllCheck Guess=TCheck SCRF=Check MP4=FrzG4/GTBas3
 ---------------------------------------------------------

 Structure from the checkpoint file:  "G4.Frag_1070.chk"
 ---------
 Frag_1070
 ---------
 Charge =  0 Multiplicity = 1

 SCF Done:  E(RHF) =  -211.166404146     A.U. after   11 cycles
 E2 =    -0.8419877452D+00 EUMP2 =    -0.21200839189164D+03
 Normal termination of Gaussian 09 at Tue Aug 30 10:37:18 2022.

 -----------------------------------------------------------
 #P Geom=AllCheck Guess=TCheck SCRF=Check MP2=Full/GTLargeXP
 -----------------------------------------------------------

 Structure from the checkpoint file:  "G4.Frag_1070.chk"
 ---------
 Frag_1070
 ---------
 Charge =  0 Multiplicity = 1

 SCF Done:  E(RHF) =  -211.215555248     A.U. after   11 cycles
 E2 =    -0.1110374716D+01 EUMP2 =    -0.21232592996326D+03
 Normal termination of Gaussian 09 at Tue Aug 30 10:38:18 2022.
 SCF Done:  E(RHF) =  -211.232631398     A.U. after    8 cycles
 Normal termination of Gaussian 09 at Tue Aug 30 10:39:37 2022.

                         Standard orientation:
 ---------------------------------------------------------------------
 Center     Atomic      Atomic             Coordinates (Angstroms)
 Number     Number       Type             X           Y           Z
 ---------------------------------------------------------------------
      1          6           0        2.088695    0.004384   -0.002419
      2          6           0        0.743111   -0.658443    0.027028
      3          6           0       -0.466379   -0.079757    0.002939
      4          6           0       -0.732082    1.401389   -0.003035
      5          7           0       -1.652006   -0.835919   -0.101071
      6          1           0        2.690298   -0.270873    0.874185
      7          1           0        2.668723   -0.303707   -0.882931
      8          1           0        2.026256    1.095002   -0.023543
      9          1           0        0.768031   -1.748608    0.041206
     10          1           0       -1.283153    1.688315   -0.905900
     11          1           0        0.182945    1.990334    0.046078
     12          1           0       -1.356708    1.684728    0.855126
     13          1           0       -2.413091   -0.469922    0.457834
     14          1           0       -1.519329   -1.819279    0.098360
 ---------------------------------------------------------------------

 SCF Done:  E(RHF) =  -211.236184898     A.U. after    8 cycles

 The electronic state is 1-A.
 Alpha  occ. eigenvalues --  -15.55125 -11.26169 -11.22140 -11.21250 -11.20203
 Alpha  occ. eigenvalues --   -1.20573  -1.03989  -0.97068  -0.88521  -0.72849
 Alpha  occ. eigenvalues --   -0.66657  -0.65061  -0.58195  -0.55007  -0.54798
 Alpha  occ. eigenvalues --   -0.53286  -0.52942  -0.48216  -0.46084  -0.30282
 Alpha virt. eigenvalues --    0.03935   0.04378   0.04626   0.06093   0.06242
 Alpha virt. eigenvalues --    0.07075   0.07720   0.08712   0.09521   0.09854
 Alpha virt. eigenvalues --    0.10581   0.10835   0.11092   0.13062   0.13738

 Mulliken charges:
               1
     1  C   -0.518044
     2  C   -0.215561
     3  C    0.239693
     4  C   -0.552553
     5  N   -0.712105
     6  H    0.166365
     7  H    0.168208
     8  H    0.152380
     9  H    0.148040
    10  H    0.192144
    11  H    0.170877
    12  H    0.163488
    13  H    0.298542
    14  H    0.298526
 Sum of Mulliken charges =  -0.00000

 Dipole moment (field-independent basis, Debye):
    X=             -0.5180    Y=              0.1277    Z=              1.0344  Tot=              1.1638
 Quadrupole moment (field-independent basis, Debye-Ang):
   XX=            -31.3198   YY=            -29.9703   ZZ=            -35.3007
   XY=              0.1097   XZ=             -2.8930   YZ=             -0.9755

 Normal termination of Gaussian 09 at Tue Aug 30 10:44:34 2022.
