 Gaussian 09, Revision E.01,
 Gaussian 09:  ES64L-G09RevE.01 30-Nov-2015

 -----
 #P G4
 -----

 ---------
 Frag_1088
 ---------
 Symbolic Z-matrix:
 Charge =  0 Multiplicity = 1

 SCF Done:  E(RB3LYP) =  -319.881655231     A.U. after   13 cycles
 SCF Done:  E(RB3LYP) =  -319.891289181     A.U. after   13 cycles
 SCF Done:  E(RB3LYP) =  -319.894934397     A.U. after   13 cycles
 SCF Done:  E(RB3LYP) =  -319.897405108     A.U. after   14 cycles
 SCF Done:  E(RB3LYP) =  -319.897740742     A.U. after   11 cycles
 SCF Done:  E(RB3LYP) =  -319.897904418     A.U. after   10 cycles
 SCF Done:  E(RB3LYP) =  -319.897938268     A.U. after   11 cycles
 SCF Done:  E(RB3LYP) =  -319.897945218     A.U. after    9 cycles
 SCF Done:  E(RB3LYP) =  -319.897947390     A.U. after    8 cycles
 SCF Done:  E(RB3LYP) =  -319.897949366     A.U. after    8 cycles
 SCF Done:  E(RB3LYP) =  -319.902114722     A.U. after    8 cycles
 SCF Done:  E(RB3LYP) =  -319.902115052     A.U. after    7 cycles
 SCF Done:  E(RB3LYP) =  -319.902115205     A.U. after    7 cycles
 Optimization completed.
    -- Stationary point found.
 Normal termination of Gaussian 09 at Fri Aug 26 10:18:10 2022.

 ----------------------------------------------------------
 #P Geom=AllCheck Guess=TCheck SCRF=Check B3LYP/GTBas3 Freq
 ----------------------------------------------------------

 Structure from the checkpoint file:  "G4.Frag_1088.chk"
 ---------
 Frag_1088
 ---------
 Charge =  0 Multiplicity = 1

 SCF Done:  E(RB3LYP) =  -319.902115205     A.U. after    1 cycles

  Exact polarizability:  58.717   0.277  40.876  -3.137  -0.794  44.227
 Approx polarizability:  81.262   0.131  58.686  -7.786  -2.753  67.365

                      1                      2                      3
                      A                      A                      A
 Frequencies --    117.7852               225.7277               250.8763
 Red. masses --      2.9636                 1.1787                 1.2258
 Frc consts  --      0.0242                 0.0354                 0.0455
 IR Inten    --      4.6635                 1.1510                34.7390

                      4                      5                      6
                      A                      A                      A
 Frequencies --    342.3334               365.7900               420.6956
 Red. masses --      2.9387                 2.0078                 2.3053
 Frc consts  --      0.2029                 0.1583                 0.2404
 IR Inten    --     18.3208                21.3569                25.2097

                      7                      8                      9
                      A                      A                      A
 Frequencies --    453.2754               508.4879               519.9490
 Red. masses --      1.3433                 3.6616                 2.4159
 Frc consts  --      0.1626                 0.5578                 0.3848
 IR Inten    --     74.7954                 4.2125                17.0493

                     10                     11                     12
                      A                      A                      A
 Frequencies --    618.6550               771.5030               784.1561
 Red. masses --      3.8211                 2.2252                 2.1209
 Frc consts  --      0.8617                 0.7804                 0.7684
 IR Inten    --      6.4133                10.0001                 7.3256

                     13                     14                     15
                      A                      A                      A
 Frequencies --    884.7073               904.1026               937.8148
 Red. masses --      1.4832                 1.6339                 2.6813
 Frc consts  --      0.6840                 0.7869                 1.3894
 IR Inten    --    152.5958               138.7036               147.0800

                     16                     17                     18
                      A                      A                      A
 Frequencies --   1085.6552              1088.6579              1115.4389
 Red. masses --      1.3540                 1.8496                 1.8939
 Frc consts  --      0.9403                 1.2916                 1.3884
 IR Inten    --     11.7853               138.1934                67.0460

                     19                     20                     21
                      A                      A                      A
 Frequencies --   1217.5865              1279.4521              1350.7824
 Red. masses --      1.4789                 1.7514                 1.8953
 Frc consts  --      1.2918                 1.6892                 2.0375
 IR Inten    --      8.0632                66.4253                35.1799

                     22                     23                     24
                      A                      A                      A
 Frequencies --   1392.9546              1476.7001              1638.0916
 Red. masses --      1.7780                 1.1350                 1.1082
 Frc consts  --      2.0327                 1.4582                 1.7521
 IR Inten    --    118.2790                17.5057                40.5562

                     25                     26                     27
                      A                      A                      A
 Frequencies --   1643.6156              1736.5096              3055.2842
 Red. masses --      1.1126                 7.2563                 1.0553
 Frc consts  --      1.7708                12.8921                 5.8039
 IR Inten    --     51.4204                27.8347                27.4272

                     28                     29                     30
                      A                      A                      A
 Frequencies --   3148.4979              3490.4420              3507.1664
 Red. masses --      1.1151                 1.0488                 1.0487
 Frc consts  --      6.5128                 7.5281                 7.6002
 IR Inten    --     22.6075                 1.5385                 4.3268

                     31                     32                     33
                      A                      A                      A
 Frequencies --   3575.6534              3597.4146              3813.1685
 Red. masses --      1.0923                 1.0926                 1.0650
 Frc consts  --      8.2279                 8.3309                 9.1240
 IR Inten    --      3.8934                10.0180                49.5774

 - Thermochemistry -
 -------------------
 Temperature   298.150 Kelvin.  Pressure   1.00000 Atm.
 Atom     1 has atomic number  6 and mass  12.00000

 Molecular mass:    89.05891 amu.
 Principal axes and moments of inertia in atomic units:
                           1         2         3
     Eigenvalues --   363.39576 584.63845 591.68828
           X            0.99907   0.03635  -0.02321
           Y           -0.01998   0.86697   0.49795
           Z            0.03822  -0.49703   0.86689
 This molecule is an asymmetric top.
 Rotational symmetry number  1.
 Rotational temperatures (Kelvin)      0.23835     0.14815     0.14638
 Rotational constants (GHZ):           4.96632     3.08694     3.05016
 Zero-point vibrational energy     283030.1 (Joules/Mol)
                                   67.64581 (Kcal/Mol)
 Warning -- explicit consideration of  10 degrees of freedom as
           vibrations may cause significant error
 Vibrational temperatures:    169.47   324.77   360.95   492.54   526.29
          (Kelvin)            605.29   652.16   731.60   748.09   890.11
                             1110.02  1128.22  1272.89  1300.80  1349.30
                             1562.01  1566.33  1604.87  1751.83  1840.84
                             1943.47  2004.15  2124.64  2356.85  2364.79
                             2498.45  4395.87  4529.98  5021.96  5046.02
                             5144.56  5175.87  5486.29

 Zero-point correction=                           0.107800 (Hartree/Particle)
 Thermal correction to Energy=                    0.114644
 Thermal correction to Enthalpy=                  0.115588
 Thermal correction to Gibbs Free Energy=         0.077907
 Sum of electronic and zero-point Energies=           -319.794315
 Sum of electronic and thermal Energies=              -319.787471
 Sum of electronic and thermal Enthalpies=            -319.786527
 Sum of electronic and thermal Free Energies=         -319.824208

                     E (Thermal)             CV                S
                      KCal/Mol        Cal/Mol-Kelvin    Cal/Mol-Kelvin
 Total                   71.940             25.283             79.307
 Electronic               0.000              0.000              0.000
 Translational            0.889              2.981             39.373
 Rotational               0.889              2.981             26.333
 Vibrational             70.163             19.321             13.601
 Vibration     1          0.608              1.935              3.136
 Vibration     2          0.650              1.802              1.913
 Vibration     3          0.663              1.761              1.724
 Vibration     4          0.721              1.591              1.201
 Vibration     5          0.739              1.543              1.097
 Vibration     6          0.783              1.425              0.890
 Vibration     7          0.812              1.354              0.786
 Vibration     8          0.864              1.231              0.637
 Vibration     9          0.875              1.206              0.610
 Vibration    10          0.979              0.992              0.419

 Optimization completed.
    -- Stationary point found.
 Normal termination of Gaussian 09 at Fri Aug 26 10:18:41 2022.

 -----------------------------------------------------------------
 #P Geom=AllCheck Guess=TCheck SCRF=Check CCSD(T,E4T,FrzG4)/GTBas1
 -----------------------------------------------------------------

 Structure from the checkpoint file:  "G4.Frag_1088.chk"
 ---------
 Frag_1088
 ---------
 Charge =  0 Multiplicity = 1

 SCF Done:  E(RHF) =  -317.984495353     A.U. after   13 cycles
 E2 =    -0.9252675367D+00 EUMP2 =    -0.31890976288969D+03
 CCSD(T)
 CCSD(T)= -0.31898139663D+03
 Normal termination of Gaussian 09 at Fri Aug 26 10:20:31 2022.

 ---------------------------------------------------------
 #P Geom=AllCheck Guess=TCheck SCRF=Check MP4=FrzG4/GTBas2
 ---------------------------------------------------------

 Structure from the checkpoint file:  "G4.Frag_1088.chk"
 ---------
 Frag_1088
 ---------
 Charge =  0 Multiplicity = 1

 SCF Done:  E(RHF) =  -317.997795782     A.U. after   12 cycles
 E2 =    -0.9419151204D+00 EUMP2 =    -0.31893971090259D+03
 Normal termination of Gaussian 09 at Fri Aug 26 10:21:05 2022.

 ---------------------------------------------------------
 #P Geom=AllCheck Guess=TCheck SCRF=Check MP4=FrzG4/GTBas3
 ---------------------------------------------------------

 Structure from the checkpoint file:  "G4.Frag_1088.chk"
 ---------
 Frag_1088
 ---------
 Charge =  0 Multiplicity = 1

 SCF Done:  E(RHF) =  -318.030120249     A.U. after   12 cycles
 E2 =    -0.1127256242D+01 EUMP2 =    -0.31915737649112D+03
 Normal termination of Gaussian 09 at Fri Aug 26 10:24:24 2022.

 -----------------------------------------------------------
 #P Geom=AllCheck Guess=TCheck SCRF=Check MP2=Full/GTLargeXP
 -----------------------------------------------------------

 Structure from the checkpoint file:  "G4.Frag_1088.chk"
 ---------
 Frag_1088
 ---------
 Charge =  0 Multiplicity = 1

 SCF Done:  E(RHF) =  -318.117767384     A.U. after   12 cycles
 E2 =    -0.1470032275D+01 EUMP2 =    -0.31958779965947D+03
 Normal termination of Gaussian 09 at Fri Aug 26 10:26:13 2022.
 SCF Done:  E(RHF) =  -318.142215276     A.U. after    9 cycles
 Normal termination of Gaussian 09 at Fri Aug 26 10:27:55 2022.

                         Standard orientation:
 ---------------------------------------------------------------------
 Center     Atomic      Atomic             Coordinates (Angstroms)
 Number     Number       Type             X           Y           Z
 ---------------------------------------------------------------------
      1          6           0        2.006948   -0.038185    0.055608
      2          7           0        0.931839   -0.170585    0.706564
      3          6           0       -0.350881    0.000854   -0.004195
      4          7           0       -1.074177   -1.239861    0.187537
      5          7           0       -1.051851    1.154522    0.543754
      6          8           0       -0.231052    0.255004   -1.382203
      7          1           0        2.033650    0.177007   -1.016927
      8          1           0        2.957389   -0.133192    0.582472
      9          1           0       -0.808628   -1.650824    1.075803
     10          1           0       -2.067183   -1.028011    0.216520
     11          1           0       -0.691613    1.993654    0.097325
     12          1           0       -0.832021    1.223510    1.533714
     13          1           0       -0.320261   -0.606729   -1.804751
 ---------------------------------------------------------------------

 SCF Done:  E(RHF) =  -318.147584395     A.U. after    8 cycles

 The electronic state is 1-A.
 Alpha  occ. eigenvalues --  -20.56374 -15.56626 -15.54786 -15.54451 -11.37402
 Alpha  occ. eigenvalues --  -11.28013  -1.40320  -1.24562  -1.18052  -1.14250
 Alpha  occ. eigenvalues --   -0.89370  -0.79619  -0.72555  -0.70638  -0.66524
 Alpha  occ. eigenvalues --   -0.64921  -0.60790  -0.58585  -0.55199  -0.50386
 Alpha  occ. eigenvalues --   -0.47126  -0.43061  -0.41987  -0.40263
 Alpha virt. eigenvalues --    0.03734   0.04782   0.04924   0.05088   0.06591
 Alpha virt. eigenvalues --    0.06898   0.07555   0.09608   0.09806   0.12016
 Alpha virt. eigenvalues --    0.12389   0.12869   0.13571   0.14315   0.14496

 Mulliken charges:
               1
     1  C   -0.223915
     2  N   -0.375417
     3  C    0.626070
     4  N   -0.777328
     5  N   -0.707412
     6  O   -0.622012
     7  H    0.213110
     8  H    0.214695
     9  H    0.319143
    10  H    0.324615
    11  H    0.297922
    12  H    0.308819
    13  H    0.401710
 Sum of Mulliken charges =  -0.00000

 Dipole moment (field-independent basis, Debye):
    X=              1.2619    Y=             -0.1523    Z=              0.2554  Tot=              1.2964
 Quadrupole moment (field-independent basis, Debye-Ang):
   XX=            -33.6774   YY=            -36.3245   ZZ=            -35.8578
   XY=              2.2835   XZ=             -2.6634   YZ=              1.4886

 Normal termination of Gaussian 09 at Fri Aug 26 10:34:48 2022.
