 Gaussian 09, Revision E.01,
 Gaussian 09:  ES64L-G09RevE.01 30-Nov-2015

 -----
 #P G4
 -----

 ---------
 Frag_1001
 ---------
 Symbolic Z-matrix:
 Charge =  0 Multiplicity = 1

 SCF Done:  E(RB3LYP) =  -324.521936881     A.U. after   12 cycles
 SCF Done:  E(RB3LYP) =  -324.529449455     A.U. after   11 cycles
 SCF Done:  E(RB3LYP) =  -324.530024959     A.U. after   10 cycles
 SCF Done:  E(RB3LYP) =  -324.530265174     A.U. after   10 cycles
 SCF Done:  E(RB3LYP) =  -324.530620844     A.U. after   10 cycles
 SCF Done:  E(RB3LYP) =  -324.531067393     A.U. after   11 cycles
 SCF Done:  E(RB3LYP) =  -324.531387214     A.U. after   10 cycles
 SCF Done:  E(RB3LYP) =  -324.531445855     A.U. after   10 cycles
 SCF Done:  E(RB3LYP) =  -324.531460767     A.U. after    9 cycles
 SCF Done:  E(RB3LYP) =  -324.531490935     A.U. after   10 cycles
 SCF Done:  E(RB3LYP) =  -324.531523199     A.U. after    7 cycles
 SCF Done:  E(RB3LYP) =  -324.531523475     A.U. after    7 cycles
 SCF Done:  E(RB3LYP) =  -324.531523577     A.U. after    7 cycles
 Optimization completed.
    -- Stationary point found.
 Normal termination of Gaussian 09 at Tue Aug 23 16:28:42 2022.

 ----------------------------------------------------------
 #P Geom=AllCheck Guess=TCheck SCRF=Check B3LYP/GTBas3 Freq
 ----------------------------------------------------------

 Structure from the checkpoint file:  "G4.Frag_1001.chk"
 ---------
 Frag_1001
 ---------
 Charge =  0 Multiplicity = 1

 SCF Done:  E(RB3LYP) =  -324.531523577     A.U. after    1 cycles

  Exact polarizability:  71.825  -0.000  65.755  -0.994  -0.000  62.757
 Approx polarizability:  93.804  -0.000  90.801  -2.649  -0.001  94.296

                      1                      2                      3
                      A                      A                      A
 Frequencies --     75.9309               156.0127               205.8427
 Red. masses --      1.8663                 1.2557                 1.0847
 Frc consts  --      0.0063                 0.0180                 0.0271
 IR Inten    --      1.4618                17.1519                 0.0349

                      4                      5                      6
                      A                      A                      A
 Frequencies --    231.3818               257.2963               278.5850
 Red. masses --      1.1003                 1.4706                 2.3268
 Frc consts  --      0.0347                 0.0574                 0.1064
 IR Inten    --      1.1415                 5.5751                12.1536

                      7                      8                      9
                      A                      A                      A
 Frequencies --    288.6246               321.3268               364.3973
 Red. masses --      1.6550                 1.2169                 2.3081
 Frc consts  --      0.0812                 0.0740                 0.1806
 IR Inten    --      2.1919                44.1656                12.4045

                     10                     11                     12
                      A                      A                      A
 Frequencies --    402.7453               429.4093               495.0573
 Red. masses --      2.9088                 2.5600                 2.7190
 Frc consts  --      0.2780                 0.2781                 0.3926
 IR Inten    --      0.3944                 5.3494                12.1293

                     13                     14                     15
                      A                      A                      A
 Frequencies --    522.5952               583.1154               728.5837
 Red. masses --      3.6694                 2.4123                 2.9461
 Frc consts  --      0.5904                 0.4833                 0.9214
 IR Inten    --     14.9118                 3.7365                 4.7733

                     16                     17                     18
                      A                      A                      A
 Frequencies --    753.1393               829.7513               875.3526
 Red. masses --      1.3805                 1.3131                 2.4609
 Frc consts  --      0.4614                 0.5327                 1.1110
 IR Inten    --    133.8387               293.2197                14.4896

                     19                     20                     21
                      A                      A                      A
 Frequencies --    912.9608               933.0866               967.7948
 Red. masses --      1.9677                 1.1488                 1.4473
 Frc consts  --      0.9663                 0.5893                 0.7987
 IR Inten    --      1.4809                 2.6557                 1.5125

                     22                     23                     24
                      A                      A                      A
 Frequencies --    991.4868              1002.3165              1079.3654
 Red. masses --      1.8022                 2.1996                 1.4082
 Frc consts  --      1.0439                 1.3020                 0.9666
 IR Inten    --     29.3712                14.3902                 9.8318

                     25                     26                     27
                      A                      A                      A
 Frequencies --   1115.5377              1177.3370              1190.5432
 Red. masses --      1.6645                 1.3495                 2.3631
 Frc consts  --      1.2204                 1.1021                 1.9735
 IR Inten    --      0.0242                 0.6405                44.9695

                     28                     29                     30
                      A                      A                      A
 Frequencies --   1209.8436              1299.2342              1351.9509
 Red. masses --      2.0901                 1.6046                 1.4165
 Frc consts  --      1.8025                 1.5958                 1.5254
 IR Inten    --     11.6578                33.9216                 0.0003

                     31                     32                     33
                      A                      A                      A
 Frequencies --   1354.6225              1390.3672              1393.6652
 Red. masses --      1.6095                 1.6361                 1.2742
 Frc consts  --      1.7401                 1.8635                 1.4582
 IR Inten    --      1.1412                 8.7040                 2.2213

                     34                     35                     36
                      A                      A                      A
 Frequencies --   1426.4057              1480.3780              1496.5603
 Red. masses --      1.4306                 1.0422                 1.0441
 Frc consts  --      1.7150                 1.3457                 1.3778
 IR Inten    --     19.2879                 0.2306                 4.1852

                     37                     38                     39
                      A                      A                      A
 Frequencies --   1498.4864              1520.4532              1616.8848
 Red. masses --      1.0487                 1.0593                 1.1084
 Frc consts  --      1.3875                 1.4429                 1.7072
 IR Inten    --      0.5823                 9.2085                42.6995

                     40                     41                     42
                      A                      A                      A
 Frequencies --   1637.4510              1656.5961              2967.8570
 Red. masses --      1.1071                 1.0954                 1.0814
 Frc consts  --      1.7489                 1.7712                 5.6122
 IR Inten    --      8.9738                46.5199                45.3989

                     43                     44                     45
                      A                      A                      A
 Frequencies --   3038.8587              3044.2359              3104.6486
 Red. masses --      1.0368                 1.0368                 1.1000
 Frc consts  --      5.6414                 5.6613                 6.2468
 IR Inten    --     18.9522                35.3887                 2.3366

                     46                     47                     48
                      A                      A                      A
 Frequencies --   3109.7558              3129.3375              3130.9533
 Red. masses --      1.0999                 1.1003                 1.1002
 Frc consts  --      6.2668                 6.3486                 6.3544
 IR Inten    --     45.7139                20.4548                23.3838

                     49                     50                     51
                      A                      A                      A
 Frequencies --   3468.5098              3470.6198              3543.4910
 Red. masses --      1.0502                 1.0485                 1.0503
 Frc consts  --      7.4437                 7.4408                 7.7699
 IR Inten    --      0.0024                 2.9153                 3.0517

                     52                     53                     54
                      A                      A                      A
 Frequencies --   3553.5129              3554.7339              3645.9603
 Red. masses --      1.0924                 1.0879                 1.0966
 Frc consts  --      8.1276                 8.0998                 8.5887
 IR Inten    --      0.0228                 0.2064                 8.3220

 - Thermochemistry -
 -------------------
 Temperature   298.150 Kelvin.  Pressure   1.00000 Atm.
 Atom     1 has atomic number  6 and mass  12.00000

 Molecular mass:   103.11095 amu.
 Principal axes and moments of inertia in atomic units:
                           1         2         3
     Eigenvalues --   573.47539 784.43881 962.63195
           X            0.99999   0.00001   0.00464
           Y           -0.00001   1.00000  -0.00000
           Z           -0.00464   0.00000   0.99999
 This molecule is an asymmetric top.
 Rotational symmetry number  1.
 Warning -- assumption of classical behavior for rotation
           may cause significant error
 Rotational temperatures (Kelvin)      0.15103     0.11042     0.08998
 Rotational constants (GHZ):           3.14702     2.30068     1.87480
 Zero-point vibrational energy     480091.0 (Joules/Mol)
                                  114.74451 (Kcal/Mol)
 Warning -- explicit consideration of  14 degrees of freedom as
           vibrations may cause significant error
 Vibrational temperatures:    109.25   224.47   296.16   332.91   370.19
          (Kelvin)            400.82   415.27   462.32   524.29   579.46
                              617.82   712.28   751.90   838.97  1048.27
                             1083.60  1193.83  1259.44  1313.55  1342.50
                             1392.44  1426.53  1442.11  1552.96  1605.01
                             1693.92  1712.92  1740.69  1869.31  1945.15
                             1949.00  2000.43  2005.17  2052.28  2129.93
                             2153.21  2155.98  2187.59  2326.33  2355.92
                             2383.47  4270.08  4372.23  4379.97  4466.89
                             4474.24  4502.41  4504.74  4990.41  4993.44
                             5098.29  5112.71  5114.46  5245.72

 Zero-point correction=                           0.182857 (Hartree/Particle)
 Thermal correction to Energy=                    0.192182
 Thermal correction to Enthalpy=                  0.193127
 Thermal correction to Gibbs Free Energy=         0.150152
 Sum of electronic and zero-point Energies=           -324.348667
 Sum of electronic and thermal Energies=              -324.339341
 Sum of electronic and thermal Enthalpies=            -324.338397
 Sum of electronic and thermal Free Energies=         -324.381372

                     E (Thermal)             CV                S
                      KCal/Mol        Cal/Mol-Kelvin    Cal/Mol-Kelvin
 Total                  120.596             35.287             90.448
 Electronic               0.000              0.000              0.000
 Translational            0.889              2.981             39.809
 Rotational               0.889              2.981             27.562
 Vibrational            118.819             29.326             23.076
 Vibration     1          0.599              1.965              3.993
 Vibration     2          0.620              1.896              2.598
 Vibration     3          0.640              1.832              2.080
 Vibration     4          0.653              1.793              1.868
 Vibration     5          0.667              1.750              1.680
 Vibration     6          0.679              1.713              1.542
 Vibration     7          0.685              1.695              1.482
 Vibration     8          0.707              1.633              1.303
 Vibration     9          0.738              1.546              1.103
 Vibration    10          0.768              1.464              0.953
 Vibration    11          0.791              1.406              0.861
 Vibration    12          0.851              1.261              0.671
 Vibration    13          0.878              1.200              0.604
 Vibration    14          0.940              1.068              0.480

 Optimization completed.
    -- Stationary point found.
 Normal termination of Gaussian 09 at Tue Aug 23 16:37:22 2022.

 -----------------------------------------------------------------
 #P Geom=AllCheck Guess=TCheck SCRF=Check CCSD(T,E4T,FrzG4)/GTBas1
 -----------------------------------------------------------------

 Structure from the checkpoint file:  "G4.Frag_1001.chk"
 ---------
 Frag_1001
 ---------
 Charge =  0 Multiplicity = 1

 SCF Done:  E(RHF) =  -322.366234398     A.U. after   12 cycles
 E2 =    -0.1026754997D+01 EUMP2 =    -0.32339298939428D+03
 CCSD(T)
 CCSD(T)= -0.32349593900D+03
 4522\CCSD=-323.4648422\CCSD(T)=-323.495939\RMSD=1.827e-09\PG=C01 [X(C4
 Normal termination of Gaussian 09 at Tue Aug 23 16:59:48 2022.

 ---------------------------------------------------------
 #P Geom=AllCheck Guess=TCheck SCRF=Check MP4=FrzG4/GTBas2
 ---------------------------------------------------------

 Structure from the checkpoint file:  "G4.Frag_1001.chk"
 ---------
 Frag_1001
 ---------
 Charge =  0 Multiplicity = 1

 SCF Done:  E(RHF) =  -322.377104064     A.U. after   11 cycles
 E2 =    -0.1044257138D+01 EUMP2 =    -0.32342136120197D+03
 Normal termination of Gaussian 09 at Tue Aug 23 17:28:37 2022.

 ---------------------------------------------------------
 #P Geom=AllCheck Guess=TCheck SCRF=Check MP4=FrzG4/GTBas3
 ---------------------------------------------------------

 Structure from the checkpoint file:  "G4.Frag_1001.chk"
 ---------
 Frag_1001
 ---------
 Charge =  0 Multiplicity = 1

 SCF Done:  E(RHF) =  -322.417096342     A.U. after   10 cycles
 E2 =    -0.1271226567D+01 EUMP2 =    -0.32368832290896D+03
 Normal termination of Gaussian 09 at Wed Aug 24 00:23:49 2022.

 -----------------------------------------------------------
 #P Geom=AllCheck Guess=TCheck SCRF=Check MP2=Full/GTLargeXP
 -----------------------------------------------------------

 Structure from the checkpoint file:  "G4.Frag_1001.chk"
 ---------
 Frag_1001
 ---------
 Charge =  0 Multiplicity = 1

 SCF Done:  E(RHF) =  -322.495667212     A.U. after   12 cycles
 E2 =    -0.1660541388D+01 EUMP2 =    -0.32415620860048D+03
 Normal termination of Gaussian 09 at Wed Aug 24 00:40:00 2022.
 SCF Done:  E(RHF) =  -322.520587132     A.U. after    8 cycles
 Normal termination of Gaussian 09 at Wed Aug 24 00:52:04 2022.

                         Standard orientation:
 ---------------------------------------------------------------------
 Center     Atomic      Atomic             Coordinates (Angstroms)
 Number     Number       Type             X           Y           Z
 ---------------------------------------------------------------------
      1          6           0        1.589769   -1.258756    0.032144
      2          6           0        0.860044   -0.000006   -0.452287
      3          6           0        1.589720    1.258749    0.032134
      4          6           0       -0.635852   -0.000018   -0.009655
      5          7           0       -1.255795   -1.243865   -0.497546
      6          7           0       -1.255751    1.243876   -0.497553
      7          7           0       -0.748609    0.000038    1.448808
      8          1           0        1.568918   -1.299958    1.125524
      9          1           0        1.127750   -2.172411   -0.347032
     10          1           0        2.636382   -1.238082   -0.288729
     11          1           0        0.862446   -0.000044   -1.554717
     12          1           0        2.636485    1.237920   -0.288265
     13          1           0        1.568457    1.300187    1.125502
     14          1           0        1.128065    2.172435   -0.347416
     15          1           0       -2.265372   -1.176733   -0.390026
     16          1           0       -1.077140   -1.353557   -1.492341
     17          1           0       -1.077042    1.353515   -1.492351
     18          1           0       -2.265346    1.176661   -0.390152
     19          1           0       -1.222483    0.831369    1.774966
     20          1           0       -1.222118   -0.831461    1.775057
 ---------------------------------------------------------------------

 SCF Done:  E(RHF) =  -322.526104853     A.U. after    8 cycles

 The electronic state is 1-A.
 Alpha  occ. eigenvalues --  -15.54301 -15.54299 -15.52945 -11.31509 -11.21971
 Alpha  occ. eigenvalues --  -11.19477 -11.19475  -1.25911  -1.12976  -1.12111
 Alpha  occ. eigenvalues --   -1.04797  -0.91175  -0.85526  -0.75399  -0.68665
 Alpha  occ. eigenvalues --   -0.67261  -0.63692  -0.63236  -0.57591  -0.57562
 Alpha  occ. eigenvalues --   -0.56255  -0.52496  -0.51560  -0.47772  -0.46394
 Alpha  occ. eigenvalues --   -0.46319  -0.45452  -0.38610  -0.38323
 Alpha virt. eigenvalues --    0.03029   0.04237   0.04511   0.04656   0.06366
 Alpha virt. eigenvalues --    0.06476   0.07036   0.07927   0.08053   0.09932
 Alpha virt. eigenvalues --    0.10041   0.10566   0.10588   0.11463   0.11623

 Mulliken charges:
               1
     1  C   -0.579704
     2  C    0.066629
     3  C   -0.579692
     4  C    0.526341
     5  N   -0.762332
     6  N   -0.762309
     7  N   -0.840945
     8  H    0.180604
     9  H    0.170106
    10  H    0.157958
    11  H    0.129493
    12  H    0.157953
    13  H    0.180621
    14  H    0.170077
    15  H    0.277900
    16  H    0.293803
    17  H    0.293798
    18  H    0.277883
    19  H    0.320903
    20  H    0.320916
 Sum of Mulliken charges =  -0.00000

 Dipole moment (field-independent basis, Debye):
    X=             -2.2837    Y=             -0.0005    Z=             -1.6677  Tot=              2.8278
 Quadrupole moment (field-independent basis, Debye-Ang):
   XX=            -40.8196   YY=            -51.2913   ZZ=            -43.2322
   XY=              0.0004   XZ=             -0.5290   YZ=             -0.0005

 Normal termination of Gaussian 09 at Wed Aug 24 06:45:08 2022.
