 Gaussian 09, Revision E.01,
 Gaussian 09:  ES64L-G09RevE.01 30-Nov-2015

 -----
 #P G4
 -----

 --------
 Frag_932
 --------
 Symbolic Z-matrix:
 Charge =  0 Multiplicity = 1

 SCF Done:  E(RB3LYP) =  -303.675870893     A.U. after   15 cycles
 SCF Done:  E(RB3LYP) =  -303.730451724     A.U. after   13 cycles
 SCF Done:  E(RB3LYP) =  -303.753530508     A.U. after   13 cycles
 SCF Done:  E(RB3LYP) =  -303.764070901     A.U. after   13 cycles
 SCF Done:  E(RB3LYP) =  -303.764771817     A.U. after   12 cycles
 SCF Done:  E(RB3LYP) =  -303.765590090     A.U. after   12 cycles
 SCF Done:  E(RB3LYP) =  -303.766079180     A.U. after   12 cycles
 SCF Done:  E(RB3LYP) =  -303.765131523     A.U. after   13 cycles
 SCF Done:  E(RB3LYP) =  -303.766771633     A.U. after   11 cycles
 SCF Done:  E(RB3LYP) =  -303.767181556     A.U. after   12 cycles
 SCF Done:  E(RB3LYP) =  -303.767899891     A.U. after   10 cycles
 SCF Done:  E(RB3LYP) =  -303.767900853     A.U. after    8 cycles
 SCF Done:  E(RB3LYP) =  -303.767901209     A.U. after    8 cycles
 Optimization completed.
    -- Stationary point found.
 Normal termination of Gaussian 09 at Tue Aug 30 11:51:33 2022.

 ----------------------------------------------------------
 #P Geom=AllCheck Guess=TCheck SCRF=Check B3LYP/GTBas3 Freq
 ----------------------------------------------------------

 Structure from the checkpoint file:  "G4.Frag_932.chk"
 --------
 Frag_932
 --------
 Charge =  0 Multiplicity = 1

 SCF Done:  E(RB3LYP) =  -303.767901209     A.U. after    1 cycles

  Exact polarizability:  64.763   4.854  63.527   1.357   2.227  36.840
 Approx polarizability:  89.584   6.106 112.517   3.877   8.331  56.353

                      1                      2                      3
                      A                      A                      A
 Frequencies --     60.4437               164.6245               259.2488
 Red. masses --      3.1085                 1.0989                 2.7179
 Frc consts  --      0.0067                 0.0175                 0.1076
 IR Inten    --      3.6564                 0.2544                 8.3325

                      4                      5                      6
                      A                      A                      A
 Frequencies --    291.1879               378.2407               428.6788
 Red. masses --      1.1515                 2.7858                 2.2358
 Frc consts  --      0.0575                 0.2348                 0.2421
 IR Inten    --      0.8870                 6.7679                 0.8358

                      7                      8                      9
                      A                      A                      A
 Frequencies --    541.2961               572.8152               611.1049
 Red. masses --      2.7875                 4.6589                 1.2362
 Frc consts  --      0.4812                 0.9007                 0.2720
 IR Inten    --      6.5898                 1.9383                23.7296

                     10                     11                     12
                      A                      A                      A
 Frequencies --    677.4231               745.3179               752.8460
 Red. masses --      1.5853                 2.9385                 3.1602
 Frc consts  --      0.4286                 0.9618                 1.0553
 IR Inten    --     19.4181                45.2292                15.3603

                     13                     14                     15
                      A                      A                      A
 Frequencies --    951.5758              1053.5743              1099.1891
 Red. masses --      2.8879                 1.4813                 2.0540
 Frc consts  --      1.5407                 0.9688                 1.4622
 IR Inten    --     65.1793                 8.1054                31.1121

                     16                     17                     18
                      A                      A                      A
 Frequencies --   1121.7165              1169.5311              1263.2425
 Red. masses --      1.2380                 1.4018                 1.9976
 Frc consts  --      0.9178                 1.1297                 1.8782
 IR Inten    --      5.6493                17.1251                 0.9377

                     19                     20                     21
                      A                      A                      A
 Frequencies --   1273.8109              1319.2351              1418.2820
 Red. masses --      4.4305                 2.4952                 1.1480
 Frc consts  --      4.2356                 2.5586                 1.3605
 IR Inten    --      6.9605                68.0021                 9.4322

                     22                     23                     24
                      A                      A                      A
 Frequencies --   1460.7743              1468.8144              1484.4629
 Red. masses --      1.2189                 1.2803                 1.0565
 Frc consts  --      1.5325                 1.6274                 1.3717
 IR Inten    --      7.3983                24.3848                11.2285

                     25                     26                     27
                      A                      A                      A
 Frequencies --   1495.7927              1503.4694              1519.5469
 Red. masses --      1.0627                 1.0617                 1.0596
 Frc consts  --      1.4008                 1.4140                 1.4415
 IR Inten    --     20.2065                 2.0868                16.3519

                     28                     29                     30
                      A                      A                      A
 Frequencies --   1639.2768              2973.1832              2983.1264
 Red. masses --      7.6908                 1.0541                 1.0567
 Frc consts  --     12.1766                 5.4900                 5.5403
 IR Inten    --    208.3566                28.6447                75.7389

                     31                     32                     33
                      A                      A                      A
 Frequencies --   3089.7677              3104.5765              3130.7638
 Red. masses --      1.0793                 1.0835                 1.1020
 Frc consts  --      6.0707                 6.1529                 6.3639
 IR Inten    --     16.1159                24.0208                13.0994

                     34                     35                     36
                      A                      A                      A
 Frequencies --   3192.8730              3230.7750              3362.3629
 Red. masses --      1.0960                 1.0519                 1.1230
 Frc consts  --      6.5829                 6.4693                 7.4804
 IR Inten    --      0.7385                 4.0671                 0.0136

 - Thermochemistry -
 -------------------
 Temperature   298.150 Kelvin.  Pressure   1.00000 Atm.
 Atom     1 has atomic number  6 and mass  12.00000

 Molecular mass:    88.06366 amu.
 Principal axes and moments of inertia in atomic units:
                           1         2         3
     Eigenvalues --   347.25675 487.19131 787.33960
           X            0.99551   0.09467  -0.00145
           Y           -0.09467   0.99549  -0.00577
           Z            0.00090   0.00588   0.99998
 This molecule is an asymmetric top.
 Rotational symmetry number  1.
 Rotational temperatures (Kelvin)      0.24942     0.17778     0.11001
 Rotational constants (GHZ):           5.19714     3.70438     2.29220
 Zero-point vibrational energy     309790.6 (Joules/Mol)
                                   74.04174 (Kcal/Mol)
 Warning -- explicit consideration of   9 degrees of freedom as
           vibrations may cause significant error
 Vibrational temperatures:     86.96   236.86   373.00   418.95   544.20
          (Kelvin)            616.77   778.80   824.15   879.24   974.66
                             1072.34  1083.18  1369.10  1515.86  1581.49
                             1613.90  1682.69  1817.52  1832.73  1898.08
                             2040.59  2101.73  2113.29  2135.81  2152.11
                             2163.15  2186.29  2358.55  4277.74  4292.05
                             4445.48  4466.79  4504.47  4593.83  4648.36
                             4837.68

 Zero-point correction=                           0.117993 (Hartree/Particle)
 Thermal correction to Energy=                    0.124829
 Thermal correction to Enthalpy=                  0.125773
 Thermal correction to Gibbs Free Energy=         0.087485
 Sum of electronic and zero-point Energies=           -303.649908
 Sum of electronic and thermal Energies=              -303.643072
 Sum of electronic and thermal Enthalpies=            -303.642128
 Sum of electronic and thermal Free Energies=         -303.680416

                     E (Thermal)             CV                S
                      KCal/Mol        Cal/Mol-Kelvin    Cal/Mol-Kelvin
 Total                   78.331             24.395             80.584
 Electronic               0.000              0.000              0.000
 Translational            0.889              2.981             39.339
 Rotational               0.889              2.981             26.391
 Vibrational             76.554             18.433             14.854
 Vibration     1          0.597              1.973              4.443
 Vibration     2          0.623              1.886              2.496
 Vibration     3          0.668              1.747              1.667
 Vibration     4          0.687              1.690              1.467
 Vibration     5          0.749              1.517              1.046
 Vibration     6          0.790              1.408              0.863
 Vibration     7          0.896              1.159              0.563
 Vibration     8          0.929              1.090              0.499
 Vibration     9          0.970              1.008              0.431

 Optimization completed.
    -- Stationary point found.
 Normal termination of Gaussian 09 at Tue Aug 30 11:52:04 2022.

 -----------------------------------------------------------------
 #P Geom=AllCheck Guess=TCheck SCRF=Check CCSD(T,E4T,FrzG4)/GTBas1
 -----------------------------------------------------------------

 Structure from the checkpoint file:  "G4.Frag_932.chk"
 --------
 Frag_932
 --------
 Charge =  0 Multiplicity = 1

 SCF Done:  E(RHF) =  -301.865324096     A.U. after   14 cycles
 E2 =    -0.9159851336D+00 EUMP2 =    -0.30278130922943D+03
 CCSD(T)
 CCSD(T)= -0.30285691248D+03
 MP4SDQ=-302.8236084\CCSD=-302.8219342\CCSD(T)=-302.8569125\RMSD=2.562e
 Normal termination of Gaussian 09 at Tue Aug 30 11:54:11 2022.

 ---------------------------------------------------------
 #P Geom=AllCheck Guess=TCheck SCRF=Check MP4=FrzG4/GTBas2
 ---------------------------------------------------------

 Structure from the checkpoint file:  "G4.Frag_932.chk"
 --------
 Frag_932
 --------
 Charge =  0 Multiplicity = 1

 SCF Done:  E(RHF) =  -301.875554161     A.U. after   13 cycles
 E2 =    -0.9287074636D+00 EUMP2 =    -0.30280426162498D+03
 Normal termination of Gaussian 09 at Tue Aug 30 11:54:47 2022.

 ---------------------------------------------------------
 #P Geom=AllCheck Guess=TCheck SCRF=Check MP4=FrzG4/GTBas3
 ---------------------------------------------------------

 Structure from the checkpoint file:  "G4.Frag_932.chk"
 --------
 Frag_932
 --------
 Charge =  0 Multiplicity = 1

 SCF Done:  E(RHF) =  -301.901885295     A.U. after   12 cycles
 E2 =    -0.1117787411D+01 EUMP2 =    -0.30301967270624D+03
 Normal termination of Gaussian 09 at Tue Aug 30 11:58:17 2022.

 -----------------------------------------------------------
 #P Geom=AllCheck Guess=TCheck SCRF=Check MP2=Full/GTLargeXP
 -----------------------------------------------------------

 Structure from the checkpoint file:  "G4.Frag_932.chk"
 --------
 Frag_932
 --------
 Charge =  0 Multiplicity = 1

 SCF Done:  E(RHF) =  -301.979352889     A.U. after   13 cycles
 E2 =    -0.1453971508D+01 EUMP2 =    -0.30343332439696D+03
 Normal termination of Gaussian 09 at Tue Aug 30 12:00:18 2022.
 SCF Done:  E(RHF) =  -302.003618219     A.U. after   10 cycles
 Normal termination of Gaussian 09 at Tue Aug 30 12:02:37 2022.

                         Standard orientation:
 ---------------------------------------------------------------------
 Center     Atomic      Atomic             Coordinates (Angstroms)
 Number     Number       Type             X           Y           Z
 ---------------------------------------------------------------------
      1          6           0        1.453575    1.053591    0.206131
      2          7           0        0.797232   -0.050144   -0.052160
      3          8           0        1.329661   -1.179793   -0.147816
      4          7           0       -0.603849   -0.017454   -0.316972
      5          6           0       -1.289268   -1.185141    0.231478
      6          6           0       -1.273131    1.246893   -0.075574
      7          1           0        2.522572    0.949247    0.289407
      8          1           0        0.949724    1.993743    0.322363
      9          1           0       -1.449170   -1.106921    1.318694
     10          1           0       -2.258636   -1.266197   -0.265097
     11          1           0       -0.693540   -2.067925    0.016596
     12          1           0       -2.326040    1.108012   -0.329238
     13          1           0       -0.872544    2.024482   -0.730305
     14          1           0       -1.210401    1.585032    0.971818
 ---------------------------------------------------------------------

 SCF Done:  E(RHF) =  -302.008642057     A.U. after    8 cycles

 The electronic state is 1-A.
 Alpha  occ. eigenvalues --  -20.51627 -15.76366 -15.61738 -11.27592 -11.27143
 Alpha  occ. eigenvalues --  -11.25582  -1.48222  -1.25978  -1.12338  -0.98228
 Alpha  occ. eigenvalues --   -0.93028  -0.78411  -0.74118  -0.68741  -0.68367
 Alpha  occ. eigenvalues --   -0.61238  -0.60063  -0.59743  -0.57419  -0.55585
 Alpha  occ. eigenvalues --   -0.53407  -0.43326  -0.40214  -0.33661
 Alpha virt. eigenvalues --    0.03113   0.03685   0.04501   0.04913   0.06426
 Alpha virt. eigenvalues --    0.06686   0.06947   0.07319   0.08324   0.09371
 Alpha virt. eigenvalues --    0.11994   0.12767   0.13304   0.14036   0.14493

 Mulliken charges:
               1
     1  C   -0.404562
     2  N    0.317624
     3  O   -0.591014
     4  N    0.031085
     5  C   -0.457771
     6  C   -0.497357
     7  H    0.246365
     8  H    0.215184
     9  H    0.153593
    10  H    0.176289
    11  H    0.247028
    12  H    0.210442
    13  H    0.188529
    14  H    0.164565
 Sum of Mulliken charges =  -0.00000

 Dipole moment (field-independent basis, Debye):
    X=             -2.6623    Y=              3.4246    Z=              0.9864  Tot=              4.4485
 Quadrupole moment (field-independent basis, Debye-Ang):
   XX=            -35.8656   YY=            -36.5408   ZZ=            -39.3837
   XY=              5.0599   XZ=              0.7006   YZ=             -0.4693

 Normal termination of Gaussian 09 at Tue Aug 30 12:10:09 2022.
