 Gaussian 09, Revision E.01,
 Gaussian 09:  ES64L-G09RevE.01 30-Nov-2015

 -----
 #P G4
 -----

 --------
 Frag_989
 --------
 Symbolic Z-matrix:
 Charge =  0 Multiplicity = 1

 SCF Done:  E(RB3LYP) =  -265.692810358     A.U. after   12 cycles
 SCF Done:  E(RB3LYP) =  -265.699866288     A.U. after   11 cycles
 SCF Done:  E(RB3LYP) =  -265.701345175     A.U. after   11 cycles
 SCF Done:  E(RB3LYP) =  -265.701931277     A.U. after   11 cycles
 SCF Done:  E(RB3LYP) =  -265.702114766     A.U. after   10 cycles
 SCF Done:  E(RB3LYP) =  -265.702366141     A.U. after   10 cycles
 SCF Done:  E(RB3LYP) =  -265.702695405     A.U. after   11 cycles
 SCF Done:  E(RB3LYP) =  -265.697965593     A.U. after   14 cycles
 SCF Done:  E(RB3LYP) =  -265.703871610     A.U. after   12 cycles
 SCF Done:  E(RB3LYP) =  -265.704370949     A.U. after   11 cycles
 SCF Done:  E(RB3LYP) =  -265.705617798     A.U. after    8 cycles
 SCF Done:  E(RB3LYP) =  -265.705618692     A.U. after    7 cycles
 SCF Done:  E(RB3LYP) =  -265.705618811     A.U. after    6 cycles
 Optimization completed.
    -- Stationary point found.
 Normal termination of Gaussian 09 at Fri Aug 26 05:32:24 2022.

 ----------------------------------------------------------
 #P Geom=AllCheck Guess=TCheck SCRF=Check B3LYP/GTBas3 Freq
 ----------------------------------------------------------

 Structure from the checkpoint file:  "G4.Frag_989.chk"
 --------
 Frag_989
 --------
 Charge =  0 Multiplicity = 1

 SCF Done:  E(RB3LYP) =  -265.705618811     A.U. after    1 cycles

  Exact polarizability:  49.671   0.679  42.764   1.309   0.609  38.369
 Approx polarizability:  63.695   4.029  57.279   1.386   0.564  56.901

                      1                      2                      3
                      A                      A                      A
 Frequencies --    140.5850               231.3261               256.8353
 Red. masses --      2.2869                 1.1463                 1.0701
 Frc consts  --      0.0266                 0.0361                 0.0416
 IR Inten    --      1.0616                23.6696                11.6902

                      4                      5                      6
                      A                      A                      A
 Frequencies --    290.3484               305.1904               408.8417
 Red. masses --      1.1499                 2.8233                 2.3340
 Frc consts  --      0.0571                 0.1549                 0.2299
 IR Inten    --     79.7284                19.6415                 8.7448

                      7                      8                      9
                      A                      A                      A
 Frequencies --    440.1641               520.2100               804.1979
 Red. masses --      3.1536                 4.2179                 1.8963
 Frc consts  --      0.3600                 0.6725                 0.7226
 IR Inten    --      2.6196                 1.7992               109.5126

                     10                     11                     12
                      A                      A                      A
 Frequencies --    859.9846               963.9815               998.1142
 Red. masses --      1.9632                 2.1126                 2.1252
 Frc consts  --      0.8555                 1.1567                 1.2474
 IR Inten    --     39.2097                17.9541                26.4375

                     13                     14                     15
                      A                      A                      A
 Frequencies --   1096.8347              1141.2063              1147.8344
 Red. masses --      2.6625                 1.5027                 1.6743
 Frc consts  --      1.8872                 1.1531                 1.2997
 IR Inten    --     16.9904                17.0563                11.9921

                     16                     17                     18
                      A                      A                      A
 Frequencies --   1230.5161              1250.6112              1332.5673
 Red. masses --      1.8616                 1.6585                 1.2985
 Frc consts  --      1.6608                 1.5283                 1.3585
 IR Inten    --     26.0074                13.8621                 1.3766

                     19                     20                     21
                      A                      A                      A
 Frequencies --   1375.4959              1414.6387              1443.8149
 Red. masses --      1.2460                 1.2291                 1.2651
 Frc consts  --      1.3889                 1.4492                 1.5538
 IR Inten    --     42.9551                 7.9555                15.4630

                     22                     23                     24
                      A                      A                      A
 Frequencies --   1486.7122              1499.0837              1523.0517
 Red. masses --      1.0528                 1.0583                 1.0862
 Frc consts  --      1.3710                 1.4012                 1.4846
 IR Inten    --      8.0805                 4.7794                 0.6834

                     25                     26                     27
                      A                      A                      A
 Frequencies --   1646.2811              2954.8115              2981.6928
 Red. masses --      1.0992                 1.0626                 1.0524
 Frc consts  --      1.7552                 5.4663                 5.5126
 IR Inten    --     24.2862                61.6147                56.2423

                     28                     29                     30
                      A                      A                      A
 Frequencies --   3007.9520              3092.7599              3143.9600
 Red. masses --      1.0987                 1.0812                 1.1015
 Frc consts  --      5.8568                 6.0935                 6.4147
 IR Inten    --     61.2806                30.4329                 9.6795

                     31                     32                     33
                      A                      A                      A
 Frequencies --   3507.7899              3594.8453              3802.2849
 Red. masses --      1.0493                 1.0928                 1.0682
 Frc consts  --      7.6073                 8.3205                 9.0990
 IR Inten    --      0.2035                 1.5547                36.8373

 - Thermochemistry -
 -------------------
 Temperature   298.150 Kelvin.  Pressure   1.00000 Atm.
 Atom     1 has atomic number  6 and mass  12.00000

 Molecular mass:    76.06366 amu.
 Principal axes and moments of inertia in atomic units:
                           1         2         3
     Eigenvalues --   211.03655 482.35364 628.28285
           X            0.99882  -0.04804   0.00685
           Y            0.04789   0.99865   0.02028
           Z           -0.00782  -0.01993   0.99977
 This molecule is an asymmetric top.
 Rotational symmetry number  1.
 Rotational temperatures (Kelvin)      0.41042     0.17956     0.13786
 Rotational constants (GHZ):           8.55179     3.74153     2.87250
 Zero-point vibrational energy     298435.5 (Joules/Mol)
                                   71.32780 (Kcal/Mol)
 Warning -- explicit consideration of   8 degrees of freedom as
           vibrations may cause significant error
 Vibrational temperatures:    202.27   332.83   369.53   417.75   439.10
          (Kelvin)            588.23   633.30   748.47  1157.06  1237.32
                             1386.95  1436.06  1578.10  1641.94  1651.48
                             1770.44  1799.35  1917.26  1979.03  2035.35
                             2077.32  2139.04  2156.84  2191.33  2368.63
                             4251.31  4289.99  4327.77  4449.79  4523.45
                             5046.92  5172.17  5470.63

 Zero-point correction=                           0.113668 (Hartree/Particle)
 Thermal correction to Energy=                    0.120143
 Thermal correction to Enthalpy=                  0.121087
 Thermal correction to Gibbs Free Energy=         0.084472
 Sum of electronic and zero-point Energies=           -265.591951
 Sum of electronic and thermal Energies=              -265.585476
 Sum of electronic and thermal Enthalpies=            -265.584532
 Sum of electronic and thermal Free Energies=         -265.621146

                     E (Thermal)             CV                S
                      KCal/Mol        Cal/Mol-Kelvin    Cal/Mol-Kelvin
 Total                   75.391             22.650             77.062
 Electronic               0.000              0.000              0.000
 Translational            0.889              2.981             38.903
 Rotational               0.889              2.981             25.662
 Vibrational             73.613             16.688             12.498
 Vibration     1          0.615              1.913              2.796
 Vibration     2          0.653              1.793              1.869
 Vibration     3          0.666              1.751              1.683
 Vibration     4          0.686              1.692              1.472
 Vibration     5          0.696              1.664              1.388
 Vibration     6          0.773              1.451              0.931
 Vibration     7          0.800              1.383              0.826
 Vibration     8          0.875              1.205              0.609

 Normal termination of Gaussian 09 at Fri Aug 26 05:32:47 2022.

 -----------------------------------------------------------------
 #P Geom=AllCheck Guess=TCheck SCRF=Check CCSD(T,E4T,FrzG4)/GTBas1
 -----------------------------------------------------------------

 Structure from the checkpoint file:  "G4.Frag_989.chk"
 --------
 Frag_989
 --------
 Charge =  0 Multiplicity = 1

 SCF Done:  E(RHF) =  -264.066026633     A.U. after   12 cycles
 E2 =    -0.7715486757D+00 EUMP2 =    -0.26483757530860D+03
 CCSD(T)
 CCSD(T)= -0.26490645163D+03
 MP4SDTQ=-264.9055165\MP4SDQ=-264.8837443\CCSD=-264.8845964\CCSD(T)=-26
 Normal termination of Gaussian 09 at Fri Aug 26 05:33:47 2022.

 ---------------------------------------------------------
 #P Geom=AllCheck Guess=TCheck SCRF=Check MP4=FrzG4/GTBas2
 ---------------------------------------------------------

 Structure from the checkpoint file:  "G4.Frag_989.chk"
 --------
 Frag_989
 --------
 Charge =  0 Multiplicity = 1

 SCF Done:  E(RHF) =  -264.076126699     A.U. after   12 cycles
 E2 =    -0.7861033093D+00 EUMP2 =    -0.26486223000790D+03
 Normal termination of Gaussian 09 at Fri Aug 26 05:34:04 2022.

 ---------------------------------------------------------
 #P Geom=AllCheck Guess=TCheck SCRF=Check MP4=FrzG4/GTBas3
 ---------------------------------------------------------

 Structure from the checkpoint file:  "G4.Frag_989.chk"
 --------
 Frag_989
 --------
 Charge =  0 Multiplicity = 1

 SCF Done:  E(RHF) =  -264.103250376     A.U. after   12 cycles
 E2 =    -0.9549594284D+00 EUMP2 =    -0.26505820980400D+03
 Normal termination of Gaussian 09 at Fri Aug 26 05:35:51 2022.

 -----------------------------------------------------------
 #P Geom=AllCheck Guess=TCheck SCRF=Check MP2=Full/GTLargeXP
 -----------------------------------------------------------

 Structure from the checkpoint file:  "G4.Frag_989.chk"
 --------
 Frag_989
 --------
 Charge =  0 Multiplicity = 1

 SCF Done:  E(RHF) =  -264.175453792     A.U. after   12 cycles
 E2 =    -0.1244023366D+01 EUMP2 =    -0.26541947715761D+03
 Normal termination of Gaussian 09 at Fri Aug 26 05:36:47 2022.
 SCF Done:  E(RHF) =  -264.196693136     A.U. after    9 cycles
 Normal termination of Gaussian 09 at Fri Aug 26 05:38:00 2022.

                         Standard orientation:
 ---------------------------------------------------------------------
 Center     Atomic      Atomic             Coordinates (Angstroms)
 Number     Number       Type             X           Y           Z
 ---------------------------------------------------------------------
      1          6           0       -0.740524    1.334099    0.094060
      2          7           0       -0.436309   -0.019252   -0.353742
      3          8           0       -1.543893   -0.846174    0.061162
      4          6           0        0.740861   -0.576470    0.316892
      5          7           0        1.921440    0.124946   -0.162025
      6          1           0       -0.981515    1.368863    1.168608
      7          1           0       -1.592403    1.718577   -0.472020
      8          1           0        0.136587    1.954272   -0.099667
      9          1           0       -1.876244   -1.190260   -0.774945
     10          1           0        0.720204   -1.655461    0.107935
     11          1           0        0.684792   -0.447982    1.411863
     12          1           0        2.720149   -0.095768    0.421839
     13          1           0        2.141634   -0.168485   -1.108256
 ---------------------------------------------------------------------

 SCF Done:  E(RHF) =  -264.201388440     A.U. after    8 cycles

 The electronic state is 1-A.
 Alpha  occ. eigenvalues --  -20.57778 -15.60263 -15.54626 -11.27873 -11.23458
 Alpha  occ. eigenvalues --   -1.39673  -1.20323  -1.10781  -0.93270  -0.81584
 Alpha  occ. eigenvalues --   -0.70853  -0.67085  -0.65029  -0.61826  -0.57426
 Alpha  occ. eigenvalues --   -0.56458  -0.53288  -0.51935  -0.47178  -0.40465
 Alpha  occ. eigenvalues --   -0.38345
 Alpha virt. eigenvalues --    0.04048   0.04663   0.05137   0.05486   0.07173
 Alpha virt. eigenvalues --    0.07674   0.07911   0.09300   0.09979   0.12145
 Alpha virt. eigenvalues --    0.12937   0.14192   0.14483   0.14965   0.15658

 Mulliken charges:
               1
     1  C   -0.435042
     2  N    0.010064
     3  O   -0.577404
     4  C   -0.137230
     5  N   -0.676328
     6  H    0.153177
     7  H    0.162610
     8  H    0.214893
     9  H    0.397989
    10  H    0.151185
    11  H    0.151832
    12  H    0.293867
    13  H    0.290386
 Sum of Mulliken charges =  -0.00000

 Dipole moment (field-independent basis, Debye):
    X=              1.1386    Y=             -0.7854    Z=             -0.5714  Tot=              1.4966
 Quadrupole moment (field-independent basis, Debye-Ang):
   XX=            -28.7523   YY=            -31.5829   ZZ=            -30.7117
   XY=             -2.5263   XZ=              2.8710   YZ=              2.1552

 Normal termination of Gaussian 09 at Fri Aug 26 05:42:31 2022.
