 Gaussian 09, Revision E.01,
 Gaussian 09:  ES64L-G09RevE.01 30-Nov-2015

 -----
 #P G4
 -----

 --------
 Frag_991
 --------
 Symbolic Z-matrix:
 Charge =  0 Multiplicity = 1

 SCF Done:  E(RB3LYP) =  -300.378443659     A.U. after   14 cycles
 SCF Done:  E(RB3LYP) =  -300.412886588     A.U. after   12 cycles
 SCF Done:  E(RB3LYP) =  -300.421762125     A.U. after   12 cycles
 SCF Done:  E(RB3LYP) =  -300.422926799     A.U. after   12 cycles
 SCF Done:  E(RB3LYP) =  -300.423639035     A.U. after   12 cycles
 SCF Done:  E(RB3LYP) =  -300.423933230     A.U. after   12 cycles
 SCF Done:  E(RB3LYP) =  -300.424247835     A.U. after   11 cycles
 SCF Done:  E(RB3LYP) =  -300.424345240     A.U. after   11 cycles
 SCF Done:  E(RB3LYP) =  -300.424358624     A.U. after    9 cycles
 SCF Done:  E(RB3LYP) =  -300.424361600     A.U. after    8 cycles
 SCF Done:  E(RB3LYP) =  -300.424361866     A.U. after    7 cycles
 Optimization completed.
    -- Stationary point found.
 Normal termination of Gaussian 09 at Fri Aug 26 05:43:41 2022.

 ----------------------------------------------------------
 #P Geom=AllCheck Guess=TCheck SCRF=Check B3LYP/GTBas3 Freq
 ----------------------------------------------------------

 Structure from the checkpoint file:  "G4.Frag_991.chk"
 --------
 Frag_991
 --------
 Charge =  0 Multiplicity = 1

 SCF Done:  E(RB3LYP) =  -300.424361866     A.U. after    1 cycles

  Exact polarizability:  43.078   0.106  34.230   0.001  -0.000  22.256
 Approx polarizability:  55.330  -1.063  58.460   0.001   0.001  32.406

                      1                      2                      3
                      A                      A                      A
 Frequencies --    156.7888               190.9985               345.3094
 Red. masses --      3.3521                 1.2385                 4.3010
 Frc consts  --      0.0486                 0.0266                 0.3022
 IR Inten    --      6.7721                29.5950                 2.2702

                      4                      5                      6
                      A                      A                      A
 Frequencies --    505.9448               509.4786               628.5755
 Red. masses --      1.0892                 4.7589                 4.5130
 Frc consts  --      0.1643                 0.7278                 1.0506
 IR Inten    --    119.3047                29.8405                23.6870

                      7                      8                      9
                      A                      A                      A
 Frequencies --    738.4957               852.5112               893.9186
 Red. masses --      8.7739                 1.1424                 4.9418
 Frc consts  --      2.8193                 0.4892                 2.3266
 IR Inten    --     21.4992                54.4505                43.4839

                     10                     11                     12
                      A                      A                      A
 Frequencies --    983.7905              1082.0164              1241.6725
 Red. masses --      3.8610                 1.8595                 1.5254
 Frc consts  --      2.2017                 1.2827                 1.3857
 IR Inten    --     23.5058               127.9461               246.0686

                     13                     14                     15
                      A                      A                      A
 Frequencies --   1250.1084              1345.9623              1444.0738
 Red. masses --      1.5696                 1.1139                 2.4874
 Frc consts  --      1.4452                 1.1889                 3.0562
 IR Inten    --     79.3541                 1.3677               182.4626

                     16                     17                     18
                      A                      A                      A
 Frequencies --   1656.9173              1782.7187              3447.1373
 Red. masses --      1.0959                 7.5727                 1.0478
 Frc consts  --      1.7726                14.1796                 7.3356
 IR Inten    --     28.8781               314.0845                 1.4159

                     19                     20                     21
                      A                      A                      A
 Frequencies --   3529.1630              3532.1939              3802.2657
 Red. masses --      1.0723                 1.0959                 1.0643
 Frc consts  --      7.8691                 8.0557                 9.0657
 IR Inten    --     19.2493                 4.2418                79.7163

 - Thermochemistry -
 -------------------
 Temperature   298.150 Kelvin.  Pressure   1.00000 Atm.
 Atom     1 has atomic number  7 and mass  14.00307

 Molecular mass:    76.02728 amu.
 Principal axes and moments of inertia in atomic units:
                           1         2         3
     Eigenvalues --   168.29777 415.10551 573.87228
           X            0.99998   0.00598   0.00001
           Y           -0.00598   0.99998  -0.00002
           Z           -0.00001   0.00002   1.00000
 This molecule is an asymmetric top.
 Rotational symmetry number  1.
 Rotational temperatures (Kelvin)      0.51465     0.20865     0.15093
 Rotational constants (GHZ):          10.72350     4.34767     3.14485
 Zero-point vibrational energy     178961.6 (Joules/Mol)
                                   42.77285 (Kcal/Mol)
 Warning -- explicit consideration of   5 degrees of freedom as
           vibrations may cause significant error
 Vibrational temperatures:    225.58   274.80   496.82   727.94   733.03
          (Kelvin)            904.38  1062.53  1226.57  1286.15  1415.45
                             1556.78  1786.49  1798.62  1936.54  2077.70
                             2383.93  2564.93  4959.66  5077.67  5082.03
                             5470.61

 Zero-point correction=                           0.068163 (Hartree/Particle)
 Thermal correction to Energy=                    0.073482
 Thermal correction to Enthalpy=                  0.074426
 Thermal correction to Gibbs Free Energy=         0.039916
 Sum of electronic and zero-point Energies=           -300.356199
 Sum of electronic and thermal Energies=              -300.350880
 Sum of electronic and thermal Enthalpies=            -300.349936
 Sum of electronic and thermal Free Energies=         -300.384446

                     E (Thermal)             CV                S
                      KCal/Mol        Cal/Mol-Kelvin    Cal/Mol-Kelvin
 Total                   46.110             17.898             72.631
 Electronic               0.000              0.000              0.000
 Translational            0.889              2.981             38.901
 Rotational               0.889              2.981             25.198
 Vibrational             44.333             11.936              8.533
 Vibration     1          0.620              1.895              2.588
 Vibration     2          0.634              1.852              2.218
 Vibration     3          0.724              1.585              1.188
 Vibration     4          0.861              1.237              0.643
 Vibration     5          0.865              1.229              0.635

 Optimization completed.
    -- Stationary point found.
 Normal termination of Gaussian 09 at Fri Aug 26 05:43:58 2022.

 -----------------------------------------------------------------
 #P Geom=AllCheck Guess=TCheck SCRF=Check CCSD(T,E4T,FrzG4)/GTBas1
 -----------------------------------------------------------------

 Structure from the checkpoint file:  "G4.Frag_991.chk"
 --------
 Frag_991
 --------
 Charge =  0 Multiplicity = 1

 SCF Done:  E(RHF) =  -298.745147188     A.U. after   13 cycles
 E2 =    -0.8056625597D+00 EUMP2 =    -0.29955080974723D+03
 CCSD(T)
 CCSD(T)= -0.29960122046D+03
 773618\CCSD=-299.5766886\CCSD(T)=-299.6012205\RMSD=3.655e-09\PG=C01 [X
 Normal termination of Gaussian 09 at Fri Aug 26 05:44:44 2022.

 ---------------------------------------------------------
 #P Geom=AllCheck Guess=TCheck SCRF=Check MP4=FrzG4/GTBas2
 ---------------------------------------------------------

 Structure from the checkpoint file:  "G4.Frag_991.chk"
 --------
 Frag_991
 --------
 Charge =  0 Multiplicity = 1

 SCF Done:  E(RHF) =  -298.755891695     A.U. after   11 cycles
 E2 =    -0.8196302069D+00 EUMP2 =    -0.29957552190183D+03
 Normal termination of Gaussian 09 at Fri Aug 26 05:44:58 2022.

 ---------------------------------------------------------
 #P Geom=AllCheck Guess=TCheck SCRF=Check MP4=FrzG4/GTBas3
 ---------------------------------------------------------

 Structure from the checkpoint file:  "G4.Frag_991.chk"
 --------
 Frag_991
 --------
 Charge =  0 Multiplicity = 1

 SCF Done:  E(RHF) =  -298.785478742     A.U. after   12 cycles
 E2 =    -0.9825039255D+00 EUMP2 =    -0.29976798266756D+03
 Normal termination of Gaussian 09 at Fri Aug 26 05:45:58 2022.

 -----------------------------------------------------------
 #P Geom=AllCheck Guess=TCheck SCRF=Check MP2=Full/GTLargeXP
 -----------------------------------------------------------

 Structure from the checkpoint file:  "G4.Frag_991.chk"
 --------
 Frag_991
 --------
 Charge =  0 Multiplicity = 1

 SCF Done:  E(RHF) =  -298.871526501     A.U. after   12 cycles
 E2 =    -0.1276694717D+01 EUMP2 =    -0.30014822121771D+03
 Normal termination of Gaussian 09 at Fri Aug 26 05:46:36 2022.
 SCF Done:  E(RHF) =  -298.895943745     A.U. after    9 cycles
 Normal termination of Gaussian 09 at Fri Aug 26 05:47:18 2022.

                         Standard orientation:
 ---------------------------------------------------------------------
 Center     Atomic      Atomic             Coordinates (Angstroms)
 Number     Number       Type             X           Y           Z
 ---------------------------------------------------------------------
      1          7           0        0.609162    1.354749    0.000026
      2          6           0        0.512242    0.098939   -0.000028
      3          8           0        1.569487   -0.728676   -0.000026
      4          8           0       -0.589961   -0.710452   -0.000051
      5          7           0       -1.800247    0.058794    0.000078
      6          1           0       -0.317918    1.774495   -0.000225
      7          1           0        2.344169   -0.151603    0.000377
      8          1           0       -2.299064   -0.298975   -0.813722
      9          1           0       -2.299252   -0.299322    0.813616
 ---------------------------------------------------------------------

 SCF Done:  E(RHF) =  -298.901128512     A.U. after    8 cycles

 The electronic state is 1-A.
 Alpha  occ. eigenvalues --  -20.63642 -20.60372 -15.64099 -15.52807 -11.39546
 Alpha  occ. eigenvalues --   -1.49242  -1.41041  -1.19482  -1.13192  -0.84040
 Alpha  occ. eigenvalues --   -0.73655  -0.73497  -0.71269  -0.64455  -0.63023
 Alpha  occ. eigenvalues --   -0.59694  -0.52209  -0.46934  -0.45293  -0.40589
 Alpha virt. eigenvalues --    0.03676   0.05326   0.05654   0.05869   0.08538
 Alpha virt. eigenvalues --    0.08662   0.09086   0.11415   0.12530   0.13505
 Alpha virt. eigenvalues --    0.14942   0.14985   0.16819   0.17444   0.17447

 Mulliken charges:
               1
     1  N   -0.747822
     2  C    0.669672
     3  O   -0.530042
     4  O   -0.265530
     5  N   -0.509445
     6  H    0.320885
     7  H    0.412602
     8  H    0.324840
     9  H    0.324839
 Sum of Mulliken charges =  -0.00000

 Dipole moment (field-independent basis, Debye):
    X=             -2.4643    Y=             -0.7675    Z=              0.0000  Tot=              2.5810
 Quadrupole moment (field-independent basis, Debye-Ang):
   XX=            -19.0043   YY=            -35.0535   ZZ=            -28.2399
   XY=              0.3258   XZ=              0.0024   YZ=             -0.0015

 Normal termination of Gaussian 09 at Fri Aug 26 05:51:06 2022.
