 Gaussian 09, Revision E.01,
 Gaussian 09:  ES64L-G09RevE.01 30-Nov-2015

 -----
 #P G4
 -----

 --------
 Frag_918
 --------
 Symbolic Z-matrix:
 Charge =  0 Multiplicity = 1

 SCF Done:  E(RB3LYP) =  -324.515775278     A.U. after   12 cycles
 SCF Done:  E(RB3LYP) =  -324.523528862     A.U. after   11 cycles
 SCF Done:  E(RB3LYP) =  -324.524307709     A.U. after   11 cycles
 SCF Done:  E(RB3LYP) =  -324.524626316     A.U. after   10 cycles
 SCF Done:  E(RB3LYP) =  -324.524818264     A.U. after   10 cycles
 SCF Done:  E(RB3LYP) =  -324.524992095     A.U. after   10 cycles
 SCF Done:  E(RB3LYP) =  -324.525274797     A.U. after   10 cycles
 SCF Done:  E(RB3LYP) =  -324.525642103     A.U. after   10 cycles
 SCF Done:  E(RB3LYP) =  -324.526922886     A.U. after   11 cycles
 SCF Done:  E(RB3LYP) =  -324.527832848     A.U. after   11 cycles
 SCF Done:  E(RB3LYP) =  -324.530610688     A.U. after    9 cycles
 SCF Done:  E(RB3LYP) =  -324.530613394     A.U. after    8 cycles
 SCF Done:  E(RB3LYP) =  -324.530613511     A.U. after    6 cycles
 Optimization completed.
    -- Stationary point found.
 Normal termination of Gaussian 09 at Fri Aug 26 05:04:40 2022.

 ----------------------------------------------------------
 #P Geom=AllCheck Guess=TCheck SCRF=Check B3LYP/GTBas3 Freq
 ----------------------------------------------------------

 Structure from the checkpoint file:  "G4.Frag_918.chk"
 --------
 Frag_918
 --------
 Charge =  0 Multiplicity = 1

 SCF Done:  E(RB3LYP) =  -324.530613511     A.U. after    1 cycles

  Exact polarizability:  73.039   0.078  65.071   0.865  -1.067  63.114
 Approx polarizability:  95.604   1.986  90.870   2.534  -2.758  94.912

                      1                      2                      3
                      A                      A                      A
 Frequencies --     98.1613               222.3093               237.1955
 Red. masses --      2.8141                 1.0482                 1.0856
 Frc consts  --      0.0160                 0.0305                 0.0360
 IR Inten    --      1.0999                 4.1131                 3.2980

                      4                      5                      6
                      A                      A                      A
 Frequencies --    245.6063               266.4658               276.2350
 Red. masses --      1.2209                 1.9186                 1.6170
 Frc consts  --      0.0434                 0.0803                 0.0727
 IR Inten    --     12.7648                 3.0706                21.7772

                      7                      8                      9
                      A                      A                      A
 Frequencies --    300.6803               337.8441               356.1839
 Red. masses --      1.4238                 1.2593                 2.6690
 Frc consts  --      0.0758                 0.0847                 0.1995
 IR Inten    --     12.9825                70.0679                 0.1670

                     10                     11                     12
                      A                      A                      A
 Frequencies --    388.9778               415.0049               469.1460
 Red. masses --      2.6204                 2.3565                 2.3765
 Frc consts  --      0.2336                 0.2391                 0.3082
 IR Inten    --      1.5584                15.2796                 9.9702

                     13                     14                     15
                      A                      A                      A
 Frequencies --    506.5717               583.4011               724.4462
 Red. masses --      3.2552                 2.4968                 2.7448
 Frc consts  --      0.4922                 0.5007                 0.8487
 IR Inten    --      9.9096                 9.8010                 0.0305

                     16                     17                     18
                      A                      A                      A
 Frequencies --    846.5231               886.3169               907.2082
 Red. masses --      2.2495                 2.0320                 1.6279
 Frc consts  --      0.9498                 0.9405                 0.7894
 IR Inten    --     54.2479               144.9610                54.1013

                     19                     20                     21
                      A                      A                      A
 Frequencies --    931.4084               943.7546               972.8731
 Red. masses --      1.3046                 1.3145                 1.5963
 Frc consts  --      0.6668                 0.6898                 0.8902
 IR Inten    --    117.3084                 7.4452                 5.0547

                     22                     23                     24
                      A                      A                      A
 Frequencies --   1014.6753              1024.2900              1064.9414
 Red. masses --      1.3196                 1.6358                 2.3667
 Frc consts  --      0.8005                 1.0112                 1.5814
 IR Inten    --      6.6305                23.5768                28.3472

                     25                     26                     27
                      A                      A                      A
 Frequencies --   1127.9542              1146.1693              1189.1934
 Red. masses --      1.7157                 1.3088                 2.2593
 Frc consts  --      1.2861                 1.0130                 1.8825
 IR Inten    --      9.1388                 1.5337                36.7369

                     28                     29                     30
                      A                      A                      A
 Frequencies --   1249.3571              1301.4857              1357.8396
 Red. masses --      2.1746                 1.7519                 1.6267
 Frc consts  --      1.9999                 1.7484                 1.7670
 IR Inten    --     14.2905                17.0724                 9.5528

                     31                     32                     33
                      A                      A                      A
 Frequencies --   1371.4313              1396.5331              1401.2148
 Red. masses --      1.4440                 1.2523                 1.3377
 Frc consts  --      1.6002                 1.4390                 1.5475
 IR Inten    --      3.8789                 9.5055                10.0527

                     34                     35                     36
                      A                      A                      A
 Frequencies --   1411.6114              1480.6875              1488.3380
 Red. masses --      1.3778                 1.0522                 1.0470
 Frc consts  --      1.6176                 1.3592                 1.3665
 IR Inten    --      1.6586                 0.5548                 3.4065

                     37                     38                     39
                      A                      A                      A
 Frequencies --   1496.9099              1505.3685              1638.9990
 Red. masses --      1.0622                 1.0745                 1.0892
 Frc consts  --      1.4023                 1.4346                 1.7239
 IR Inten    --      4.7101                 0.9738                38.0913

                     40                     41                     42
                      A                      A                      A
 Frequencies --   1646.1296              1661.5429              2990.3746
 Red. masses --      1.1011                 1.0946                 1.0830
 Frc consts  --      1.7579                 1.7805                 5.7061
 IR Inten    --     29.6209                31.5940                36.7977

                     43                     44                     45
                      A                      A                      A
 Frequencies --   3024.3265              3029.3744              3091.2537
 Red. masses --      1.0435                 1.0366                 1.1008
 Frc consts  --      5.6231                 5.6048                 6.1978
 IR Inten    --     36.0128                19.9148                19.3171

                     46                     47                     48
                      A                      A                      A
 Frequencies --   3094.9110              3122.1952              3144.9408
 Red. masses --      1.0960                 1.0997                 1.0980
 Frc consts  --      6.1852                 6.3162                 6.3985
 IR Inten    --     42.6930                20.3190                13.0212

                     49                     50                     51
                      A                      A                      A
 Frequencies --   3458.1719              3470.6009              3493.9800
 Red. masses --      1.0491                 1.0494                 1.0487
 Frc consts  --      7.3923                 7.4474                 7.5430
 IR Inten    --      1.7799                 5.5876                 0.2413

                     52                     53                     54
                      A                      A                      A
 Frequencies --   3537.7026              3555.1682              3572.8152
 Red. masses --      1.0913                 1.0910                 1.0925
 Frc consts  --      8.0474                 8.1245                 8.2165
 IR Inten    --      0.5585                 1.3866                 1.3826

 - Thermochemistry -
 -------------------
 Temperature   298.150 Kelvin.  Pressure   1.00000 Atm.
 Atom     1 has atomic number  6 and mass  12.00000

 Molecular mass:   103.11095 amu.
 Principal axes and moments of inertia in atomic units:
                           1         2         3
     Eigenvalues --   573.36043 782.16723 957.02988
           X            0.99786  -0.06429  -0.01173
           Y            0.06439   0.99789   0.00790
           Z            0.01120  -0.00864   0.99990
 This molecule is an asymmetric top.
 Rotational symmetry number  1.
 Warning -- assumption of classical behavior for rotation
           may cause significant error
 Rotational temperatures (Kelvin)      0.15106     0.11074     0.09050
 Rotational constants (GHZ):           3.14766     2.30736     1.88577
 Zero-point vibrational energy     481358.2 (Joules/Mol)
                                  115.04736 (Kcal/Mol)
 Warning -- explicit consideration of  14 degrees of freedom as
           vibrations may cause significant error
 Vibrational temperatures:    141.23   319.85   341.27   353.37   383.38
          (Kelvin)            397.44   432.61   486.08   512.47   559.65
                              597.10   675.00   728.84   839.38  1042.32
                             1217.96  1275.21  1305.27  1340.09  1357.85
                             1399.75  1459.89  1473.72  1532.21  1622.87
                             1649.08  1710.98  1797.54  1872.55  1953.63
                             1973.18  2009.30  2016.03  2030.99  2130.38
                             2141.38  2153.72  2165.89  2358.15  2368.41
                             2390.59  4302.48  4351.33  4358.59  4447.62
                             4452.88  4492.14  4524.86  4975.53  4993.41
                             5027.05  5089.96  5115.09  5140.48

 Zero-point correction=                           0.183340 (Hartree/Particle)
 Thermal correction to Energy=                    0.192412
 Thermal correction to Enthalpy=                  0.193357
 Thermal correction to Gibbs Free Energy=         0.151165
 Sum of electronic and zero-point Energies=           -324.347274
 Sum of electronic and thermal Energies=              -324.338201
 Sum of electronic and thermal Enthalpies=            -324.337257
 Sum of electronic and thermal Free Energies=         -324.379449

                     E (Thermal)             CV                S
                      KCal/Mol        Cal/Mol-Kelvin    Cal/Mol-Kelvin
 Total                  120.741             34.843             88.801
 Electronic               0.000              0.000              0.000
 Translational            0.889              2.981             39.809
 Rotational               0.889              2.981             27.553
 Vibrational            118.963             28.882             21.438
 Vibration     1          0.604              1.950              3.491
 Vibration     2          0.648              1.807              1.940
 Vibration     3          0.656              1.784              1.824
 Vibration     4          0.660              1.770              1.762
 Vibration     5          0.672              1.735              1.619
 Vibration     6          0.678              1.717              1.557
 Vibration     7          0.693              1.672              1.413
 Vibration     8          0.718              1.600              1.222
 Vibration     9          0.732              1.563              1.139
 Vibration    10          0.757              1.494              1.004
 Vibration    11          0.778              1.438              0.909
 Vibration    12          0.826              1.319              0.740
 Vibration    13          0.862              1.235              0.642
 Vibration    14          0.940              1.067              0.479

 Optimization completed.
    -- Stationary point found.
 Normal termination of Gaussian 09 at Fri Aug 26 05:05:41 2022.

 -----------------------------------------------------------------
 #P Geom=AllCheck Guess=TCheck SCRF=Check CCSD(T,E4T,FrzG4)/GTBas1
 -----------------------------------------------------------------

 Structure from the checkpoint file:  "G4.Frag_918.chk"
 --------
 Frag_918
 --------
 Charge =  0 Multiplicity = 1

 SCF Done:  E(RHF) =  -322.365757543     A.U. after   11 cycles
 E2 =    -0.1027727177D+01 EUMP2 =    -0.32339348471970D+03
 CCSD(T)
 CCSD(T)= -0.32349678954D+03
 94\CCSD=-323.4656161\CCSD(T)=-323.4967895\RMSD=9.301e-09\PG=C01 [X(C4H
 Normal termination of Gaussian 09 at Fri Aug 26 05:10:52 2022.

 ---------------------------------------------------------
 #P Geom=AllCheck Guess=TCheck SCRF=Check MP4=FrzG4/GTBas2
 ---------------------------------------------------------

 Structure from the checkpoint file:  "G4.Frag_918.chk"
 --------
 Frag_918
 --------
 Charge =  0 Multiplicity = 1

 SCF Done:  E(RHF) =  -322.376662689     A.U. after   12 cycles
 E2 =    -0.1044597339D+01 EUMP2 =    -0.32342126002802D+03
 Normal termination of Gaussian 09 at Fri Aug 26 05:12:37 2022.

 ---------------------------------------------------------
 #P Geom=AllCheck Guess=TCheck SCRF=Check MP4=FrzG4/GTBas3
 ---------------------------------------------------------

 Structure from the checkpoint file:  "G4.Frag_918.chk"
 --------
 Frag_918
 --------
 Charge =  0 Multiplicity = 1

 SCF Done:  E(RHF) =  -322.415697530     A.U. after   10 cycles
 E2 =    -0.1271862233D+01 EUMP2 =    -0.32368755976292D+03
 Normal termination of Gaussian 09 at Fri Aug 26 05:27:31 2022.

 -----------------------------------------------------------
 #P Geom=AllCheck Guess=TCheck SCRF=Check MP2=Full/GTLargeXP
 -----------------------------------------------------------

 Structure from the checkpoint file:  "G4.Frag_918.chk"
 --------
 Frag_918
 --------
 Charge =  0 Multiplicity = 1

 SCF Done:  E(RHF) =  -322.494406511     A.U. after   12 cycles
 E2 =    -0.1660742298D+01 EUMP2 =    -0.32415514880884D+03
 Normal termination of Gaussian 09 at Fri Aug 26 05:32:48 2022.
 SCF Done:  E(RHF) =  -322.519277314     A.U. after    9 cycles
 Normal termination of Gaussian 09 at Fri Aug 26 05:37:50 2022.

                         Standard orientation:
 ---------------------------------------------------------------------
 Center     Atomic      Atomic             Coordinates (Angstroms)
 Number     Number       Type             X           Y           Z
 ---------------------------------------------------------------------
      1          6           0       -1.750414    1.060896   -0.017960
      2          6           0       -0.848760   -0.098627   -0.471078
      3          7           0       -1.326714   -1.415886   -0.036444
      4          6           0        0.625794    0.064111    0.001357
      5          6           0        1.483807   -1.106081   -0.506307
      6          7           0        0.645498    0.045891    1.467362
      7          7           0        1.111873    1.370887   -0.490419
      8          1           0       -1.837274    1.077218    1.074044
      9          1           0       -1.366660    2.029565   -0.347125
     10          1           0       -2.758960    0.929494   -0.425524
     11          1           0       -0.826651   -0.104919   -1.571151
     12          1           0       -1.209316   -1.457625    0.974310
     13          1           0       -2.322742   -1.493270   -0.219945
     14          1           0        2.528227   -0.963218   -0.201440
     15          1           0        1.124922   -2.061949   -0.123194
     16          1           0        1.457535   -1.148864   -1.599380
     17          1           0        0.412880    0.974165    1.808097
     18          1           0        1.580226   -0.163307    1.804124
     19          1           0        1.034477    1.407202   -1.505326
     20          1           0        2.106175    1.447468   -0.287057
 ---------------------------------------------------------------------

 SCF Done:  E(RHF) =  -322.524762784     A.U. after    8 cycles

 The electronic state is 1-A.
 Alpha  occ. eigenvalues --  -15.53928 -15.53732 -15.52397 -11.28643 -11.24747
 Alpha  occ. eigenvalues --  -11.20780 -11.20350  -1.23561  -1.16292  -1.12264
 Alpha  occ. eigenvalues --   -0.98340  -0.96903  -0.85339  -0.75530  -0.67605
 Alpha  occ. eigenvalues --   -0.66299  -0.65096  -0.59645  -0.58665  -0.57727
 Alpha  occ. eigenvalues --   -0.54876  -0.54329  -0.53629  -0.51403  -0.48328
 Alpha  occ. eigenvalues --   -0.45891  -0.41206  -0.39771  -0.37667
 Alpha virt. eigenvalues --    0.03222   0.04091   0.04658   0.05135   0.06215
 Alpha virt. eigenvalues --    0.06804   0.06964   0.07337   0.07898   0.09409
 Alpha virt. eigenvalues --    0.09515   0.09537   0.11702   0.11942   0.12574

 Mulliken charges:
               1
     1  C   -0.577872
     2  C    0.064564
     3  N   -0.742404
     4  C    0.439874
     5  C   -0.550060
     6  N   -0.811225
     7  N   -0.766025
     8  H    0.162868
     9  H    0.189172
    10  H    0.158756
    11  H    0.137357
    12  H    0.320299
    13  H    0.278358
    14  H    0.147682
    15  H    0.202259
    16  H    0.161939
    17  H    0.316003
    18  H    0.288904
    19  H    0.293348
    20  H    0.286202
 Sum of Mulliken charges =  -0.00000

 Dipole moment (field-independent basis, Debye):
    X=              0.9351    Y=              0.8680    Z=             -0.3029  Tot=              1.3113
 Quadrupole moment (field-independent basis, Debye-Ang):
   XX=            -39.9434   YY=            -52.1698   ZZ=            -43.9810
   XY=              0.9294   XZ=              0.6760   YZ=             -0.7139

 Normal termination of Gaussian 09 at Fri Aug 26 05:53:11 2022.
