 Gaussian 09, Revision E.01,
 Gaussian 09:  ES64L-G09RevE.01 30-Nov-2015

 -----
 #P G4
 -----

 ---------
 Frag_1058
 ---------
 Symbolic Z-matrix:
 Charge =  0 Multiplicity = 1

 SCF Done:  E(RB3LYP) =  -379.513754847     A.U. after   14 cycles
 SCF Done:  E(RB3LYP) =  -379.529484139     A.U. after   13 cycles
 SCF Done:  E(RB3LYP) =  -379.530659313     A.U. after   12 cycles
 SCF Done:  E(RB3LYP) =  -379.531239636     A.U. after   11 cycles
 SCF Done:  E(RB3LYP) =  -379.532899034     A.U. after   13 cycles
 SCF Done:  E(RB3LYP) =  -379.536156515     A.U. after   13 cycles
 SCF Done:  E(RB3LYP) =  -379.540639847     A.U. after   12 cycles
 SCF Done:  E(RB3LYP) =  -379.542630485     A.U. after   12 cycles
 SCF Done:  E(RB3LYP) =  -379.544121438     A.U. after   13 cycles
 SCF Done:  E(RB3LYP) =  -379.542860294     A.U. after   12 cycles
 SCF Done:  E(RB3LYP) =  -379.545942340     A.U. after    8 cycles
 SCF Done:  E(RB3LYP) =  -379.545945203     A.U. after    8 cycles
 SCF Done:  E(RB3LYP) =  -379.545945633     A.U. after    7 cycles
 Optimization completed.
    -- Stationary point found.
 Normal termination of Gaussian 09 at Fri Aug 19 08:51:59 2022.

 ----------------------------------------------------------
 #P Geom=AllCheck Guess=TCheck SCRF=Check B3LYP/GTBas3 Freq
 ----------------------------------------------------------

 Structure from the checkpoint file:  "G4.Frag_1058.chk"
 ---------
 Frag_1058
 ---------
 Charge =  0 Multiplicity = 1

 SCF Done:  E(RB3LYP) =  -379.545945633     A.U. after    1 cycles

  Exact polarizability:  35.660  -0.790  41.658   0.263   0.940  28.429
 Approx polarizability:  49.225  -3.021  66.988   0.389   3.089  41.766

                      1                      2                      3
                      A                      A                      A
 Frequencies --     81.9020               271.3876               327.5397
 Red. masses --      7.8123                 5.3335                 2.8328
 Frc consts  --      0.0309                 0.2314                 0.1791
 IR Inten    --      4.9519                21.9006                35.7226

                      4                      5                      6
                      A                      A                      A
 Frequencies --    372.2025               449.8517               488.3895
 Red. masses --      1.4340                 1.9920                 2.0748
 Frc consts  --      0.1170                 0.2375                 0.2916
 IR Inten    --     60.4192                88.1361                 3.4759

                      7                      8                      9
                      A                      A                      A
 Frequencies --    544.6191               592.5907               703.9291
 Red. masses --      5.7427                 3.2316                 1.1372
 Frc consts  --      1.0036                 0.6686                 0.3320
 IR Inten    --      1.9303                39.0762                66.3489

                     10                     11                     12
                      A                      A                      A
 Frequencies --    762.0486               901.8362              1041.4105
 Red. masses --      5.8239                 5.4544                 3.8654
 Frc consts  --      1.9926                 2.6137                 2.4699
 IR Inten    --     15.4734                 5.1015               109.6970

                     13                     14                     15
                      A                      A                      A
 Frequencies --   1136.6022              1223.1476              1280.8928
 Red. masses --      3.5870                 2.3204                 1.3659
 Frc consts  --      2.7302                 2.0453                 1.3204
 IR Inten    --    170.1030                21.1070                20.5690

                     16                     17                     18
                      A                      A                      A
 Frequencies --   1304.4183              1369.9922              1420.4301
 Red. masses --      1.2466                 1.5457                 1.3053
 Frc consts  --      1.2497                 1.7093                 1.5517
 IR Inten    --      2.4537               508.1617                23.8147

                     19                     20                     21
                      A                      A                      A
 Frequencies --   1460.4550              1865.1254              2993.1617
 Red. masses --      1.6310                 9.7990                 1.0825
 Frc consts  --      2.0497                20.0840                 5.7138
 IR Inten    --     30.1432               212.4424                36.0553

                     22                     23                     24
                      A                      A                      A
 Frequencies --   3679.4343              3695.4595              3776.0333
 Red. masses --      1.0644                 1.0650                 1.0651
 Frc consts  --      8.4899                 8.5692                 8.9476
 IR Inten    --     95.5399               103.3829                41.6024

 - Thermochemistry -
 -------------------
 Temperature   298.150 Kelvin.  Pressure   1.00000 Atm.
 Atom     1 has atomic number  8 and mass  15.99491

 Molecular mass:    92.01096 amu.
 Principal axes and moments of inertia in atomic units:
                           1         2         3
     Eigenvalues --   343.89814 498.05734 798.75130
           X            0.99971   0.02383   0.00438
           Y           -0.02381   0.99971  -0.00378
           Z           -0.00447   0.00367   0.99998
 This molecule is an asymmetric top.
 Rotational symmetry number  1.
 Rotational temperatures (Kelvin)      0.25186     0.17390     0.10844
 Rotational constants (GHZ):           5.24789     3.62356     2.25945
 Zero-point vibrational energy     189864.5 (Joules/Mol)
                                   45.37870 (Kcal/Mol)
 Warning -- explicit consideration of   8 degrees of freedom as
           vibrations may cause significant error
 Vibrational temperatures:    117.84   390.47   471.26   535.52   647.24
          (Kelvin)            702.68   783.58   852.60  1012.80  1096.42
                             1297.54  1498.36  1635.31  1759.83  1842.92
                             1876.76  1971.11  2043.68  2101.27  2683.50
                             4306.49  5293.88  5316.94  5432.86

 Zero-point correction=                           0.072316 (Hartree/Particle)
 Thermal correction to Energy=                    0.078322
 Thermal correction to Enthalpy=                  0.079266
 Thermal correction to Gibbs Free Energy=         0.042621
 Sum of electronic and zero-point Energies=           -379.473630
 Sum of electronic and thermal Energies=              -379.467624
 Sum of electronic and thermal Enthalpies=            -379.466680
 Sum of electronic and thermal Free Energies=         -379.503324

                     E (Thermal)             CV                S
                      KCal/Mol        Cal/Mol-Kelvin    Cal/Mol-Kelvin
 Total                   49.148             21.069             77.125
 Electronic               0.000              0.000              0.000
 Translational            0.889              2.981             39.470
 Rotational               0.889              2.981             26.417
 Vibrational             47.370             15.108             11.238
 Vibration     1          0.600              1.962              3.845
 Vibration     2          0.675              1.726              1.587
 Vibration     3          0.711              1.620              1.272
 Vibration     4          0.744              1.529              1.071
 Vibration     5          0.809              1.361              0.796
 Vibration     6          0.844              1.276              0.688
 Vibration     7          0.900              1.151              0.555
 Vibration     8          0.950              1.048              0.463

 Optimization completed.
    -- Stationary point found.
 Normal termination of Gaussian 09 at Fri Aug 19 08:53:42 2022.

 -----------------------------------------------------------------
 #P Geom=AllCheck Guess=TCheck SCRF=Check CCSD(T,E4T,FrzG4)/GTBas1
 -----------------------------------------------------------------

 Structure from the checkpoint file:  "G4.Frag_1058.chk"
 ---------
 Frag_1058
 ---------
 Charge =  0 Multiplicity = 1

 SCF Done:  E(RHF) =  -377.507833729     A.U. after   14 cycles
 E2 =    -0.9661333639D+00 EUMP2 =    -0.37847396709315D+03
 CCSD(T)
 CCSD(T)= -0.37852449645D+03
 Normal termination of Gaussian 09 at Fri Aug 19 08:58:06 2022.

 ---------------------------------------------------------
 #P Geom=AllCheck Guess=TCheck SCRF=Check MP4=FrzG4/GTBas2
 ---------------------------------------------------------

 Structure from the checkpoint file:  "G4.Frag_1058.chk"
 ---------
 Frag_1058
 ---------
 Charge =  0 Multiplicity = 1

 SCF Done:  E(RHF) =  -377.521108732     A.U. after   12 cycles
 E2 =    -0.9836171706D+00 EUMP2 =    -0.37850472590274D+03
 Normal termination of Gaussian 09 at Fri Aug 19 09:02:25 2022.

 ---------------------------------------------------------
 #P Geom=AllCheck Guess=TCheck SCRF=Check MP4=FrzG4/GTBas3
 ---------------------------------------------------------

 Structure from the checkpoint file:  "G4.Frag_1058.chk"
 ---------
 Frag_1058
 ---------
 Charge =  0 Multiplicity = 1

 SCF Done:  E(RHF) =  -377.558806731     A.U. after   12 cycles
 E2 =    -0.1189817280D+01 EUMP2 =    -0.37874862401153D+03
 Normal termination of Gaussian 09 at Fri Aug 19 10:36:14 2022.

 -----------------------------------------------------------
 #P Geom=AllCheck Guess=TCheck SCRF=Check MP2=Full/GTLargeXP
 -----------------------------------------------------------

 Structure from the checkpoint file:  "G4.Frag_1058.chk"
 ---------
 Frag_1058
 ---------
 Charge =  0 Multiplicity = 1

 SCF Done:  E(RHF) =  -377.669593848     A.U. after   12 cycles
 E2 =    -0.1549068052D+01 EUMP2 =    -0.37921866189965D+03
 Normal termination of Gaussian 09 at Fri Aug 19 10:39:58 2022.
 SCF Done:  E(RHF) =  -377.700520515     A.U. after    9 cycles
 Normal termination of Gaussian 09 at Fri Aug 19 10:43:57 2022.

                         Standard orientation:
 ---------------------------------------------------------------------
 Center     Atomic      Atomic             Coordinates (Angstroms)
 Number     Number       Type             X           Y           Z
 ---------------------------------------------------------------------
      1          8           0       -1.306252    1.211541    0.123636
      2          6           0       -0.802352    0.133533   -0.058172
      3          8           0       -1.473244   -1.018087    0.012378
      4          6           0        0.698284   -0.017877   -0.394631
      5          8           0        1.388934    1.087268    0.075710
      6          8           0        1.202422   -1.222850    0.145632
      7          1           0       -0.812271   -1.730809   -0.030142
      8          1           0        0.804642   -0.132605   -1.484799
      9          1           0        0.711656    1.744291    0.305047
     10          1           0        1.425506   -1.037790    1.067860
 ---------------------------------------------------------------------

 SCF Done:  E(RHF) =  -377.707313291     A.U. after    8 cycles

 The electronic state is 1-A.
 Alpha  occ. eigenvalues --  -20.63135 -20.60802 -20.59401 -20.57205 -11.40550
 Alpha  occ. eigenvalues --  -11.38182  -1.49450  -1.44463  -1.39969  -1.36853
 Alpha  occ. eigenvalues --   -0.98455  -0.84946  -0.80951  -0.75644  -0.70864
 Alpha  occ. eigenvalues --   -0.68255  -0.65801  -0.63795  -0.59432  -0.56984
 Alpha  occ. eigenvalues --   -0.55685  -0.51655  -0.50523  -0.45499
 Alpha virt. eigenvalues --    0.03887   0.04436   0.04972   0.05454   0.07360
 Alpha virt. eigenvalues --    0.07570   0.07760   0.10220   0.11037   0.13258
 Alpha virt. eigenvalues --    0.13501   0.14631   0.15307   0.15660   0.15832

 Mulliken charges:
               1
     1  O   -0.543474
     2  C    0.549018
     3  O   -0.510846
     4  C    0.259205
     5  O   -0.598293
     6  O   -0.574096
     7  H    0.416488
     8  H    0.195909
     9  H    0.416434
    10  H    0.389654
 Sum of Mulliken charges =  -0.00000

 Dipole moment (field-independent basis, Debye):
    X=              1.3456    Y=             -1.7668    Z=              0.2077  Tot=              2.2306
 Quadrupole moment (field-independent basis, Debye-Ang):
   XX=            -43.5624   YY=            -34.6222   ZZ=            -30.4319
   XY=              1.6685   XZ=              2.1383   YZ=             -0.8381

 Normal termination of Gaussian 09 at Fri Aug 19 12:34:13 2022.
