 Gaussian 09, Revision E.01,
 Gaussian 09:  ES64L-G09RevE.01 30-Nov-2015

 -----
 #P G4
 -----

 --------
 Frag_644
 --------
 Symbolic Z-matrix:
 Charge =  0 Multiplicity = 1

 SCF Done:  E(RB3LYP) =  -280.491377882     A.U. after   14 cycles
 SCF Done:  E(RB3LYP) =  -280.549913334     A.U. after   11 cycles
 SCF Done:  E(RB3LYP) =  -280.503543854     A.U. after   13 cycles
 SCF Done:  E(RB3LYP) =  -280.564396022     A.U. after   10 cycles
 SCF Done:  E(RB3LYP) =  -280.566813033     A.U. after   12 cycles
 SCF Done:  E(RB3LYP) =  -280.568036290     A.U. after   12 cycles
 SCF Done:  E(RB3LYP) =  -280.568526322     A.U. after   11 cycles
 SCF Done:  E(RB3LYP) =  -280.483168732     A.U. after   13 cycles
 SCF Done:  E(RB3LYP) =  -280.568551686     A.U. after    8 cycles
 SCF Done:  E(RB3LYP) =  -280.572274736     A.U. after   12 cycles
 SCF Done:  E(RB3LYP) =  -280.576413276     A.U. after   10 cycles
 SCF Done:  E(RB3LYP) =  -280.576421084     A.U. after    8 cycles
 SCF Done:  E(RB3LYP) =  -280.576422011     A.U. after    7 cycles
 Optimization completed.
    -- Stationary point found.
 Normal termination of Gaussian 09 at Tue Aug 30 09:51:38 2022.

 ----------------------------------------------------------
 #P Geom=AllCheck Guess=TCheck SCRF=Check B3LYP/GTBas3 Freq
 ----------------------------------------------------------

 Structure from the checkpoint file:  "G4.Frag_644.chk"
 --------
 Frag_644
 --------
 Charge =  0 Multiplicity = 1

 SCF Done:  E(RB3LYP) =  -280.576422011     A.U. after    1 cycles

  Exact polarizability:  56.102   1.878  36.746  -1.860   0.349  22.843
 Approx polarizability:  80.824   7.848  55.987  -0.533   0.154  34.177

                      1                      2                      3
                      A                      A                      A
 Frequencies --    277.6818               298.7072               322.2026
 Red. masses --      3.0639                 3.4494                 1.1201
 Frc consts  --      0.1392                 0.1813                 0.0685
 IR Inten    --     24.3585                31.4063                41.2997

                      4                      5                      6
                      A                      A                      A
 Frequencies --    347.4327               457.1276               468.0996
 Red. masses --      1.1917                 1.9153                 1.4081
 Frc consts  --      0.0848                 0.2358                 0.1818
 IR Inten    --      7.2667                76.2770                88.2311

                      7                      8                      9
                      A                      A                      A
 Frequencies --    615.4564               657.1824               846.2034
 Red. masses --      5.0417                 4.3868                 1.5160
 Frc consts  --      1.1252                 1.1163                 0.6396
 IR Inten    --      9.5219                 0.7729                83.7816

                     10                     11                     12
                      A                      A                      A
 Frequencies --    862.9692               916.3229              1091.9242
 Red. masses --      2.1737                 4.0330                 1.7592
 Frc consts  --      0.9538                 1.9951                 1.2358
 IR Inten    --    269.9245                70.2085                73.9271

                     13                     14                     15
                      A                      A                      A
 Frequencies --   1190.5214              1244.0135              1341.9071
 Red. masses --      1.4710                 1.4931                 1.7120
 Frc consts  --      1.2284                 1.3615                 1.8163
 IR Inten    --     19.2734                27.1986                56.1329

                     16                     17                     18
                      A                      A                      A
 Frequencies --   1398.5870              1630.8274              1648.6438
 Red. masses --      2.3621                 1.1373                 1.0987
 Frc consts  --      2.7222                 1.7821                 1.7594
 IR Inten    --    146.1375                50.0298                 8.8877

                     19                     20                     21
                      A                      A                      A
 Frequencies --   1804.9027              3435.4414              3493.0699
 Red. masses --      6.6294                 1.0506                 1.0522
 Frc consts  --     12.7243                 7.3056                 7.5641
 IR Inten    --    139.2451                 4.3554                 3.5235

                     22                     23                     24
                      A                      A                      A
 Frequencies --   3572.8091              3605.3652              3797.3655
 Red. masses --      1.0916                 1.0897                 1.0653
 Frc consts  --      8.2097                 8.3452                 9.0504
 IR Inten    --      2.6383                17.0714                49.4082

 - Thermochemistry -
 -------------------
 Temperature   298.150 Kelvin.  Pressure   1.00000 Atm.
 Atom     1 has atomic number  7 and mass  14.00307

 Molecular mass:    75.04326 amu.
 Principal axes and moments of inertia in atomic units:
                           1         2         3
     Eigenvalues --   174.12529 426.93589 592.42258
           X            0.99961  -0.01790  -0.02139
           Y            0.01819   0.99975   0.01330
           Z            0.02115  -0.01369   0.99968
 This molecule is an asymmetric top.
 Rotational symmetry number  1.
 Rotational temperatures (Kelvin)      0.49742     0.20287     0.14620
 Rotational constants (GHZ):          10.36461     4.22719     3.04637
 Zero-point vibrational energy     211289.0 (Joules/Mol)
                                   50.49928 (Kcal/Mol)
 Warning -- explicit consideration of   7 degrees of freedom as
           vibrations may cause significant error
 Vibrational temperatures:    399.52   429.77   463.58   499.88   657.70
          (Kelvin)            673.49   885.50   945.54  1217.50  1241.62
                             1318.38  1571.03  1712.89  1789.86  1930.70
                             2012.25  2346.39  2372.03  2596.85  4942.83
                             5025.74  5140.47  5187.31  5463.56

 Zero-point correction=                           0.080476 (Hartree/Particle)
 Thermal correction to Energy=                    0.085985
 Thermal correction to Enthalpy=                  0.086930
 Thermal correction to Gibbs Free Energy=         0.052450
 Sum of electronic and zero-point Energies=           -280.495946
 Sum of electronic and thermal Energies=              -280.490437
 Sum of electronic and thermal Enthalpies=            -280.489493
 Sum of electronic and thermal Free Energies=         -280.523972

                     E (Thermal)             CV                S
                      KCal/Mol        Cal/Mol-Kelvin    Cal/Mol-Kelvin
 Total                   53.957             19.778             72.569
 Electronic               0.000              0.000              0.000
 Translational            0.889              2.981             38.862
 Rotational               0.889              2.981             25.291
 Vibrational             52.179             13.816              8.416
 Vibration     1          0.679              1.715              1.548
 Vibration     2          0.692              1.676              1.424
 Vibration     3          0.707              1.631              1.299
 Vibration     4          0.725              1.580              1.178
 Vibration     5          0.815              1.345              0.775
 Vibration     6          0.825              1.321              0.743
 Vibration     7          0.975              0.999              0.424

 Normal termination of Gaussian 09 at Tue Aug 30 09:51:57 2022.

 -----------------------------------------------------------------
 #P Geom=AllCheck Guess=TCheck SCRF=Check CCSD(T,E4T,FrzG4)/GTBas1
 -----------------------------------------------------------------

 Structure from the checkpoint file:  "G4.Frag_644.chk"
 --------
 Frag_644
 --------
 Charge =  0 Multiplicity = 1

 SCF Done:  E(RHF) =  -278.932343132     A.U. after   13 cycles
 E2 =    -0.7936298788D+00 EUMP2 =    -0.27972597301027D+03
 CCSD(T)
 CCSD(T)= -0.27978097700D+03
 Normal termination of Gaussian 09 at Tue Aug 30 09:52:49 2022.

 ---------------------------------------------------------
 #P Geom=AllCheck Guess=TCheck SCRF=Check MP4=FrzG4/GTBas2
 ---------------------------------------------------------

 Structure from the checkpoint file:  "G4.Frag_644.chk"
 --------
 Frag_644
 --------
 Charge =  0 Multiplicity = 1

 SCF Done:  E(RHF) =  -278.944353503     A.U. after   12 cycles
 E2 =    -0.8083482902D+00 EUMP2 =    -0.27975270179332D+03
 Normal termination of Gaussian 09 at Tue Aug 30 09:53:04 2022.

 ---------------------------------------------------------
 #P Geom=AllCheck Guess=TCheck SCRF=Check MP4=FrzG4/GTBas3
 ---------------------------------------------------------

 Structure from the checkpoint file:  "G4.Frag_644.chk"
 --------
 Frag_644
 --------
 Charge =  0 Multiplicity = 1

 SCF Done:  E(RHF) =  -278.974793833     A.U. after   11 cycles
 E2 =    -0.9631266273D+00 EUMP2 =    -0.27993792045998D+03
 Normal termination of Gaussian 09 at Tue Aug 30 09:54:12 2022.

 -----------------------------------------------------------
 #P Geom=AllCheck Guess=TCheck SCRF=Check MP2=Full/GTLargeXP
 -----------------------------------------------------------

 Structure from the checkpoint file:  "G4.Frag_644.chk"
 --------
 Frag_644
 --------
 Charge =  0 Multiplicity = 1

 SCF Done:  E(RHF) =  -279.054188444     A.U. after   12 cycles
 E2 =    -0.1253724390D+01 EUMP2 =    -0.28030791283454D+03
 Normal termination of Gaussian 09 at Tue Aug 30 09:54:55 2022.
 SCF Done:  E(RHF) =  -279.076526122     A.U. after    8 cycles
 Normal termination of Gaussian 09 at Tue Aug 30 09:55:39 2022.

                         Standard orientation:
 ---------------------------------------------------------------------
 Center     Atomic      Atomic             Coordinates (Angstroms)
 Number     Number       Type             X           Y           Z
 ---------------------------------------------------------------------
      1          7           0       -1.882775   -0.080727   -0.088848
      2          7           0       -0.655205   -0.761054   -0.049035
      3          6           0        0.393191   -0.048858   -0.019229
      4          7           0        1.677085   -0.599518    0.109798
      5          8           0        0.371088    1.317637   -0.042824
      6          1           0       -2.553495   -0.654423    0.409318
      7          1           0       -1.822154    0.830608    0.365242
      8          1           0        1.609903   -1.608234    0.177974
      9          1           0        2.279906   -0.355073   -0.671096
     10          1           0        1.184256    1.628266    0.373130
 ---------------------------------------------------------------------

 SCF Done:  E(RHF) =  -279.081306984     A.U. after    8 cycles

 The electronic state is 1-A.
 Alpha  occ. eigenvalues --  -20.60590 -15.58198 -15.56682 -15.56574 -11.35782
 Alpha  occ. eigenvalues --   -1.43753  -1.28208  -1.21179  -1.04925  -0.81554
 Alpha  occ. eigenvalues --   -0.75192  -0.72114  -0.66868  -0.64200  -0.61086
 Alpha  occ. eigenvalues --   -0.57175  -0.51128  -0.47308  -0.43924  -0.33166
 Alpha virt. eigenvalues --    0.03631   0.04963   0.05482   0.06032   0.08379
 Alpha virt. eigenvalues --    0.09023   0.09976   0.11883   0.12032   0.12364
 Alpha virt. eigenvalues --    0.13341   0.13606   0.15061   0.16226   0.16786

 Mulliken charges:
               1
     1  N   -0.580355
     2  N   -0.370454
     3  C    0.571975
     4  N   -0.706366
     5  O   -0.575009
     6  H    0.307807
     7  H    0.302574
     8  H    0.340451
     9  H    0.309857
    10  H    0.399520
 Sum of Mulliken charges =  -0.00000

 Dipole moment (field-independent basis, Debye):
    X=              2.4184    Y=              0.7043    Z=              1.0326  Tot=              2.7224
 Quadrupole moment (field-independent basis, Debye-Ang):
   XX=            -24.6440   YY=            -28.5677   ZZ=            -31.3562
   XY=              0.1005   XZ=             -5.6787   YZ=              1.3750

 Normal termination of Gaussian 09 at Tue Aug 30 10:00:16 2022.
