 Gaussian 09, Revision E.01,
 Gaussian 09:  ES64L-G09RevE.01 30-Nov-2015

 -----
 #P G4
 -----

 ---------
 Frag_1025
 ---------
 Symbolic Z-matrix:
 Charge =  0 Multiplicity = 1

 SCF Done:  E(RB3LYP) =  -285.536769173     A.U. after   13 cycles
 SCF Done:  E(RB3LYP) =  -285.550377580     A.U. after   13 cycles
 SCF Done:  E(RB3LYP) =  -285.552791709     A.U. after   12 cycles
 SCF Done:  E(RB3LYP) =  -285.553313348     A.U. after   11 cycles
 SCF Done:  E(RB3LYP) =  -285.553396427     A.U. after   10 cycles
 SCF Done:  E(RB3LYP) =  -285.553427579     A.U. after    9 cycles
 SCF Done:  E(RB3LYP) =  -285.553438414     A.U. after    9 cycles
 SCF Done:  E(RB3LYP) =  -285.553441223     A.U. after    8 cycles
 SCF Done:  E(RB3LYP) =  -285.553442192     A.U. after    8 cycles
 SCF Done:  E(RB3LYP) =  -285.553442428     A.U. after    7 cycles
 Optimization completed.
    -- Stationary point found.
 Normal termination of Gaussian 09 at Fri Aug 26 13:42:13 2022.

 ----------------------------------------------------------
 #P Geom=AllCheck Guess=TCheck SCRF=Check B3LYP/GTBas3 Freq
 ----------------------------------------------------------

 Structure from the checkpoint file:  "G4.Frag_1025.chk"
 ---------
 Frag_1025
 ---------
 Charge =  0 Multiplicity = 1

 SCF Done:  E(RB3LYP) =  -285.553442428     A.U. after    1 cycles

  Exact polarizability:  47.640  -2.957  37.736  -0.173  -1.117  35.279
 Approx polarizability:  62.719  -3.574  52.160  -2.033  -0.199  52.104

                      1                      2                      3
                      A                      A                      A
 Frequencies --    149.2300               193.9820               218.7137
 Red. masses --      4.7877                 1.0549                 1.1243
 Frc consts  --      0.0628                 0.0234                 0.0317
 IR Inten    --      4.2469                 0.2653               128.9076

                      4                      5                      6
                      A                      A                      A
 Frequencies --    281.6881               352.6833               398.7175
 Red. masses --      3.3361                 1.6259                 1.4675
 Frc consts  --      0.1560                 0.1192                 0.1375
 IR Inten    --      0.7541                22.2768                18.6390

                      7                      8                      9
                      A                      A                      A
 Frequencies --    517.9764               535.6013               828.1557
 Red. masses --      2.5738                 3.3019                 2.6922
 Frc consts  --      0.4069                 0.5581                 1.0879
 IR Inten    --     23.0909                26.4999                 2.8673

                     10                     11                     12
                      A                      A                      A
 Frequencies --    847.0517               911.0901               958.8766
 Red. masses --      1.7051                 2.1663                11.3674
 Frc consts  --      0.7208                 1.0595                 6.1579
 IR Inten    --    185.8235                 6.6167                 3.1068

                     13                     14                     15
                      A                      A                      A
 Frequencies --   1013.7810              1101.9080              1178.8072
 Red. masses --      1.3190                 1.9526                 2.0328
 Frc consts  --      0.7987                 1.3969                 1.6643
 IR Inten    --      3.3627                70.1124                29.2480

                     16                     17                     18
                      A                      A                      A
 Frequencies --   1273.1091              1344.9333              1385.3282
 Red. masses --      1.7096                 1.1990                 1.1691
 Frc consts  --      1.6326                 1.2779                 1.3219
 IR Inten    --     12.2350                52.2780                22.9465

                     19                     20                     21
                      A                      A                      A
 Frequencies --   1402.1799              1442.6733              1483.9204
 Red. masses --      1.2082                 1.4959                 1.0501
 Frc consts  --      1.3995                 1.8344                 1.3624
 IR Inten    --      0.7202                12.6336                 3.2767

                     22                     23                     24
                      A                      A                      A
 Frequencies --   1492.3086              1663.3361              3042.9381
 Red. masses --      1.0470                 1.0988                 1.0785
 Frc consts  --      1.3738                 1.7912                 5.8837
 IR Inten    --      1.4979                23.3720                17.3664

                     25                     26                     27
                      A                      A                      A
 Frequencies --   3050.4880              3123.4348              3146.9672
 Red. masses --      1.0436                 1.0977                 1.1031
 Frc consts  --      5.7218                 6.3098                 6.4368
 IR Inten    --     21.4269                22.0989                11.6056

                     28                     29                     30
                      A                      A                      A
 Frequencies --   3493.6997              3584.8442              3766.4911
 Red. masses --      1.0488                 1.0918                 1.0685
 Frc consts  --      7.5428                 8.2667                 8.9313
 IR Inten    --      0.3054                 1.9539                29.6436

 - Thermochemistry -
 -------------------
 Temperature   298.150 Kelvin.  Pressure   1.00000 Atm.
 Atom     1 has atomic number  6 and mass  12.00000

 Molecular mass:    77.04768 amu.
 Principal axes and moments of inertia in atomic units:
                           1         2         3
     Eigenvalues --   217.56822 462.39813 620.18531
           X            0.99777  -0.06633   0.00713
           Y            0.06650   0.99743  -0.02659
           Z           -0.00535   0.02701   0.99962
 This molecule is an asymmetric top.
 Rotational symmetry number  1.
 Rotational temperatures (Kelvin)      0.39810     0.18731     0.13966
 Rotational constants (GHZ):           8.29506     3.90300     2.91000
 Zero-point vibrational energy     264284.5 (Joules/Mol)
                                   63.16551 (Kcal/Mol)
 Warning -- explicit consideration of   8 degrees of freedom as
           vibrations may cause significant error
 Vibrational temperatures:    214.71   279.10   314.68   405.29   507.43
          (Kelvin)            573.66   745.25   770.61  1191.53  1218.72
                             1310.85  1379.61  1458.60  1585.40  1696.04
                             1831.72  1935.06  1993.18  2017.42  2075.68
                             2135.03  2147.10  2393.17  4378.10  4388.97
                             4493.92  4527.78  5026.65  5157.78  5419.13

 Zero-point correction=                           0.100661 (Hartree/Particle)
 Thermal correction to Energy=                    0.107128
 Thermal correction to Enthalpy=                  0.108072
 Thermal correction to Gibbs Free Energy=         0.071399
 Sum of electronic and zero-point Energies=           -285.452782
 Sum of electronic and thermal Energies=              -285.446314
 Sum of electronic and thermal Enthalpies=            -285.445370
 Sum of electronic and thermal Free Energies=         -285.482044

                     E (Thermal)             CV                S
                      KCal/Mol        Cal/Mol-Kelvin    Cal/Mol-Kelvin
 Total                   67.224             22.404             77.187
 Electronic               0.000              0.000              0.000
 Translational            0.889              2.981             38.941
 Rotational               0.889              2.981             25.637
 Vibrational             65.447             16.443             12.609
 Vibration     1          0.618              1.904              2.682
 Vibration     2          0.635              1.848              2.189
 Vibration     3          0.646              1.813              1.970
 Vibration     4          0.681              1.708              1.523
 Vibration     5          0.729              1.570              1.154
 Vibration     6          0.765              1.473              0.967
 Vibration     7          0.873              1.210              0.615
 Vibration     8          0.891              1.171              0.575

 Optimization completed.
    -- Stationary point found.
 Normal termination of Gaussian 09 at Fri Aug 26 13:42:33 2022.

 -----------------------------------------------------------------
 #P Geom=AllCheck Guess=TCheck SCRF=Check CCSD(T,E4T,FrzG4)/GTBas1
 -----------------------------------------------------------------

 Structure from the checkpoint file:  "G4.Frag_1025.chk"
 ---------
 Frag_1025
 ---------
 Charge =  0 Multiplicity = 1

 SCF Done:  E(RHF) =  -283.867678488     A.U. after   13 cycles
 E2 =    -0.7923316489D+00 EUMP2 =    -0.28466001013642D+03
 CCSD(T)
 CCSD(T)= -0.28472424612D+03
 \CCSD=-284.7016076\CCSD(T)=-284.7242461\RMSD=6.030e-09\PG=C01 [X(C2H7N
 Normal termination of Gaussian 09 at Fri Aug 26 13:43:35 2022.

 ---------------------------------------------------------
 #P Geom=AllCheck Guess=TCheck SCRF=Check MP4=FrzG4/GTBas2
 ---------------------------------------------------------

 Structure from the checkpoint file:  "G4.Frag_1025.chk"
 ---------
 Frag_1025
 ---------
 Charge =  0 Multiplicity = 1

 SCF Done:  E(RHF) =  -283.876934923     A.U. after   12 cycles
 E2 =    -0.8067234171D+00 EUMP2 =    -0.28468365833957D+03
 Normal termination of Gaussian 09 at Fri Aug 26 13:43:53 2022.

 ---------------------------------------------------------
 #P Geom=AllCheck Guess=TCheck SCRF=Check MP4=FrzG4/GTBas3
 ---------------------------------------------------------

 Structure from the checkpoint file:  "G4.Frag_1025.chk"
 ---------
 Frag_1025
 ---------
 Charge =  0 Multiplicity = 1

 SCF Done:  E(RHF) =  -283.905240787     A.U. after   12 cycles
 E2 =    -0.9813864251D+00 EUMP2 =    -0.28488662721183D+03
 Normal termination of Gaussian 09 at Fri Aug 26 13:45:23 2022.

 -----------------------------------------------------------
 #P Geom=AllCheck Guess=TCheck SCRF=Check MP2=Full/GTLargeXP
 -----------------------------------------------------------

 Structure from the checkpoint file:  "G4.Frag_1025.chk"
 ---------
 Frag_1025
 ---------
 Charge =  0 Multiplicity = 1

 SCF Done:  E(RHF) =  -283.984026361     A.U. after   12 cycles
 E2 =    -0.1275310351D+01 EUMP2 =    -0.28525933671251D+03
 Normal termination of Gaussian 09 at Fri Aug 26 13:46:17 2022.
 SCF Done:  E(RHF) =  -284.008374997     A.U. after    9 cycles
 Normal termination of Gaussian 09 at Fri Aug 26 13:47:21 2022.

                         Standard orientation:
 ---------------------------------------------------------------------
 Center     Atomic      Atomic             Coordinates (Angstroms)
 Number     Number       Type             X           Y           Z
 ---------------------------------------------------------------------
      1          6           0        1.707421   -0.654448   -0.031086
      2          6           0        0.414201    0.058430    0.338274
      3          7           0        0.437184    1.440983   -0.051196
      4          8           0       -0.613705   -0.734077   -0.291577
      5          8           0       -1.883709   -0.212198    0.166558
      6          1           0        1.670129   -1.701176    0.277229
      7          1           0        1.867247   -0.619671   -1.113903
      8          1           0        2.547746   -0.160709    0.460580
      9          1           0        0.237493    0.018923    1.419834
     10          1           0       -0.444367    1.879005    0.194135
     11          1           0        0.559134    1.524490   -1.056858
     12          1           0       -2.248087    0.118565   -0.665619
 ---------------------------------------------------------------------

 SCF Done:  E(RHF) =  -284.013535623     A.U. after    8 cycles

 The electronic state is 1-A.
 Alpha  occ. eigenvalues --  -20.62088 -20.61755 -15.55063 -11.31429 -11.22204
 Alpha  occ. eigenvalues --   -1.47343  -1.24521  -1.16754  -0.98894  -0.82764
 Alpha  occ. eigenvalues --   -0.72799  -0.67762  -0.67238  -0.64673  -0.59332
 Alpha  occ. eigenvalues --   -0.54576  -0.53167  -0.51125  -0.49431  -0.46681
 Alpha  occ. eigenvalues --   -0.42101
 Alpha virt. eigenvalues --    0.04059   0.04292   0.05293   0.05972   0.07593
 Alpha virt. eigenvalues --    0.07905   0.08509   0.10429   0.10650   0.12273
 Alpha virt. eigenvalues --    0.12781   0.13822   0.14868   0.15978   0.16770

 Mulliken charges:
               1
     1  C   -0.503694
     2  C    0.188119
     3  N   -0.724388
     4  O   -0.221012
     5  O   -0.446348
     6  H    0.187634
     7  H    0.164678
     8  H    0.194784
     9  H    0.166903
    10  H    0.307947
    11  H    0.292205
    12  H    0.393173
 Sum of Mulliken charges =  -0.00000

 Dipole moment (field-independent basis, Debye):
    X=             -0.0485    Y=              1.0206    Z=             -1.3016  Tot=              1.6547
 Quadrupole moment (field-independent basis, Debye-Ang):
   XX=            -29.7881   YY=            -33.1493   ZZ=            -28.9552
   XY=             -5.0495   XZ=              2.3938   YZ=             -2.2600

 Normal termination of Gaussian 09 at Fri Aug 26 13:53:43 2022.
