 Gaussian 09, Revision E.01,
 Gaussian 09:  ES64L-G09RevE.01 30-Nov-2015

 -----
 #P G4
 -----

 --------
 Frag_470
 --------
 Symbolic Z-matrix:
 Charge =  0 Multiplicity = 1

 SCF Done:  E(RB3LYP) =  -289.021733459     A.U. after   12 cycles
 SCF Done:  E(RB3LYP) =  -289.026526655     A.U. after   10 cycles
 SCF Done:  E(RB3LYP) =  -289.027320398     A.U. after   10 cycles
 SCF Done:  E(RB3LYP) =  -289.027571458     A.U. after   10 cycles
 SCF Done:  E(RB3LYP) =  -289.027672293     A.U. after   10 cycles
 SCF Done:  E(RB3LYP) =  -289.027687801     A.U. after    8 cycles
 SCF Done:  E(RB3LYP) =  -289.027689160     A.U. after    7 cycles
 Optimization completed.
    -- Stationary point found.
 Normal termination of Gaussian 09 at Fri Aug 26 13:52:45 2022.

 ----------------------------------------------------------
 #P Geom=AllCheck Guess=TCheck SCRF=Check B3LYP/GTBas3 Freq
 ----------------------------------------------------------

 Structure from the checkpoint file:  "G4.Frag_470.chk"
 --------
 Frag_470
 --------
 Charge =  0 Multiplicity = 1

 SCF Done:  E(RB3LYP) =  -289.027689160     A.U. after    1 cycles

  Exact polarizability:  64.231   0.266  59.369  -1.280  -0.750  49.167
 Approx polarizability:  81.217   2.490  79.142  -2.206   0.207  75.354

                      1                      2                      3
                      A                      A                      A
 Frequencies --     84.8706               212.4947               221.2073
 Red. masses --      2.9075                 1.0709                 1.1088
 Frc consts  --      0.0123                 0.0285                 0.0320
 IR Inten    --      0.1697                78.9822                 4.8466

                      4                      5                      6
                      A                      A                      A
 Frequencies --    229.1931               246.6767               304.0693
 Red. masses --      1.1565                 1.3169                 2.2803
 Frc consts  --      0.0358                 0.0472                 0.1242
 IR Inten    --      4.1930                 2.5213                 5.7298

                      7                      8                      9
                      A                      A                      A
 Frequencies --    332.2825               413.6584               443.8721
 Red. masses --      1.9459                 2.2761                 2.2399
 Frc consts  --      0.1266                 0.2295                 0.2600
 IR Inten    --      1.7577                 1.9425                 0.8179

                     10                     11                     12
                      A                      A                      A
 Frequencies --    491.2666               549.9078               785.1691
 Red. masses --      3.1403                 3.0505                 2.4747
 Frc consts  --      0.4465                 0.5435                 0.8989
 IR Inten    --      4.0937                 9.8526                12.7622

                     13                     14                     15
                      A                      A                      A
 Frequencies --    910.9945               994.1387              1056.4422
 Red. masses --      2.4180                 1.9965                 1.6228
 Frc consts  --      1.1823                 1.1625                 1.0671
 IR Inten    --     15.5862                42.4136                24.3722

                     16                     17                     18
                      A                      A                      A
 Frequencies --   1070.6248              1096.8404              1130.5134
 Red. masses --      1.4172                 2.3712                 1.5098
 Frc consts  --      0.9571                 1.6808                 1.1369
 IR Inten    --     19.1893                23.5125                 2.4146

                     19                     20                     21
                      A                      A                      A
 Frequencies --   1139.9579              1174.8571              1249.3342
 Red. masses --      2.1879                 1.3427                 1.8062
 Frc consts  --      1.6752                 1.0919                 1.6611
 IR Inten    --     48.4418                18.8219                19.1416

                     22                     23                     24
                      A                      A                      A
 Frequencies --   1269.4006              1330.1630              1384.5105
 Red. masses --      2.0097                 1.9274                 1.2962
 Frc consts  --      1.9080                 2.0092                 1.4639
 IR Inten    --    105.3623                12.9254                14.4741

                     25                     26                     27
                      A                      A                      A
 Frequencies --   1406.9655              1410.2999              1439.2114
 Red. masses --      1.3858                 1.3061                 1.1638
 Frc consts  --      1.6163                 1.5306                 1.4202
 IR Inten    --     50.6491                11.3057                 4.6846

                     28                     29                     30
                      A                      A                      A
 Frequencies --   1471.3533              1484.0412              1488.4187
 Red. masses --      1.1526                 1.0462                 1.0501
 Frc consts  --      1.4701                 1.3575                 1.3706
 IR Inten    --      7.6911                 8.3802                10.5734

                     31                     32                     33
                      A                      A                      A
 Frequencies --   1500.3081              1505.5485              1509.1837
 Red. masses --      1.0571                 1.0746                 1.0823
 Frc consts  --      1.4020                 1.4351                 1.4524
 IR Inten    --      0.4980                 8.0881                 1.0569

                     34                     35                     36
                      A                      A                      A
 Frequencies --   1520.0678              2821.3962              2910.0276
 Red. masses --      1.0672                 1.0793                 1.0621
 Frc consts  --      1.4529                 5.0621                 5.2990
 IR Inten    --     11.6862                94.1852                40.2067

                     37                     38                     39
                      A                      A                      A
 Frequencies --   2920.4064              3044.0206              3074.6995
 Red. masses --      1.0629                 1.0350                 1.0734
 Frc consts  --      5.3412                 5.6505                 5.9787
 IR Inten    --    140.4684                12.8185                10.5653

                     40                     41                     42
                      A                      A                      A
 Frequencies --   3078.2548              3112.4996              3125.0307
 Red. masses --      1.0718                 1.1013                 1.1005
 Frc consts  --      5.9836                 6.2862                 6.3321
 IR Inten    --     52.8709                31.0514                21.3922

                     43                     44                     45
                      A                      A                      A
 Frequencies --   3132.1407              3154.4753              3833.6626
 Red. masses --      1.1015                 1.0965                 1.0660
 Frc consts  --      6.3667                 6.4288                 9.2311
 IR Inten    --     21.2870                 9.7501                20.2249

 - Thermochemistry -
 -------------------
 Temperature   298.150 Kelvin.  Pressure   1.00000 Atm.
 Atom     1 has atomic number  6 and mass  12.00000

 Molecular mass:    89.08406 amu.
 Principal axes and moments of inertia in atomic units:
                           1         2         3
     Eigenvalues --   390.25210 559.70676 878.25183
           X            0.99766  -0.06827  -0.00268
           Y            0.06822   0.99756  -0.01506
           Z            0.00370   0.01484   0.99988
 This molecule is an asymmetric top.
 Rotational symmetry number  1.
 Rotational temperatures (Kelvin)      0.22194     0.15475     0.09862
 Rotational constants (GHZ):           4.62455     3.22444     2.05492
 Zero-point vibrational energy     401134.5 (Joules/Mol)
                                   95.87345 (Kcal/Mol)
 Warning -- explicit consideration of  11 degrees of freedom as
           vibrations may cause significant error
 Vibrational temperatures:    122.11   305.73   318.27   329.76   354.91
          (Kelvin)            437.49   478.08   595.16   638.63   706.82
                              791.19  1129.68  1310.72  1430.34  1519.98
                             1540.39  1578.11  1626.55  1640.14  1690.36
                             1797.51  1826.38  1913.81  1992.00  2024.31
                             2029.10  2070.70  2116.95  2135.20  2141.50
                             2158.61  2166.15  2171.38  2187.04  4059.35
                             4186.88  4201.81  4379.66  4423.80  4428.92
                             4478.19  4496.22  4506.45  4538.58  5515.78

 Zero-point correction=                           0.152784 (Hartree/Particle)
 Thermal correction to Energy=                    0.160657
 Thermal correction to Enthalpy=                  0.161601
 Thermal correction to Gibbs Free Energy=         0.121613
 Sum of electronic and zero-point Energies=           -288.874905
 Sum of electronic and thermal Energies=              -288.867032
 Sum of electronic and thermal Enthalpies=            -288.866088
 Sum of electronic and thermal Free Energies=         -288.906076

                     E (Thermal)             CV                S
                      KCal/Mol        Cal/Mol-Kelvin    Cal/Mol-Kelvin
 Total                  100.814             28.209             84.161
 Electronic               0.000              0.000              0.000
 Translational            0.889              2.981             39.374
 Rotational               0.889              2.981             26.753
 Vibrational             99.036             22.248             18.035
 Vibration     1          0.601              1.960              3.775
 Vibration     2          0.644              1.822              2.022
 Vibration     3          0.648              1.809              1.949
 Vibration     4          0.652              1.796              1.885
 Vibration     5          0.661              1.768              1.754
 Vibration     6          0.695              1.666              1.394
 Vibration     7          0.714              1.611              1.249
 Vibration     8          0.777              1.441              0.914
 Vibration     9          0.803              1.374              0.815
 Vibration    10          0.847              1.269              0.680
 Vibration    11          0.905              1.140              0.544

 Normal termination of Gaussian 09 at Fri Aug 26 13:53:24 2022.

 -----------------------------------------------------------------
 #P Geom=AllCheck Guess=TCheck SCRF=Check CCSD(T,E4T,FrzG4)/GTBas1
 -----------------------------------------------------------------

 Structure from the checkpoint file:  "G4.Frag_470.chk"
 --------
 Frag_470
 --------
 Charge =  0 Multiplicity = 1

 SCF Done:  E(RHF) =  -287.154411331     A.U. after   11 cycles
 E2 =    -0.8713455674D+00 EUMP2 =    -0.28802575689838D+03
 CCSD(T)
 CCSD(T)= -0.28811328196D+03
 -288.086258\CCSD=-288.0872671\CCSD(T)=-288.113282\RMSD=7.987e-09\PG=C0
 Normal termination of Gaussian 09 at Fri Aug 26 13:55:55 2022.

 ---------------------------------------------------------
 #P Geom=AllCheck Guess=TCheck SCRF=Check MP4=FrzG4/GTBas2
 ---------------------------------------------------------

 Structure from the checkpoint file:  "G4.Frag_470.chk"
 --------
 Frag_470
 --------
 Charge =  0 Multiplicity = 1

 SCF Done:  E(RHF) =  -287.162459933     A.U. after   11 cycles
 E2 =    -0.8849976897D+00 EUMP2 =    -0.28804745762241D+03
 Normal termination of Gaussian 09 at Fri Aug 26 13:56:47 2022.

 ---------------------------------------------------------
 #P Geom=AllCheck Guess=TCheck SCRF=Check MP4=FrzG4/GTBas3
 ---------------------------------------------------------

 Structure from the checkpoint file:  "G4.Frag_470.chk"
 --------
 Frag_470
 --------
 Charge =  0 Multiplicity = 1

 SCF Done:  E(RHF) =  -287.193927991     A.U. after   11 cycles
 E2 =    -0.1087574517D+01 EUMP2 =    -0.28828150250720D+03
 Normal termination of Gaussian 09 at Fri Aug 26 14:01:46 2022.

 -----------------------------------------------------------
 #P Geom=AllCheck Guess=TCheck SCRF=Check MP2=Full/GTLargeXP
 -----------------------------------------------------------

 Structure from the checkpoint file:  "G4.Frag_470.chk"
 --------
 Frag_470
 --------
 Charge =  0 Multiplicity = 1

 SCF Done:  E(RHF) =  -287.265258506     A.U. after   11 cycles
 E2 =    -0.1422752042D+01 EUMP2 =    -0.28868801054780D+03
 Normal termination of Gaussian 09 at Fri Aug 26 14:04:05 2022.
 SCF Done:  E(RHF) =  -287.288065649     A.U. after    8 cycles
 Normal termination of Gaussian 09 at Fri Aug 26 14:06:45 2022.

                         Standard orientation:
 ---------------------------------------------------------------------
 Center     Atomic      Atomic             Coordinates (Angstroms)
 Number     Number       Type             X           Y           Z
 ---------------------------------------------------------------------
      1          6           0       -1.591521    1.068508   -0.022886
      2          6           0       -0.665814   -0.105901    0.297859
      3          8           0       -1.208333   -1.308527   -0.239049
      4          7           0        0.651928    0.032065   -0.291699
      5          6           0        1.295208    1.309043   -0.025910
      6          6           0        1.525769   -1.078122    0.071197
      7          1           0       -1.298229    1.987528    0.491090
      8          1           0       -1.609112    1.243850   -1.102159
      9          1           0       -2.605386    0.817819    0.303466
     10          1           0       -0.590852   -0.209845    1.405158
     11          1           0       -1.905032   -1.602522    0.355290
     12          1           0        0.725887    2.135535   -0.455237
     13          1           0        2.282392    1.309391   -0.497078
     14          1           0        1.443129    1.512750    1.053208
     15          1           0        1.786592   -1.082302    1.147996
     16          1           0        1.035423   -2.020617   -0.169292
     17          1           0        2.456504   -1.008991   -0.499721
 ---------------------------------------------------------------------

 SCF Done:  E(RHF) =  -287.293092980     A.U. after    8 cycles

 The electronic state is 1-A.
 Alpha  occ. eigenvalues --  -20.55265 -15.54384 -11.30912 -11.24271 -11.23291
 Alpha  occ. eigenvalues --  -11.21536  -1.36871  -1.21592  -1.00475  -0.94581
 Alpha  occ. eigenvalues --   -0.88554  -0.78003  -0.71200  -0.65623  -0.63240
 Alpha  occ. eigenvalues --   -0.60112  -0.57019  -0.55307  -0.54579  -0.53361
 Alpha  occ. eigenvalues --   -0.51993  -0.50091  -0.49360  -0.44264  -0.35592
 Alpha virt. eigenvalues --    0.03524   0.03970   0.04154   0.05115   0.05949
 Alpha virt. eigenvalues --    0.06845   0.07313   0.07375   0.08618   0.09415
 Alpha virt. eigenvalues --    0.09636   0.10412   0.11221   0.13671   0.14130

 Mulliken charges:
               1
     1  C   -0.534919
     2  C    0.114148
     3  O   -0.585456
     4  N    0.019076
     5  C   -0.486590
     6  C   -0.518395
     7  H    0.170984
     8  H    0.188624
     9  H    0.155530
    10  H    0.123916
    11  H    0.363125
    12  H    0.172325
    13  H    0.172299
    14  H    0.138411
    15  H    0.131390
    16  H    0.210728
    17  H    0.164804
 Sum of Mulliken charges =  -0.00000

 Dipole moment (field-independent basis, Debye):
    X=             -0.4054    Y=              0.8140    Z=              1.9735  Tot=              2.1729
 Quadrupole moment (field-independent basis, Debye-Ang):
   XX=            -35.5776   YY=            -38.8570   ZZ=            -41.0966
   XY=              0.9101   XZ=             -2.5558   YZ=             -2.3257

 Normal termination of Gaussian 09 at Fri Aug 26 14:16:10 2022.
