 Gaussian 09, Revision E.01,
 Gaussian 09:  ES64L-G09RevE.01 30-Nov-2015

 -----
 #P G4
 -----

 --------
 Frag_948
 --------
 Symbolic Z-matrix:
 Charge =  0 Multiplicity = 1

 SCF Done:  E(RB3LYP) =  -459.362184756     A.U. after   12 cycles
 SCF Done:  E(RB3LYP) =  -459.371241401     A.U. after   11 cycles
 SCF Done:  E(RB3LYP) =  -459.373671169     A.U. after   11 cycles
 SCF Done:  E(RB3LYP) =  -459.374927907     A.U. after   11 cycles
 SCF Done:  E(RB3LYP) =  -459.375023079     A.U. after   10 cycles
 SCF Done:  E(RB3LYP) =  -459.375186252     A.U. after   10 cycles
 SCF Done:  E(RB3LYP) =  -459.375305895     A.U. after    9 cycles
 SCF Done:  E(RB3LYP) =  -459.375425902     A.U. after   10 cycles
 SCF Done:  E(RB3LYP) =  -459.375522057     A.U. after   10 cycles
 SCF Done:  E(RB3LYP) =  -459.375622158     A.U. after   11 cycles
 SCF Done:  E(RB3LYP) =  -459.378033585     A.U. after    8 cycles
 SCF Done:  E(RB3LYP) =  -459.378037337     A.U. after    9 cycles
 SCF Done:  E(RB3LYP) =  -459.378037696     A.U. after    7 cycles
 Optimization completed.
    -- Stationary point found.
 Normal termination of Gaussian 09 at Fri Aug 26 05:36:19 2022.

 ----------------------------------------------------------
 #P Geom=AllCheck Guess=TCheck SCRF=Check B3LYP/GTBas3 Freq
 ----------------------------------------------------------

 Structure from the checkpoint file:  "G4.Frag_948.chk"
 --------
 Frag_948
 --------
 Charge =  0 Multiplicity = 1

 SCF Done:  E(RB3LYP) =  -459.378037696     A.U. after    1 cycles

  Exact polarizability:  64.312   0.001  58.198   0.447   0.001  56.147
 Approx polarizability:  85.293   0.003  82.191   0.565   0.003  82.905

                      1                      2                      3
                      A                      A                      A
 Frequencies --     69.4335               124.7325               209.6414
 Red. masses --      4.6321                 1.1792                 1.1553
 Frc consts  --      0.0132                 0.0108                 0.0299
 IR Inten    --      0.3092               146.8532                 0.0018

                      4                      5                      6
                      A                      A                      A
 Frequencies --    231.4740               276.1127               281.4401
 Red. masses --      1.0335                 2.7122                 4.0182
 Frc consts  --      0.0326                 0.1218                 0.1875
 IR Inten    --      1.3527                 2.0250                16.5427

                      7                      8                      9
                      A                      A                      A
 Frequencies --    332.1278               338.6746               358.2816
 Red. masses --      1.1120                 2.0561                 3.9312
 Frc consts  --      0.0723                 0.1390                 0.2973
 IR Inten    --    118.1099                 1.3366                28.5258

                     10                     11                     12
                      A                      A                      A
 Frequencies --    380.1028               390.7930               447.5307
 Red. masses --      3.6377                 1.7134                 2.0600
 Frc consts  --      0.3097                 0.1542                 0.2431
 IR Inten    --      0.2471                20.3947                32.8310

                     13                     14                     15
                      A                      A                      A
 Frequencies --    458.0750               552.8858               563.3250
 Red. masses --      4.0227                 3.9729                 3.8748
 Frc consts  --      0.4973                 0.7155                 0.7245
 IR Inten    --     34.9112                43.9864                 9.2405

                     16                     17                     18
                      A                      A                      A
 Frequencies --    593.0937               668.6192               710.1031
 Red. masses --      3.2210                 1.1465                 3.1869
 Frc consts  --      0.6676                 0.3020                 0.9468
 IR Inten    --     74.3495                 8.0818                 0.1399

                     19                     20                     21
                      A                      A                      A
 Frequencies --    895.5138               932.8414               946.6844
 Red. masses --      3.1780                 1.9571                 2.0675
 Frc consts  --      1.5016                 1.0034                 1.0917
 IR Inten    --     42.2410                 0.0719                61.0581

                     22                     23                     24
                      A                      A                      A
 Frequencies --    953.6296              1052.7436              1075.7861
 Red. masses --      2.0402                 1.7331                 1.8195
 Frc consts  --      1.0932                 1.1317                 1.2407
 IR Inten    --     44.2950                 0.9978                86.3494

                     25                     26                     27
                      A                      A                      A
 Frequencies --   1089.3343              1159.2370              1178.7321
 Red. masses --      1.9525                 2.0838                 2.7863
 Frc consts  --      1.3651                 1.6499                 2.2809
 IR Inten    --    223.0789               108.9443                45.2573

                     28                     29                     30
                      A                      A                      A
 Frequencies --   1199.8604              1340.5280              1364.3550
 Red. masses --      3.1024                 1.4463                 1.4710
 Frc consts  --      2.6316                 1.5313                 1.6133
 IR Inten    --     44.5847                74.0429                13.8243

                     31                     32                     33
                      A                      A                      A
 Frequencies --   1370.5866              1413.7570              1419.4661
 Red. masses --      1.4138                 1.3461                 1.5463
 Frc consts  --      1.5648                 1.5852                 1.8357
 IR Inten    --     47.2913                20.8989                78.7785

                     34                     35                     36
                      A                      A                      A
 Frequencies --   1429.6083              1477.7725              1480.1278
 Red. masses --      1.7874                 1.0518                 1.0584
 Frc consts  --      2.1523                 1.3533                 1.3662
 IR Inten    --      7.8290                 1.7197                 1.0742

                     37                     38                     39
                      A                      A                      A
 Frequencies --   1491.1734              1504.4030              3048.3538
 Red. masses --      1.0503                 1.1515                 1.0408
 Frc consts  --      1.3761                 1.5354                 5.6986
 IR Inten    --      9.0012                 0.1436                27.0677

                     40                     41                     42
                      A                      A                      A
 Frequencies --   3050.0783              3122.5780              3125.5566
 Red. masses --      1.0416                 1.0975                 1.0961
 Frc consts  --      5.7091                 6.3051                 6.3089
 IR Inten    --      7.0364                29.9836                11.3277

                     43                     44                     45
                      A                      A                      A
 Frequencies --   3164.0826              3164.8207              3772.3783
 Red. masses --      1.1001                 1.1006                 1.0645
 Frc consts  --      6.4888                 6.4950                 8.9250
 IR Inten    --     10.7429                 5.0173                31.0080

                     46                     47                     48
                      A                      A                      A
 Frequencies --   3773.4633              3801.5147              3802.8820
 Red. masses --      1.0648                 1.0656                 1.0656
 Frc consts  --      8.9327                 9.0729                 9.0796
 IR Inten    --     15.3204                 0.2094                40.9419

 - Thermochemistry -
 -------------------
 Temperature   298.150 Kelvin.  Pressure   1.00000 Atm.
 Atom     1 has atomic number  6 and mass  12.00000

 Molecular mass:   122.05791 amu.
 Principal axes and moments of inertia in atomic units:
                           1         2         3
     Eigenvalues --   698.813651005.647111010.68456
           X            0.99946  -0.03287   0.00002
           Y           -0.00001   0.00030   1.00000
           Z            0.03287   0.99946  -0.00030
 This molecule is an asymmetric top.
 Rotational symmetry number  1.
 Warning -- assumption of classical behavior for rotation
           may cause significant error
 Rotational temperatures (Kelvin)      0.12394     0.08613     0.08570
 Rotational constants (GHZ):           2.58258     1.79461     1.78566
 Zero-point vibrational energy     392305.1 (Joules/Mol)
                                   93.76317 (Kcal/Mol)
 Warning -- explicit consideration of  16 degrees of freedom as
           vibrations may cause significant error
 Vibrational temperatures:     99.90   179.46   301.63   333.04   397.26
          (Kelvin)            404.93   477.86   487.28   515.49   546.88
                              562.26   643.90   659.07   795.48   810.50
                              853.33   961.99  1021.68  1288.44  1342.15
                             1362.07  1372.06  1514.66  1547.81  1567.31
                             1667.88  1695.93  1726.33  1928.72  1963.00
                             1971.97  2034.08  2042.29  2056.88  2126.18
                             2129.57  2145.46  2164.50  4385.90  4388.38
                             4492.69  4496.97  4552.40  4553.47  5427.60
                             5429.17  5469.52  5471.49

 Zero-point correction=                           0.149421 (Hartree/Particle)
 Thermal correction to Energy=                    0.159134
 Thermal correction to Enthalpy=                  0.160078
 Thermal correction to Gibbs Free Energy=         0.115927
 Sum of electronic and zero-point Energies=           -459.228617
 Sum of electronic and thermal Energies=              -459.218904
 Sum of electronic and thermal Enthalpies=            -459.217960
 Sum of electronic and thermal Free Energies=         -459.262111

                     E (Thermal)             CV                S
                      KCal/Mol        Cal/Mol-Kelvin    Cal/Mol-Kelvin
 Total                   99.858             36.752             92.925
 Electronic               0.000              0.000              0.000
 Translational            0.889              2.981             40.312
 Rotational               0.889              2.981             28.054
 Vibrational             98.081             30.790             24.559
 Vibration     1          0.598              1.969              4.169
 Vibration     2          0.610              1.928              3.026
 Vibration     3          0.642              1.826              2.047
 Vibration     4          0.653              1.793              1.867
 Vibration     5          0.678              1.718              1.558
 Vibration     6          0.681              1.708              1.525
 Vibration     7          0.714              1.611              1.250
 Vibration     8          0.719              1.598              1.218
 Vibration     9          0.733              1.558              1.130
 Vibration    10          0.750              1.513              1.039
 Vibration    11          0.758              1.490              0.997
 Vibration    12          0.807              1.366              0.803
 Vibration    13          0.816              1.343              0.772
 Vibration    14          0.908              1.133              0.538
 Vibration    15          0.919              1.111              0.517
 Vibration    16          0.951              1.046              0.462

 Optimization completed.
    -- Stationary point found.
 Normal termination of Gaussian 09 at Fri Aug 26 05:37:28 2022.

 -----------------------------------------------------------------
 #P Geom=AllCheck Guess=TCheck SCRF=Check CCSD(T,E4T,FrzG4)/GTBas1
 -----------------------------------------------------------------

 Structure from the checkpoint file:  "G4.Frag_948.chk"
 --------
 Frag_948
 --------
 Charge =  0 Multiplicity = 1

 SCF Done:  E(RHF) =  -456.730013469     A.U. after   11 cycles
 E2 =    -0.1246479967D+01 EUMP2 =    -0.45797649343594D+03
 CCSD(T)
 CCSD(T)= -0.45806613294D+03
 Normal termination of Gaussian 09 at Fri Aug 26 05:45:58 2022.

 ---------------------------------------------------------
 #P Geom=AllCheck Guess=TCheck SCRF=Check MP4=FrzG4/GTBas2
 ---------------------------------------------------------

 Structure from the checkpoint file:  "G4.Frag_948.chk"
 --------
 Frag_948
 --------
 Charge =  0 Multiplicity = 1

 SCF Done:  E(RHF) =  -456.745499793     A.U. after   11 cycles
 E2 =    -0.1270096660D+01 EUMP2 =    -0.45801559645309D+03
 Normal termination of Gaussian 09 at Fri Aug 26 05:48:52 2022.

 ---------------------------------------------------------
 #P Geom=AllCheck Guess=TCheck SCRF=Check MP4=FrzG4/GTBas3
 ---------------------------------------------------------

 Structure from the checkpoint file:  "G4.Frag_948.chk"
 --------
 Frag_948
 --------
 Charge =  0 Multiplicity = 1

 SCF Done:  E(RHF) =  -456.794280634     A.U. after   10 cycles
 E2 =    -0.1550377955D+01 EUMP2 =    -0.45834465858845D+03
 Normal termination of Gaussian 09 at Fri Aug 26 06:12:35 2022.

 -----------------------------------------------------------
 #P Geom=AllCheck Guess=TCheck SCRF=Check MP2=Full/GTLargeXP
 -----------------------------------------------------------

 Structure from the checkpoint file:  "G4.Frag_948.chk"
 --------
 Frag_948
 --------
 Charge =  0 Multiplicity = 1

 SCF Done:  E(RHF) =  -456.921984312     A.U. after   11 cycles
 E2 =    -0.2020495386D+01 EUMP2 =    -0.45894247969824D+03
 Normal termination of Gaussian 09 at Fri Aug 26 06:18:08 2022.
 SCF Done:  E(RHF) =  -456.958590064     A.U. after    8 cycles
 Normal termination of Gaussian 09 at Fri Aug 26 06:23:06 2022.

                         Standard orientation:
 ---------------------------------------------------------------------
 Center     Atomic      Atomic             Coordinates (Angstroms)
 Number     Number       Type             X           Y           Z
 ---------------------------------------------------------------------
      1          6           0        1.453304    1.028020   -0.856246
      2          6           0        0.784512   -0.002041    0.045809
      3          8           0        1.282172   -1.268740   -0.342042
      4          8           0        1.081506    0.224120    1.408780
      5          6           0       -0.784469   -0.002107   -0.045721
      6          6           0       -1.453322    1.028693    0.855540
      7          8           0       -1.081435    0.223277   -1.408812
      8          8           0       -1.282059   -1.268587    0.342898
      9          1           0        1.092616    2.032194   -0.624104
     10          1           0        1.250254    0.811345   -1.904296
     11          1           0        2.535720    0.994990   -0.692997
     12          1           0        0.993516   -1.871938    0.355395
     13          1           0        2.042280    0.234438    1.486819
     14          1           0       -2.535683    0.995851    0.691847
     15          1           0       -1.092055    2.032524    0.622827
     16          1           0       -1.250819    0.812643    1.903803
     17          1           0       -2.042189    0.233829   -1.486924
     18          1           0       -0.995266   -1.871818   -0.355255
 ---------------------------------------------------------------------

 SCF Done:  E(RHF) =  -456.966871408     A.U. after    8 cycles

 The electronic state is 1-A.
 Alpha  occ. eigenvalues --  -20.56870 -20.56865 -20.56647 -20.56641 -11.34641
 Alpha  occ. eigenvalues --  -11.34587 -11.21800 -11.21798  -1.43867  -1.40485
 Alpha  occ. eigenvalues --   -1.34093  -1.33520  -1.03514  -0.99113  -0.88633
 Alpha  occ. eigenvalues --   -0.78966  -0.74687  -0.74428  -0.67059  -0.64590
 Alpha  occ. eigenvalues --   -0.63213  -0.62555  -0.61319  -0.56736  -0.55136
 Alpha  occ. eigenvalues --   -0.54208  -0.54092  -0.53051  -0.50307  -0.49957
 Alpha  occ. eigenvalues --   -0.49005  -0.46847  -0.43729
 Alpha virt. eigenvalues --    0.03368   0.04015   0.04511   0.04758   0.06201
 Alpha virt. eigenvalues --    0.06793   0.06890   0.07333   0.07384   0.09655
 Alpha virt. eigenvalues --    0.09676   0.09791   0.10988   0.12927   0.14306

 Mulliken charges:
               1
     1  C   -0.555718
     2  C    0.522392
     3  O   -0.650788
     4  O   -0.628734
     5  C    0.522492
     6  C   -0.555670
     7  O   -0.628768
     8  O   -0.650836
     9  H    0.177620
    10  H    0.212177
    11  H    0.158141
    12  H    0.386293
    13  H    0.378545
    14  H    0.158088
    15  H    0.177636
    16  H    0.212203
    17  H    0.378577
    18  H    0.386350
 Sum of Mulliken charges =  -0.00000

 Dipole moment (field-independent basis, Debye):
    X=             -0.0035    Y=              0.6021    Z=             -0.0022  Tot=              0.6021
 Quadrupole moment (field-independent basis, Debye-Ang):
   XX=            -43.5135   YY=            -46.3022   ZZ=            -52.3694
   XY=              0.0069   XZ=              5.2445   YZ=              0.0009

 Normal termination of Gaussian 09 at Fri Aug 26 06:40:20 2022.
