 Gaussian 09, Revision E.01,
 Gaussian 09:  ES64L-G09RevE.01 30-Nov-2015

 -----
 #P G4
 -----

 ---------
 Frag_1141
 ---------
 Symbolic Z-matrix:
 Charge =  0 Multiplicity = 1

 SCF Done:  E(RB3LYP) =  -228.546240004     A.U. after   15 cycles
 SCF Done:  E(RB3LYP) =  -228.570472407     A.U. after   13 cycles
 SCF Done:  E(RB3LYP) =  -228.573937992     A.U. after   12 cycles
 SCF Done:  E(RB3LYP) =  -228.574062279     A.U. after   11 cycles
 SCF Done:  E(RB3LYP) =  -228.574073532     A.U. after    8 cycles
 SCF Done:  E(RB3LYP) =  -228.574073981     A.U. after    8 cycles
 Optimization completed.
    -- Stationary point found.
 Normal termination of Gaussian 09 at Tue Aug 23 19:03:43 2022.

 ----------------------------------------------------------
 #P Geom=AllCheck Guess=TCheck SCRF=Check B3LYP/GTBas3 Freq
 ----------------------------------------------------------

 Structure from the checkpoint file:  "G4.Frag_1141.chk"
 ---------
 Frag_1141
 ---------
 Charge =  0 Multiplicity = 1

 SCF Done:  E(RB3LYP) =  -228.574073981     A.U. after    1 cycles

  Exact polarizability:  74.775  -1.718  50.423  -0.000   0.000  32.515
 Approx polarizability: 141.709  -1.250  68.897   0.000   0.000  48.600

                      1                      2                      3
                      A                      A                      A
 Frequencies --     92.4306               144.9240               208.7309
 Red. masses --      1.0450                 1.2442                 2.0063
 Frc consts  --      0.0053                 0.0154                 0.0515
 IR Inten    --      0.1323                 0.2715                 0.1532

                      4                      5                      6
                      A                      A                      A
 Frequencies --    299.5789               521.1569               531.0282
 Red. masses --      2.6364                 1.9969                 3.0603
 Frc consts  --      0.1394                 0.3196                 0.5084
 IR Inten    --      1.7879                10.4749                16.3562

                      7                      8                      9
                      A                      A                      A
 Frequencies --    567.3695               650.3754               755.8200
 Red. masses --      3.2924                 1.1269                 1.6441
 Frc consts  --      0.6244                 0.2808                 0.5534
 IR Inten    --      4.0101                 3.7555                79.3455

                     10                     11                     12
                      A                      A                      A
 Frequencies --    844.6949              1005.5299              1040.3813
 Red. masses --      3.3605                 1.6416                 1.3328
 Frc consts  --      1.4127                 0.9779                 0.8500
 IR Inten    --      8.2767                 5.8743                 0.0953

                     13                     14                     15
                      A                      A                      A
 Frequencies --   1104.8028              1143.8555              1147.5187
 Red. masses --      1.7611                 2.0251                 1.3913
 Frc consts  --      1.2665                 1.5611                 1.0794
 IR Inten    --     86.6378                 1.9797                 0.5155

                     16                     17                     18
                      A                      A                      A
 Frequencies --   1289.4867              1347.3847              1420.0524
 Red. masses --      2.6559                 1.3582                 1.2462
 Frc consts  --      2.6019                 1.4528                 1.4806
 IR Inten    --     46.2759                40.5859                 1.0190

                     19                     20                     21
                      A                      A                      A
 Frequencies --   1436.7002              1476.4326              1477.3787
 Red. masses --      1.1923                 1.0426                 1.1027
 Frc consts  --      1.4501                 1.3391                 1.4181
 IR Inten    --      8.4368                 0.0843                14.4904

                     22                     23                     24
                      A                      A                      A
 Frequencies --   1493.9454              1498.9500              1524.9820
 Red. masses --      1.0539                 1.0425                 1.5469
 Frc consts  --      1.3859                 1.3801                 2.1195
 IR Inten    --      1.9451                17.1066                19.0523

                     25                     26                     27
                      A                      A                      A
 Frequencies --   1612.1175              2991.1139              3024.0724
 Red. masses --      5.0385                 1.0421                 1.0999
 Frc consts  --      7.7152                 5.4932                 5.9262
 IR Inten    --    177.6306                49.9949                30.9187

                     28                     29                     30
                      A                      A                      A
 Frequencies --   3067.5604              3113.0540              3140.1653
 Red. masses --      1.0346                 1.0925                 1.1039
 Frc consts  --      5.7361                 6.2377                 6.4136
 IR Inten    --     12.0003                14.3120                 9.7080

                     31                     32                     33
                      A                      A                      A
 Frequencies --   3200.7418              3202.8304              3386.5657
 Red. masses --      1.0942                 1.0966                 1.0724
 Frc consts  --      6.6043                 6.6280                 7.2462
 IR Inten    --      7.9305                 7.8730                17.2088

 - Thermochemistry -
 -------------------
 Temperature   298.150 Kelvin.  Pressure   1.00000 Atm.
 Atom     1 has atomic number  6 and mass  12.00000

 Molecular mass:    72.06875 amu.
 Principal axes and moments of inertia in atomic units:
                           1         2         3
     Eigenvalues --   191.13035 451.79497 620.32618
           X            0.99996   0.00892  -0.00000
           Y           -0.00892   0.99996   0.00000
           Z            0.00000  -0.00000   1.00000
 This molecule is an asymmetric top.
 Rotational symmetry number  1.
 Rotational temperatures (Kelvin)      0.45317     0.19171     0.13963
 Rotational constants (GHZ):           9.44246     3.99460     2.90934
 Zero-point vibrational energy     297641.2 (Joules/Mol)
                                   71.13797 (Kcal/Mol)
 Warning -- explicit consideration of   7 degrees of freedom as
           vibrations may cause significant error
 Vibrational temperatures:    132.99   208.51   300.32   431.03   749.83
          (Kelvin)            764.03   816.32   935.74  1087.45  1215.33
                             1446.73  1496.87  1589.56  1645.75  1651.02
                             1855.28  1938.58  2043.14  2067.09  2124.25
                             2125.62  2149.45  2156.65  2194.11  2319.47
                             4303.54  4350.96  4413.53  4478.98  4517.99
                             4605.15  4608.15  4872.51

 Zero-point correction=                           0.113366 (Hartree/Particle)
 Thermal correction to Energy=                    0.119646
 Thermal correction to Enthalpy=                  0.120590
 Thermal correction to Gibbs Free Energy=         0.083993
 Sum of electronic and zero-point Energies=           -228.460708
 Sum of electronic and thermal Energies=              -228.454428
 Sum of electronic and thermal Enthalpies=            -228.453484
 Sum of electronic and thermal Free Energies=         -228.490081

                     E (Thermal)             CV                S
                      KCal/Mol        Cal/Mol-Kelvin    Cal/Mol-Kelvin
 Total                   75.079             21.420             77.026
 Electronic               0.000              0.000              0.000
 Translational            0.889              2.981             38.742
 Rotational               0.889              2.981             25.485
 Vibrational             73.302             15.459             12.798
 Vibration     1          0.602              1.955              3.608
 Vibration     2          0.616              1.908              2.738
 Vibration     3          0.642              1.827              2.055
 Vibration     4          0.692              1.674              1.419
 Vibration     5          0.876              1.203              0.607
 Vibration     6          0.886              1.181              0.585
 Vibration     7          0.923              1.102              0.509

 Optimization completed.
    -- Stationary point found.
 Normal termination of Gaussian 09 at Tue Aug 23 19:05:23 2022.

 -----------------------------------------------------------------
 #P Geom=AllCheck Guess=TCheck SCRF=Check CCSD(T,E4T,FrzG4)/GTBas1
 -----------------------------------------------------------------

 Structure from the checkpoint file:  "G4.Frag_1141.chk"
 ---------
 Frag_1141
 ---------
 Charge =  0 Multiplicity = 1

 SCF Done:  E(RHF) =  -227.039256444     A.U. after   14 cycles
 E2 =    -0.7410171801D+00 EUMP2 =    -0.22778027362366D+03
 CCSD(T)
 CCSD(T)= -0.22785022962D+03
 P4SDTQ=-227.8517288\MP4SDQ=-227.8206635\CCSD=-227.8204104\CCSD(T)=-227
 Normal termination of Gaussian 09 at Tue Aug 23 19:07:37 2022.

 ---------------------------------------------------------
 #P Geom=AllCheck Guess=TCheck SCRF=Check MP4=FrzG4/GTBas2
 ---------------------------------------------------------

 Structure from the checkpoint file:  "G4.Frag_1141.chk"
 ---------
 Frag_1141
 ---------
 Charge =  0 Multiplicity = 1

 SCF Done:  E(RHF) =  -227.047674872     A.U. after   13 cycles
 E2 =    -0.7497993654D+00 EUMP2 =    -0.22779747423709D+03
 Normal termination of Gaussian 09 at Tue Aug 23 19:09:50 2022.

 ---------------------------------------------------------
 #P Geom=AllCheck Guess=TCheck SCRF=Check MP4=FrzG4/GTBas3
 ---------------------------------------------------------

 Structure from the checkpoint file:  "G4.Frag_1141.chk"
 ---------
 Frag_1141
 ---------
 Charge =  0 Multiplicity = 1

 SCF Done:  E(RHF) =  -227.069811265     A.U. after   13 cycles
 E2 =    -0.9024564927D+00 EUMP2 =    -0.22797226775765D+03
 Normal termination of Gaussian 09 at Tue Aug 23 19:54:57 2022.

 -----------------------------------------------------------
 #P Geom=AllCheck Guess=TCheck SCRF=Check MP2=Full/GTLargeXP
 -----------------------------------------------------------

 Structure from the checkpoint file:  "G4.Frag_1141.chk"
 ---------
 Frag_1141
 ---------
 Charge =  0 Multiplicity = 1

 SCF Done:  E(RHF) =  -227.126342556     A.U. after   13 cycles
 E2 =    -0.1174459044D+01 EUMP2 =    -0.22830080160043D+03
 Normal termination of Gaussian 09 at Tue Aug 23 19:57:52 2022.
 SCF Done:  E(RHF) =  -227.144160066     A.U. after   10 cycles
 Normal termination of Gaussian 09 at Tue Aug 23 20:02:03 2022.

                         Standard orientation:
 ---------------------------------------------------------------------
 Center     Atomic      Atomic             Coordinates (Angstroms)
 Number     Number       Type             X           Y           Z
 ---------------------------------------------------------------------
      1          6           0       -1.942361   -0.026787    0.000001
      2          6           0       -0.628355   -0.741132   -0.000003
      3          7           0        0.545773   -0.134802    0.000003
      4          6           0        0.572677    1.340289   -0.000003
      5          7           0        1.758685   -0.647071    0.000005
      6          1           0       -2.096729    0.610679    0.882423
      7          1           0       -2.746058   -0.767172   -0.000003
      8          1           0       -2.096730    0.610688   -0.882414
      9          1           0       -0.589137   -1.823506   -0.000003
     10          1           0        0.066393    1.720906   -0.889455
     11          1           0        0.066450    1.720906    0.889482
     12          1           0        1.618908    1.632126   -0.000035
     13          1           0        1.633929   -1.665737   -0.000025
 ---------------------------------------------------------------------

 SCF Done:  E(RHF) =  -227.147893313     A.U. after    9 cycles

 The electronic state is 1-A.
 Alpha  occ. eigenvalues --  -15.69532 -15.52071 -11.27242 -11.26331 -11.24346
 Alpha  occ. eigenvalues --   -1.35537  -1.08421  -1.01195  -0.94709  -0.78456
 Alpha  occ. eigenvalues --   -0.70146  -0.65192  -0.64011  -0.57243  -0.56923
 Alpha  occ. eigenvalues --   -0.56895  -0.52988  -0.51092  -0.42641  -0.27402
 Alpha virt. eigenvalues --    0.03206   0.03909   0.04807   0.04930   0.07068
 Alpha virt. eigenvalues --    0.07374   0.07546   0.07809   0.07858   0.09792
 Alpha virt. eigenvalues --    0.10894   0.12901   0.13652   0.14551   0.14608

 Mulliken charges:
               1
     1  C   -0.494427
     2  C   -0.223439
     3  N    0.267773
     4  C   -0.433492
     5  N   -0.727621
     6  H    0.177066
     7  H    0.181686
     8  H    0.177066
     9  H    0.190423
    10  H    0.193599
    11  H    0.193598
    12  H    0.246903
    13  H    0.250865
 Sum of Mulliken charges =  -0.00000

 Dipole moment (field-independent basis, Debye):
    X=             -3.6194    Y=              0.9800    Z=             -0.0000  Tot=              3.7497
 Quadrupole moment (field-independent basis, Debye-Ang):
   XX=            -38.9387   YY=            -27.1255   ZZ=            -33.9374
   XY=              1.7812   XZ=             -0.0001   YZ=              0.0001

 Normal termination of Gaussian 09 at Tue Aug 23 21:56:48 2022.
