 Gaussian 09, Revision E.01,
 Gaussian 09:  ES64L-G09RevE.01 30-Nov-2015

 -----
 #P G4
 -----

 --------
 Frag_814
 --------
 Symbolic Z-matrix:
 Charge =  0 Multiplicity = 1

 SCF Done:  E(RB3LYP) =  -284.390990319     A.U. after   13 cycles
 SCF Done:  E(RB3LYP) =  -284.401446311     A.U. after   12 cycles
 SCF Done:  E(RB3LYP) =  -284.404023936     A.U. after   11 cycles
 SCF Done:  E(RB3LYP) =  -284.405597440     A.U. after   11 cycles
 SCF Done:  E(RB3LYP) =  -284.407361395     A.U. after   12 cycles
 SCF Done:  E(RB3LYP) =  -284.408982185     A.U. after   11 cycles
 SCF Done:  E(RB3LYP) =  -284.412554797     A.U. after   13 cycles
 SCF Done:  E(RB3LYP) =  -284.414542225     A.U. after   12 cycles
 SCF Done:  E(RB3LYP) =  -284.416033790     A.U. after   11 cycles
 SCF Done:  E(RB3LYP) =  -284.416423464     A.U. after   11 cycles
 SCF Done:  E(RB3LYP) =  -284.416695195     A.U. after   10 cycles
 SCF Done:  E(RB3LYP) =  -284.416711814     A.U. after    9 cycles
 SCF Done:  E(RB3LYP) =  -284.416714147     A.U. after    8 cycles
 Optimization completed.
    -- Stationary point found.
 Normal termination of Gaussian 09 at Tue Aug 30 10:18:11 2022.

 ----------------------------------------------------------
 #P Geom=AllCheck Guess=TCheck SCRF=Check B3LYP/GTBas3 Freq
 ----------------------------------------------------------

 Structure from the checkpoint file:  "G4.Frag_814.chk"
 --------
 Frag_814
 --------
 Charge =  0 Multiplicity = 1

 SCF Done:  E(RB3LYP) =  -284.416714147     A.U. after    1 cycles

  Exact polarizability:  51.065   3.740  36.818   0.003   0.002  23.377
 Approx polarizability:  73.183   8.878  55.219   0.007   0.006  34.489

                      1                      2                      3
                      A                      A                      A
 Frequencies --    222.5102               273.9592               299.9541
 Red. masses --      2.4128                 3.7837                 1.0465
 Frc consts  --      0.0704                 0.1673                 0.0555
 IR Inten    --      4.9446                 6.0324               143.6036

                      4                      5                      6
                      A                      A                      A
 Frequencies --    345.1715               484.5803               631.8113
 Red. masses --      1.3782                 4.5618                 4.9156
 Frc consts  --      0.0967                 0.6311                 1.1561
 IR Inten    --      1.6470                12.6636                20.8314

                      7                      8                      9
                      A                      A                      A
 Frequencies --    650.1412               711.1555               756.2672
 Red. masses --      1.5476                 2.5439                 1.1466
 Frc consts  --      0.3854                 0.7580                 0.3864
 IR Inten    --     29.2465                59.4828                24.2625

                     10                     11                     12
                      A                      A                      A
 Frequencies --    874.4917               960.3256              1099.9692
 Red. masses --      1.3815                 4.6710                 2.9724
 Frc consts  --      0.6225                 2.5380                 2.1190
 IR Inten    --     83.3213                48.0857                51.6612

                     13                     14                     15
                      A                      A                      A
 Frequencies --   1202.9126              1217.0496              1244.8977
 Red. masses --      1.1904                 1.2722                 1.5887
 Frc consts  --      1.0148                 1.1102                 1.4506
 IR Inten    --      1.3294               153.3681               109.6167

                     16                     17                     18
                      A                      A                      A
 Frequencies --   1388.4665              1444.6031              1650.7229
 Red. masses --      1.5776                 3.0422                 1.1347
 Frc consts  --      1.7919                 3.7406                 1.8217
 IR Inten    --     95.1981               156.7149                 2.0967

                     19                     20                     21
                      A                      A                      A
 Frequencies --   1803.4341              3182.5961              3477.2748
 Red. masses --      4.5857                 1.0906                 1.0475
 Frc consts  --      8.7872                 6.5085                 7.4626
 IR Inten    --    233.9008                18.6672                 1.0443

                     22                     23                     24
                      A                      A                      A
 Frequencies --   3535.7572              3581.3888              3819.2052
 Red. masses --      1.0938                 1.0629                 1.0650
 Frc consts  --      8.0569                 8.0325                 9.1530
 IR Inten    --      1.8962               111.2790                95.7957

 - Thermochemistry -
 -------------------
 Temperature   298.150 Kelvin.  Pressure   1.00000 Atm.
 Atom     1 has atomic number  7 and mass  14.00307

 Molecular mass:    75.03203 amu.
 Principal axes and moments of inertia in atomic units:
                           1         2         3
     Eigenvalues --   166.90869 454.24241 611.58378
           X            0.99986   0.01696   0.00001
           Y           -0.01696   0.99986   0.00000
           Z           -0.00001  -0.00000   1.00000
 This molecule is an asymmetric top.
 Rotational symmetry number  1.
 Rotational temperatures (Kelvin)      0.51893     0.19068     0.14162
 Rotational constants (GHZ):          10.81275     3.97308     2.95093
 Zero-point vibrational energy     208501.0 (Joules/Mol)
                                   49.83294 (Kcal/Mol)
 Warning -- explicit consideration of   5 degrees of freedom as
           vibrations may cause significant error
 Vibrational temperatures:    320.14   394.17   431.57   496.62   697.20
          (Kelvin)            909.03   935.41  1023.19  1088.10  1258.20
                             1381.69  1582.61  1730.72  1751.06  1791.13
                             1997.69  2078.46  2375.02  2594.74  4579.04
                             5003.02  5087.16  5152.81  5494.98

 Zero-point correction=                           0.079414 (Hartree/Particle)
 Thermal correction to Energy=                    0.084918
 Thermal correction to Enthalpy=                  0.085863
 Thermal correction to Gibbs Free Energy=         0.051269
 Sum of electronic and zero-point Energies=           -284.337300
 Sum of electronic and thermal Energies=              -284.331796
 Sum of electronic and thermal Enthalpies=            -284.330852
 Sum of electronic and thermal Free Energies=         -284.365445

                     E (Thermal)             CV                S
                      KCal/Mol        Cal/Mol-Kelvin    Cal/Mol-Kelvin
 Total                   53.287             19.542             72.808
 Electronic               0.000              0.000              0.000
 Translational            0.889              2.981             38.862
 Rotational               0.889              2.981             25.342
 Vibrational             51.510             13.580              8.604
 Vibration     1          0.648              1.807              1.939
 Vibration     2          0.676              1.721              1.571
 Vibration     3          0.692              1.674              1.417
 Vibration     4          0.724              1.585              1.188
 Vibration     5          0.841              1.284              0.698

 Optimization completed.
    -- Stationary point found.
 Normal termination of Gaussian 09 at Tue Aug 30 10:18:30 2022.

 -----------------------------------------------------------------
 #P Geom=AllCheck Guess=TCheck SCRF=Check CCSD(T,E4T,FrzG4)/GTBas1
 -----------------------------------------------------------------

 Structure from the checkpoint file:  "G4.Frag_814.chk"
 --------
 Frag_814
 --------
 Charge =  0 Multiplicity = 1

 SCF Done:  E(RHF) =  -282.780431894     A.U. after   12 cycles
 E2 =    -0.7729075355D+00 EUMP2 =    -0.28355333942980D+03
 CCSD(T)
 CCSD(T)= -0.28360667005D+03
 Normal termination of Gaussian 09 at Tue Aug 30 10:19:18 2022.

 ---------------------------------------------------------
 #P Geom=AllCheck Guess=TCheck SCRF=Check MP4=FrzG4/GTBas2
 ---------------------------------------------------------

 Structure from the checkpoint file:  "G4.Frag_814.chk"
 --------
 Frag_814
 --------
 Charge =  0 Multiplicity = 1

 SCF Done:  E(RHF) =  -282.791605766     A.U. after   12 cycles
 E2 =    -0.7864606926D+00 EUMP2 =    -0.28357806645891D+03
 Normal termination of Gaussian 09 at Tue Aug 30 10:19:33 2022.

 ---------------------------------------------------------
 #P Geom=AllCheck Guess=TCheck SCRF=Check MP4=FrzG4/GTBas3
 ---------------------------------------------------------

 Structure from the checkpoint file:  "G4.Frag_814.chk"
 --------
 Frag_814
 --------
 Charge =  0 Multiplicity = 1

 SCF Done:  E(RHF) =  -282.823024690     A.U. after   11 cycles
 E2 =    -0.9496243979D+00 EUMP2 =    -0.28377264908759D+03
 Normal termination of Gaussian 09 at Tue Aug 30 10:20:40 2022.

 -----------------------------------------------------------
 #P Geom=AllCheck Guess=TCheck SCRF=Check MP2=Full/GTLargeXP
 -----------------------------------------------------------

 Structure from the checkpoint file:  "G4.Frag_814.chk"
 --------
 Frag_814
 --------
 Charge =  0 Multiplicity = 1

 SCF Done:  E(RHF) =  -282.904045038     A.U. after   12 cycles
 E2 =    -0.1241271636D+01 EUMP2 =    -0.28414531667394D+03
 Normal termination of Gaussian 09 at Tue Aug 30 10:21:21 2022.
 SCF Done:  E(RHF) =  -282.927518071     A.U. after    8 cycles
 Normal termination of Gaussian 09 at Tue Aug 30 10:22:03 2022.

                         Standard orientation:
 ---------------------------------------------------------------------
 Center     Atomic      Atomic             Coordinates (Angstroms)
 Number     Number       Type             X           Y           Z
 ---------------------------------------------------------------------
      1          7           0       -1.867021    0.060723    0.000097
      2          6           0       -0.675594   -0.747679   -0.000273
      3          6           0        0.482313   -0.073265   -0.000245
      4          8           0        0.537446    1.274705   -0.000143
      5          8           0        1.696308   -0.652898    0.000006
      6          1           0       -2.446813   -0.117435   -0.814932
      7          1           0       -2.446380   -0.117532    0.815500
      8          1           0       -0.694302   -1.831445    0.000661
      9          1           0       -0.404490    1.537394    0.000906
     10          1           0        2.350786    0.055177    0.001385
 ---------------------------------------------------------------------

 SCF Done:  E(RHF) =  -282.932541556     A.U. after    8 cycles

 The electronic state is 1-A.
 Alpha  occ. eigenvalues --  -20.59620 -20.59039 -15.56020 -11.35291 -11.22544
 Alpha  occ. eigenvalues --   -1.45959  -1.37363  -1.18841  -0.98285  -0.81251
 Alpha  occ. eigenvalues --   -0.75424  -0.69656  -0.66657  -0.62491  -0.60763
 Alpha  occ. eigenvalues --   -0.58928  -0.56880  -0.52841  -0.42579  -0.32238
 Alpha virt. eigenvalues --    0.03919   0.04448   0.05408   0.06406   0.07442
 Alpha virt. eigenvalues --    0.08016   0.08502   0.10464   0.10990   0.12688
 Alpha virt. eigenvalues --    0.13446   0.15540   0.16002   0.16275   0.16899

 Mulliken charges:
               1
     1  N   -0.731871
     2  C   -0.231932
     3  C    0.461095
     4  O   -0.589567
     5  O   -0.551361
     6  H    0.301425
     7  H    0.301382
     8  H    0.208529
     9  H    0.426855
    10  H    0.405444
 Sum of Mulliken charges =  -0.00000

 Dipole moment (field-independent basis, Debye):
    X=             -1.2974    Y=              0.2841    Z=              0.0053  Tot=              1.3282
 Quadrupole moment (field-independent basis, Debye-Ang):
   XX=            -22.3819   YY=            -31.6357   ZZ=            -30.2368
   XY=              2.4260   XZ=              0.0044   YZ=              0.0014

 Normal termination of Gaussian 09 at Tue Aug 30 10:26:31 2022.
