 Gaussian 09, Revision E.01,
 Gaussian 09:  ES64L-G09RevE.01 30-Nov-2015

 -----
 #P G4
 -----

 --------
 Frag_605
 --------
 Symbolic Z-matrix:
 Charge =  0 Multiplicity = 1

 SCF Done:  E(RB3LYP) =  -324.849032421     A.U. after   13 cycles
 SCF Done:  E(RB3LYP) =  -324.863071739     A.U. after   11 cycles
 SCF Done:  E(RB3LYP) =  -324.864906697     A.U. after   11 cycles
 SCF Done:  E(RB3LYP) =  -324.865509037     A.U. after   11 cycles
 SCF Done:  E(RB3LYP) =  -324.865817029     A.U. after   11 cycles
 SCF Done:  E(RB3LYP) =  -324.866303028     A.U. after   13 cycles
 SCF Done:  E(RB3LYP) =  -324.866530315     A.U. after   10 cycles
 SCF Done:  E(RB3LYP) =  -324.866793467     A.U. after   11 cycles
 SCF Done:  E(RB3LYP) =  -324.866873118     A.U. after   11 cycles
 SCF Done:  E(RB3LYP) =  -324.866911557     A.U. after   11 cycles
 SCF Done:  E(RB3LYP) =  -324.866942554     A.U. after    7 cycles
 SCF Done:  E(RB3LYP) =  -324.866942577     A.U. after    7 cycles
 SCF Done:  E(RB3LYP) =  -324.866942640     A.U. after    6 cycles
 Optimization completed.
    -- Stationary point found.
 Normal termination of Gaussian 09 at Fri Aug 26 07:51:41 2022.

 ----------------------------------------------------------
 #P Geom=AllCheck Guess=TCheck SCRF=Check B3LYP/GTBas3 Freq
 ----------------------------------------------------------

 Structure from the checkpoint file:  "G4.Frag_605.chk"
 --------
 Frag_605
 --------
 Charge =  0 Multiplicity = 1

 SCF Done:  E(RB3LYP) =  -324.866942640     A.U. after    1 cycles

  Exact polarizability:  58.197   1.228  49.333  -2.917   0.042  44.883
 Approx polarizability:  82.402   0.490  65.973  -6.670   0.316  65.971

                      1                      2                      3
                      A                      A                      A
 Frequencies --     70.1298               188.1422               231.7025
 Red. masses --      1.2974                 2.4704                 1.1090
 Frc consts  --      0.0038                 0.0515                 0.0351
 IR Inten    --     20.0503                 3.6288                47.8021

                      4                      5                      6
                      A                      A                      A
 Frequencies --    261.1120               276.5425               280.6896
 Red. masses --      1.2955                 1.8161                 1.1472
 Frc consts  --      0.0520                 0.0818                 0.0533
 IR Inten    --     28.9944                 2.4337                34.9660

                      7                      8                      9
                      A                      A                      A
 Frequencies --    361.7617               366.7225               445.8268
 Red. masses --      2.7580                 2.7452                 2.8005
 Frc consts  --      0.2127                 0.2175                 0.3280
 IR Inten    --      2.7379                 4.9103                 7.1467

                     10                     11                     12
                      A                      A                      A
 Frequencies --    481.4973               525.8060               619.4595
 Red. masses --      2.6760                 3.2166                 1.5347
 Frc consts  --      0.3655                 0.5240                 0.3470
 IR Inten    --      5.1232                12.4576               164.0520

                     13                     14                     15
                      A                      A                      A
 Frequencies --    759.4382               916.7488               924.6609
 Red. masses --      4.2993                 2.5513                 1.6929
 Frc consts  --      1.4609                 1.2633                 0.8528
 IR Inten    --      3.4422                27.2121                 9.9814

                     16                     17                     18
                      A                      A                      A
 Frequencies --    929.8436               998.2486              1015.0545
 Red. masses --      7.6319                 1.2767                 1.6973
 Frc consts  --      3.8878                 0.7496                 1.0303
 IR Inten    --     19.8831                 0.3807                 3.1016

                     19                     20                     21
                      A                      A                      A
 Frequencies --   1082.4882              1185.1051              1291.3551
 Red. masses --      1.4927                 2.2393                 3.0850
 Frc consts  --      1.0305                 1.8530                 3.0311
 IR Inten    --      5.3840                67.5776                60.8534

                     22                     23                     24
                      A                      A                      A
 Frequencies --   1342.1631              1367.2101              1395.4589
 Red. masses --      1.7009                 1.1520                 1.4691
 Frc consts  --      1.8053                 1.2688                 1.6856
 IR Inten    --     10.4368                38.5955                26.0095

                     25                     26                     27
                      A                      A                      A
 Frequencies --   1407.8154              1476.2041              1495.1324
 Red. masses --      1.2669                 1.0524                 1.0624
 Frc consts  --      1.4794                 1.3512                 1.3993
 IR Inten    --     13.4142                 0.3430                 1.4118

                     28                     29                     30
                      A                      A                      A
 Frequencies --   1496.9007              1512.2032              1657.2884
 Red. masses --      1.0565                 1.0506                 1.1082
 Frc consts  --      1.3948                 1.4155                 1.7934
 IR Inten    --      0.7456                 2.0862                25.4093

                     31                     32                     33
                      A                      A                      A
 Frequencies --   3038.5494              3043.5600              3107.9432
 Red. masses --      1.0363                 1.0371                 1.1022
 Frc consts  --      5.6372                 5.6605                 6.2729
 IR Inten    --     21.8006                 7.8010                11.3688

                     34                     35                     36
                      A                      A                      A
 Frequencies --   3112.3701              3135.4003              3142.5056
 Red. masses --      1.1017                 1.0996                 1.0991
 Frc consts  --      6.2876                 6.3688                 6.3952
 IR Inten    --     35.0629                 6.5194                17.4525

                     37                     38                     39
                      A                      A                      A
 Frequencies --   3565.2715              3658.8814              3767.3457
 Red. masses --      1.0480                 1.0969                 1.0687
 Frc consts  --      7.8486                 8.6521                 8.9365
 IR Inten    --      5.3206                 7.5384                28.0519

 - Thermochemistry -
 -------------------
 Temperature   298.150 Kelvin.  Pressure   1.00000 Atm.
 Atom     1 has atomic number  6 and mass  12.00000

 Molecular mass:    91.06333 amu.
 Principal axes and moments of inertia in atomic units:
                           1         2         3
     Eigenvalues --   393.56256 637.52433 652.78622
           X            0.99961   0.02713  -0.00620
           Y           -0.02720   0.99956  -0.01168
           Z            0.00588   0.01184   0.99991
 This molecule is an asymmetric top.
 Rotational symmetry number  1.
 Rotational temperatures (Kelvin)      0.22008     0.13586     0.13268
 Rotational constants (GHZ):           4.58565     2.83086     2.76467
 Zero-point vibrational energy     334562.8 (Joules/Mol)
                                   79.96244 (Kcal/Mol)
 Warning -- explicit consideration of  12 degrees of freedom as
           vibrations may cause significant error
 Vibrational temperatures:    100.90   270.69   333.37   375.68   397.88
          (Kelvin)            403.85   520.49   527.63   641.44   692.77
                              756.52   891.26  1092.66  1319.00  1330.38
                             1337.84  1436.26  1460.44  1557.46  1705.10
                             1857.97  1931.07  1967.11  2007.75  2025.53
                             2123.93  2151.16  2153.70  2175.72  2384.47
                             4371.79  4379.00  4471.63  4478.00  4511.14
                             4521.36  5129.62  5264.31  5420.36

 Zero-point correction=                           0.127428 (Hartree/Particle)
 Thermal correction to Energy=                    0.135487
 Thermal correction to Enthalpy=                  0.136432
 Thermal correction to Gibbs Free Energy=         0.096116
 Sum of electronic and zero-point Energies=           -324.739514
 Sum of electronic and thermal Energies=              -324.731455
 Sum of electronic and thermal Enthalpies=            -324.730511
 Sum of electronic and thermal Free Energies=         -324.770826

                     E (Thermal)             CV                S
                      KCal/Mol        Cal/Mol-Kelvin    Cal/Mol-Kelvin
 Total                   85.020             29.019             84.851
 Electronic               0.000              0.000              0.000
 Translational            0.889              2.981             39.439
 Rotational               0.889              2.981             26.596
 Vibrational             83.242             23.058             18.816
 Vibration     1          0.598              1.968              4.150
 Vibration     2          0.633              1.856              2.246
 Vibration     3          0.653              1.793              1.866
 Vibration     4          0.669              1.744              1.654
 Vibration     5          0.678              1.717              1.555
 Vibration     6          0.680              1.709              1.529
 Vibration     7          0.736              1.551              1.115
 Vibration     8          0.740              1.541              1.093
 Vibration     9          0.805              1.370              0.808
 Vibration    10          0.838              1.291              0.706
 Vibration    11          0.881              1.193              0.597
 Vibration    12          0.979              0.991              0.417

 Optimization completed.
    -- Stationary point found.
 Normal termination of Gaussian 09 at Fri Aug 26 07:52:16 2022.

 -----------------------------------------------------------------
 #P Geom=AllCheck Guess=TCheck SCRF=Check CCSD(T,E4T,FrzG4)/GTBas1
 -----------------------------------------------------------------

 Structure from the checkpoint file:  "G4.Frag_605.chk"
 --------
 Frag_605
 --------
 Charge =  0 Multiplicity = 1

 SCF Done:  E(RHF) =  -322.895065241     A.U. after   13 cycles
 E2 =    -0.9287186893D+00 EUMP2 =    -0.32382378393081D+03
 CCSD(T)
 CCSD(T)= -0.32390369459D+03
 3.8757817\CCSD(T)=-323.9036946\RMSD=9.946e-09\PG=C01 [X(C3H9N1O2)]\\@
 Normal termination of Gaussian 09 at Fri Aug 26 07:54:50 2022.

 ---------------------------------------------------------
 #P Geom=AllCheck Guess=TCheck SCRF=Check MP4=FrzG4/GTBas2
 ---------------------------------------------------------

 Structure from the checkpoint file:  "G4.Frag_605.chk"
 --------
 Frag_605
 --------
 Charge =  0 Multiplicity = 1

 SCF Done:  E(RHF) =  -322.905167668     A.U. after   12 cycles
 E2 =    -0.9449160526D+00 EUMP2 =    -0.32385008372100D+03
 Normal termination of Gaussian 09 at Fri Aug 26 07:55:38 2022.

 ---------------------------------------------------------
 #P Geom=AllCheck Guess=TCheck SCRF=Check MP4=FrzG4/GTBas3
 ---------------------------------------------------------

 Structure from the checkpoint file:  "G4.Frag_605.chk"
 --------
 Frag_605
 --------
 Charge =  0 Multiplicity = 1

 SCF Done:  E(RHF) =  -322.938742994     A.U. after   12 cycles
 E2 =    -0.1150301365D+01 EUMP2 =    -0.32408904435939D+03
 Normal termination of Gaussian 09 at Fri Aug 26 08:00:00 2022.

 -----------------------------------------------------------
 #P Geom=AllCheck Guess=TCheck SCRF=Check MP2=Full/GTLargeXP
 -----------------------------------------------------------

 Structure from the checkpoint file:  "G4.Frag_605.chk"
 --------
 Frag_605
 --------
 Charge =  0 Multiplicity = 1

 SCF Done:  E(RHF) =  -323.024919634     A.U. after   12 cycles
 E2 =    -0.1497012768D+01 EUMP2 =    -0.32452193240212D+03
 Normal termination of Gaussian 09 at Fri Aug 26 08:02:04 2022.
 SCF Done:  E(RHF) =  -323.052067784     A.U. after    9 cycles
 Normal termination of Gaussian 09 at Fri Aug 26 08:04:21 2022.

                         Standard orientation:
 ---------------------------------------------------------------------
 Center     Atomic      Atomic             Coordinates (Angstroms)
 Number     Number       Type             X           Y           Z
 ---------------------------------------------------------------------
      1          6           0        0.420538    1.277239    0.835470
      2          6           0        0.407722   -0.002403   -0.002822
      3          6           0        0.374498   -1.268456    0.854582
      4          7           0        1.486223   -0.045161   -0.954283
      5          8           0       -0.758481    0.018457   -0.884226
      6          8           0       -1.960520    0.107832   -0.074622
      7          1           0        0.469459    2.148677    0.174746
      8          1           0        1.288308    1.287770    1.502360
      9          1           0       -0.487671    1.356471    1.435019
     10          1           0       -0.543123   -1.303985    1.444619
     11          1           0        1.226974   -1.293379    1.540236
     12          1           0        0.412238   -2.154148    0.211676
     13          1           0        2.016654    0.813034   -0.998099
     14          1           0        2.104706   -0.831971   -0.824636
     15          1           0       -2.355649   -0.754929   -0.258540
 ---------------------------------------------------------------------

 SCF Done:  E(RHF) =  -323.057850553     A.U. after    9 cycles

 The electronic state is 1-A.
 Alpha  occ. eigenvalues --  -20.60695 -20.60510 -15.54627 -11.32194 -11.22341
 Alpha  occ. eigenvalues --  -11.21673  -1.45758  -1.24594  -1.15269  -1.01332
 Alpha  occ. eigenvalues --   -0.95120  -0.78769  -0.70396  -0.68001  -0.66415
 Alpha  occ. eigenvalues --   -0.64136  -0.58554  -0.56366  -0.54739  -0.54077
 Alpha  occ. eigenvalues --   -0.53314  -0.50834  -0.47474  -0.43716  -0.40771
 Alpha virt. eigenvalues --    0.03214   0.04079   0.04875   0.05644   0.07142
 Alpha virt. eigenvalues --    0.07248   0.07480   0.07924   0.08548   0.10276
 Alpha virt. eigenvalues --    0.11447   0.12689   0.13177   0.14324   0.14754

 Mulliken charges:
               1
     1  C   -0.599263
     2  C    0.509546
     3  C   -0.635141
     4  N   -0.759714
     5  O   -0.197838
     6  O   -0.436727
     7  H    0.178730
     8  H    0.174590
     9  H    0.205711
    10  H    0.190477
    11  H    0.180450
    12  H    0.188992
    13  H    0.304494
    14  H    0.304847
    15  H    0.390845
 Sum of Mulliken charges =  -0.00000

 Dipole moment (field-independent basis, Debye):
    X=              1.6820    Y=             -1.3014    Z=              1.8922  Tot=              2.8466
 Quadrupole moment (field-independent basis, Debye-Ang):
   XX=            -33.0377   YY=            -34.8613   ZZ=            -41.7784
   XY=              3.9231   XZ=             -0.4241   YZ=             -0.0121

 Normal termination of Gaussian 09 at Fri Aug 26 08:13:17 2022.
