 Gaussian 09, Revision E.01,
 Gaussian 09:  ES64L-G09RevE.01 30-Nov-2015

 -----
 #P G4
 -----

 ---------
 Frag_1081
 ---------
 Symbolic Z-matrix:
 Charge =  0 Multiplicity = 1

 SCF Done:  E(RB3LYP) =  -360.853340177     A.U. after   12 cycles
 SCF Done:  E(RB3LYP) =  -360.860902765     A.U. after   11 cycles
 SCF Done:  E(RB3LYP) =  -360.862003832     A.U. after   10 cycles
 SCF Done:  E(RB3LYP) =  -360.862774312     A.U. after   10 cycles
 SCF Done:  E(RB3LYP) =  -360.863312937     A.U. after   11 cycles
 SCF Done:  E(RB3LYP) =  -360.863529279     A.U. after   10 cycles
 SCF Done:  E(RB3LYP) =  -360.863637580     A.U. after   10 cycles
 SCF Done:  E(RB3LYP) =  -360.863650826     A.U. after    9 cycles
 SCF Done:  E(RB3LYP) =  -360.863660646     A.U. after    9 cycles
 SCF Done:  E(RB3LYP) =  -360.863663659     A.U. after    7 cycles
 SCF Done:  E(RB3LYP) =  -360.863665368     A.U. after    7 cycles
 SCF Done:  E(RB3LYP) =  -360.863665244     A.U. after    7 cycles
 SCF Done:  E(RB3LYP) =  -360.863665154     A.U. after    7 cycles
 Optimization completed.
    -- Stationary point found.
 Normal termination of Gaussian 09 at Fri Aug 26 09:19:19 2022.

 ----------------------------------------------------------
 #P Geom=AllCheck Guess=TCheck SCRF=Check B3LYP/GTBas3 Freq
 ----------------------------------------------------------

 Structure from the checkpoint file:  "G4.Frag_1081.chk"
 ---------
 Frag_1081
 ---------
 Charge =  0 Multiplicity = 1

 SCF Done:  E(RB3LYP) =  -360.863665154     A.U. after    1 cycles

  Exact polarizability:  44.427  -0.940  41.163   1.355  -0.143  39.188
 Approx polarizability:  60.594  -3.680  57.405   2.952   1.553  56.739

                      1                      2                      3
                      A                      A                      A
 Frequencies --     90.2087               191.1025               236.8264
 Red. masses --      2.9303                 1.2172                 3.9442
 Frc consts  --      0.0140                 0.0262                 0.1303
 IR Inten    --      4.9963                38.8493                28.0094

                      4                      5                      6
                      A                      A                      A
 Frequencies --    276.6870               343.2551               396.4444
 Red. masses --      1.1324                 1.7145                 2.2106
 Frc consts  --      0.0511                 0.1190                 0.2047
 IR Inten    --     39.4305                15.6396                20.2369

                      7                      8                      9
                      A                      A                      A
 Frequencies --    405.5214               475.0633               500.2773
 Red. masses --      2.1302                 1.2248                 2.9839
 Frc consts  --      0.2064                 0.1629                 0.4400
 IR Inten    --     24.7982                92.8870                90.4464

                     10                     11                     12
                      A                      A                      A
 Frequencies --    527.0421               617.3245               813.0534
 Red. masses --      2.5996                 3.9273                 5.6417
 Frc consts  --      0.4254                 0.8818                 2.1973
 IR Inten    --     19.1336                18.7422                10.2506

                     13                     14                     15
                      A                      A                      A
 Frequencies --    892.5594               939.9142              1010.9185
 Red. masses --      1.8388                 1.6087                 2.5434
 Frc consts  --      0.8631                 0.8373                 1.5314
 IR Inten    --    111.7066                23.7799                60.1093

                     16                     17                     18
                      A                      A                      A
 Frequencies --   1048.9819              1069.8085              1157.9857
 Red. masses --      2.4766                 2.8193                 1.2842
 Frc consts  --      1.6056                 1.9011                 1.0146
 IR Inten    --    233.1920                29.8241                80.3511

                     19                     20                     21
                      A                      A                      A
 Frequencies --   1226.5270              1274.4066              1359.1795
 Red. masses --      1.7648                 1.8541                 1.4045
 Frc consts  --      1.5643                 1.7742                 1.5287
 IR Inten    --     73.3223                23.4571               105.5035

                     22                     23                     24
                      A                      A                      A
 Frequencies --   1365.2032              1392.0444              1455.4456
 Red. masses --      1.2729                 1.3367                 1.8966
 Frc consts  --      1.3978                 1.5261                 2.3671
 IR Inten    --     23.2215                83.6049                56.4490

                     25                     26                     27
                      A                      A                      A
 Frequencies --   1485.4142              1653.5878              3045.1192
 Red. masses --      1.0838                 1.1030                 1.0615
 Frc consts  --      1.4090                 1.7769                 5.7993
 IR Inten    --      7.5642                42.3534                30.0129

                     28                     29                     30
                      A                      A                      A
 Frequencies --   3117.1464              3478.0642              3552.5732
 Red. masses --      1.1052                 1.0494                 1.0907
 Frc consts  --      6.3274                 7.4794                 8.1101
 IR Inten    --     18.6979                 1.4292                 2.2180

                     31                     32                     33
                      A                      A                      A
 Frequencies --   3766.3336              3826.7357              3842.8301
 Red. masses --      1.0649                 1.0651                 1.0669
 Frc consts  --      8.9000                 9.1895                 9.2831
 IR Inten    --     48.0197                42.8168                29.7027

 - Thermochemistry -
 -------------------
 Temperature   298.150 Kelvin.  Pressure   1.00000 Atm.
 Atom     1 has atomic number  7 and mass  14.00307

 Molecular mass:    93.04259 amu.
 Principal axes and moments of inertia in atomic units:
                           1         2         3
     Eigenvalues --   354.20839 651.38952 662.78929
           X            0.99987   0.01371  -0.00884
           Y           -0.01622   0.89322  -0.44932
           Z            0.00174   0.44941   0.89333
 This molecule is an asymmetric top.
 Rotational symmetry number  1.
 Rotational temperatures (Kelvin)      0.24453     0.13297     0.13068
 Rotational constants (GHZ):           5.09514     2.77060     2.72295
 Zero-point vibrational energy     280127.0 (Joules/Mol)
                                   66.95197 (Kcal/Mol)
 Warning -- explicit consideration of  11 degrees of freedom as
           vibrations may cause significant error
 Vibrational temperatures:    129.79   274.95   340.74   398.09   493.87
          (Kelvin)            570.39   583.45   683.51   719.79   758.30
                              888.19  1169.80  1284.19  1352.33  1454.48
                             1509.25  1539.21  1666.08  1764.70  1833.58
                             1955.55  1964.22  2002.84  2094.06  2137.18
                             2379.14  4381.24  4484.87  5004.15  5111.35
                             5418.91  5505.81  5528.97

 Zero-point correction=                           0.106695 (Hartree/Particle)
 Thermal correction to Energy=                    0.113976
 Thermal correction to Enthalpy=                  0.114920
 Thermal correction to Gibbs Free Energy=         0.076101
 Sum of electronic and zero-point Energies=           -360.756970
 Sum of electronic and thermal Energies=              -360.749689
 Sum of electronic and thermal Enthalpies=            -360.748745
 Sum of electronic and thermal Free Energies=         -360.787564

                     E (Thermal)             CV                S
                      KCal/Mol        Cal/Mol-Kelvin    Cal/Mol-Kelvin
 Total                   71.521             26.265             81.702
 Electronic               0.000              0.000              0.000
 Translational            0.889              2.981             39.503
 Rotational               0.889              2.981             26.528
 Vibrational             69.744             20.303             15.671
 Vibration     1          0.602              1.956              3.656
 Vibration     2          0.634              1.852              2.217
 Vibration     3          0.656              1.784              1.827
 Vibration     4          0.678              1.717              1.554
 Vibration     5          0.722              1.589              1.197
 Vibration     6          0.763              1.478              0.976
 Vibration     7          0.770              1.458              0.943
 Vibration     8          0.832              1.305              0.724
 Vibration     9          0.856              1.249              0.657
 Vibration    10          0.882              1.190              0.594
 Vibration    11          0.977              0.995              0.421

 Optimization completed.
    -- Stationary point found.
 Normal termination of Gaussian 09 at Fri Aug 26 09:19:49 2022.

 -----------------------------------------------------------------
 #P Geom=AllCheck Guess=TCheck SCRF=Check CCSD(T,E4T,FrzG4)/GTBas1
 -----------------------------------------------------------------

 Structure from the checkpoint file:  "G4.Frag_1081.chk"
 ---------
 Frag_1081
 ---------
 Charge =  0 Multiplicity = 1

 SCF Done:  E(RHF) =  -358.819978558     A.U. after   12 cycles
 E2 =    -0.9629661933D+00 EUMP2 =    -0.35978294475178D+03
 CCSD(T)
 CCSD(T)= -0.35984715458D+03
 \MP4SDTQ=-359.8482107\MP4SDQ=-359.8228183\CCSD=-359.8225976\CCSD(T)=-3
 Normal termination of Gaussian 09 at Fri Aug 26 09:21:51 2022.

 ---------------------------------------------------------
 #P Geom=AllCheck Guess=TCheck SCRF=Check MP4=FrzG4/GTBas2
 ---------------------------------------------------------

 Structure from the checkpoint file:  "G4.Frag_1081.chk"
 ---------
 Frag_1081
 ---------
 Charge =  0 Multiplicity = 1

 SCF Done:  E(RHF) =  -358.834692432     A.U. after   11 cycles
 E2 =    -0.9825540784D+00 EUMP2 =    -0.35981724651062D+03
 Normal termination of Gaussian 09 at Fri Aug 26 09:22:29 2022.

 ---------------------------------------------------------
 #P Geom=AllCheck Guess=TCheck SCRF=Check MP4=FrzG4/GTBas3
 ---------------------------------------------------------

 Structure from the checkpoint file:  "G4.Frag_1081.chk"
 ---------
 Frag_1081
 ---------
 Charge =  0 Multiplicity = 1

 SCF Done:  E(RHF) =  -358.874194180     A.U. after   11 cycles
 E2 =    -0.1194880977D+01 EUMP2 =    -0.36006907515632D+03
 Normal termination of Gaussian 09 at Fri Aug 26 09:26:02 2022.

 -----------------------------------------------------------
 #P Geom=AllCheck Guess=TCheck SCRF=Check MP2=Full/GTLargeXP
 -----------------------------------------------------------

 Structure from the checkpoint file:  "G4.Frag_1081.chk"
 ---------
 Frag_1081
 ---------
 Charge =  0 Multiplicity = 1

 SCF Done:  E(RHF) =  -358.979902763     A.U. after   12 cycles
 E2 =    -0.1553721655D+01 EUMP2 =    -0.36053362441731D+03
 Normal termination of Gaussian 09 at Fri Aug 26 09:27:55 2022.
 SCF Done:  E(RHF) =  -359.009093847     A.U. after    9 cycles
 Normal termination of Gaussian 09 at Fri Aug 26 09:29:43 2022.

                         Standard orientation:
 ---------------------------------------------------------------------
 Center     Atomic      Atomic             Coordinates (Angstroms)
 Number     Number       Type             X           Y           Z
 ---------------------------------------------------------------------
      1          7           0       -0.689277   -1.353065   -0.381498
      2          6           0       -0.441913    0.027726    0.017479
      3          8           0       -0.387463    0.215255    1.408285
      4          8           0       -1.517908    0.811076   -0.419304
      5          6           0        0.866660    0.540394   -0.611887
      6          8           0        2.006668   -0.010195    0.049826
      7          1           0       -1.400212   -1.725432    0.244887
      8          1           0        0.145303   -1.909260   -0.212401
      9          1           0        0.530432    0.046510    1.660649
     10          1           0       -1.877843    0.357443   -1.188953
     11          1           0        0.892519    1.622242   -0.460449
     12          1           0        0.876873    0.332085   -1.687510
     13          1           0        2.299002   -0.789931   -0.429745
 ---------------------------------------------------------------------

 SCF Done:  E(RHF) =  -359.015719295     A.U. after    8 cycles

 The electronic state is 1-A.
 Alpha  occ. eigenvalues --  -20.58433 -20.56394 -20.55831 -15.56122 -11.37101
 Alpha  occ. eigenvalues --  -11.28963  -1.42936  -1.38287  -1.33854  -1.18299
 Alpha  occ. eigenvalues --   -0.98118  -0.83702  -0.74540  -0.71862  -0.70361
 Alpha  occ. eigenvalues --   -0.67038  -0.62935  -0.60952  -0.57546  -0.54351
 Alpha  occ. eigenvalues --   -0.52227  -0.52050  -0.51699  -0.44003  -0.42896
 Alpha virt. eigenvalues --    0.03189   0.04476   0.05034   0.05675   0.07009
 Alpha virt. eigenvalues --    0.07443   0.07820   0.09437   0.09665   0.12483
 Alpha virt. eigenvalues --    0.12633   0.13761   0.14670   0.15266   0.16214

 Mulliken charges:
               1
     1  N   -0.749676
     2  C    0.573697
     3  O   -0.581574
     4  O   -0.596085
     5  C   -0.175749
     6  O   -0.584275
     7  H    0.314775
     8  H    0.278571
     9  H    0.389768
    10  H    0.389916
    11  H    0.199457
    12  H    0.171219
    13  H    0.369955
 Sum of Mulliken charges =  -0.00000

 Dipole moment (field-independent basis, Debye):
    X=              1.6963    Y=             -2.6279    Z=             -1.9067  Tot=              3.6632
 Quadrupole moment (field-independent basis, Debye-Ang):
   XX=            -36.8282   YY=            -34.9470   ZZ=            -36.3679
   XY=             -0.2914   XZ=              0.6284   YZ=             -2.3460

 Normal termination of Gaussian 09 at Fri Aug 26 09:36:21 2022.
