 Gaussian 09, Revision E.01,
 Gaussian 09:  ES64L-G09RevE.01 30-Nov-2015

 -----
 #P G4
 -----

 --------
 Frag_730
 --------
 Symbolic Z-matrix:
 Charge =  0 Multiplicity = 1

 SCF Done:  E(RB3LYP) =  -211.325295146     A.U. after   13 cycles
 SCF Done:  E(RB3LYP) =  -211.328071802     A.U. after   12 cycles
 SCF Done:  E(RB3LYP) =  -211.322195226     A.U. after   14 cycles
 SCF Done:  E(RB3LYP) =  -211.328344451     A.U. after   10 cycles
 SCF Done:  E(RB3LYP) =  -211.328149139     A.U. after   11 cycles
 SCF Done:  E(RB3LYP) =  -211.328450503     A.U. after    8 cycles
 SCF Done:  E(RB3LYP) =  -211.328581586     A.U. after   10 cycles
 SCF Done:  E(RB3LYP) =  -211.328536972     A.U. after   10 cycles
 SCF Done:  E(RB3LYP) =  -211.328624180     A.U. after   10 cycles
 SCF Done:  E(RB3LYP) =  -211.328630034     A.U. after    8 cycles
 SCF Done:  E(RB3LYP) =  -211.328630246     A.U. after    7 cycles
 Optimization completed.
    -- Stationary point found.
 Normal termination of Gaussian 09 at Tue Aug 23 08:55:49 2022.

 ----------------------------------------------------------
 #P Geom=AllCheck Guess=TCheck SCRF=Check B3LYP/GTBas3 Freq
 ----------------------------------------------------------

 Structure from the checkpoint file:  "G4.Frag_730.chk"
 --------
 Frag_730
 --------
 Charge =  0 Multiplicity = 1

 SCF Done:  E(RB3LYP) =  -211.328630246     A.U. after    1 cycles

  Exact polarizability:  65.218  -1.072  40.531   3.513   1.160  37.197
 Approx polarizability:  97.992  -3.210  54.092   9.346   1.654  55.252

                      1                      2                      3
                      A                      A                      A
 Frequencies --    184.1076               211.7393               258.5593
 Red. masses --      3.0755                 1.8449                 1.0203
 Frc consts  --      0.0614                 0.0487                 0.0402
 IR Inten    --      1.9009                10.3531                16.8064

                      4                      5                      6
                      A                      A                      A
 Frequencies --    294.6895               381.0378               539.4519
 Red. masses --      1.5546                 2.4854                 3.8020
 Frc consts  --      0.0795                 0.2126                 0.6519
 IR Inten    --     16.9372                 6.4757                 2.1768

                      7                      8                      9
                      A                      A                      A
 Frequencies --    559.4255               624.6782               652.7413
 Red. masses --      4.4496                 1.2142                 1.2313
 Frc consts  --      0.8205                 0.2792                 0.3091
 IR Inten    --      2.0562                44.3927                39.3867

                     10                     11                     12
                      A                      A                      A
 Frequencies --    789.8319               881.9815               941.4956
 Red. masses --      2.9904                 1.6111                 1.4909
 Frc consts  --      1.0991                 0.7384                 0.7786
 IR Inten    --      6.0644               141.5856                16.6782

                     13                     14                     15
                      A                      A                      A
 Frequencies --   1021.2358              1079.4324              1164.7570
 Red. masses --      1.6352                 2.7347                 1.4897
 Frc consts  --      1.0048                 1.8773                 1.1908
 IR Inten    --      4.3526                29.4350                 9.3904

                     16                     17                     18
                      A                      A                      A
 Frequencies --   1217.6748              1336.6199              1400.7163
 Red. masses --      1.5852                 1.2679                 1.2260
 Frc consts  --      1.3849                 1.3346                 1.4173
 IR Inten    --      9.4915                 9.6457                 2.1903

                     19                     20                     21
                      A                      A                      A
 Frequencies --   1405.7211              1487.0842              1496.8422
 Red. masses --      1.3643                 1.0474                 1.0641
 Frc consts  --      1.5883                 1.3646                 1.4047
 IR Inten    --     18.9288                 2.2127                 2.4594

                     22                     23                     24
                      A                      A                      A
 Frequencies --   1650.9847              2239.8328              3010.7959
 Red. masses --      1.0872                 5.9085                 1.0824
 Frc consts  --      1.7460                17.4647                 5.7810
 IR Inten    --     21.5498                 0.1803                17.0723

                     25                     26                     27
                      A                      A                      A
 Frequencies --   3030.6792              3105.9420              3113.6086
 Red. masses --      1.0341                 1.1022                 1.1024
 Frc consts  --      5.5961                 6.2645                 6.2966
 IR Inten    --     20.5304                28.8904                25.4958

                     28                     29                     30
                      A                      A                      A
 Frequencies --   3474.5375              3505.1972              3558.5500
 Red. masses --      1.0486                 1.1627                 1.0925
 Frc consts  --      7.4585                 8.4171                 8.1511
 IR Inten    --      1.0294                59.2140                 0.1335

 - Thermochemistry -
 -------------------
 Temperature   298.150 Kelvin.  Pressure   1.00000 Atm.
 Atom     1 has atomic number  6 and mass  12.00000

 Molecular mass:    69.05785 amu.
 Principal axes and moments of inertia in atomic units:
                           1         2         3
     Eigenvalues --   218.73020 464.11124 626.26271
           X            0.99979   0.02039   0.00078
           Y           -0.02039   0.99975   0.00871
           Z           -0.00061  -0.00872   0.99996
 This molecule is an asymmetric top.
 Rotational symmetry number  1.
 Rotational temperatures (Kelvin)      0.39598     0.18662     0.13830
 Rotational constants (GHZ):           8.25099     3.88860     2.88176
 Zero-point vibrational energy     266886.6 (Joules/Mol)
                                   63.78742 (Kcal/Mol)
 Warning -- explicit consideration of   7 degrees of freedom as
           vibrations may cause significant error
 Vibrational temperatures:    264.89   304.65   372.01   423.99   548.23
          (Kelvin)            776.15   804.89   898.77   939.15  1136.39
                             1268.97  1354.60  1469.33  1553.06  1675.82
                             1751.96  1923.10  2015.32  2022.52  2139.58
                             2153.62  2375.40  3222.62  4331.86  4360.47
                             4468.75  4479.78  4999.08  5043.19  5119.95

 Zero-point correction=                           0.101652 (Hartree/Particle)
 Thermal correction to Energy=                    0.107821
 Thermal correction to Enthalpy=                  0.108766
 Thermal correction to Gibbs Free Energy=         0.072931
 Sum of electronic and zero-point Energies=           -211.226979
 Sum of electronic and thermal Energies=              -211.220809
 Sum of electronic and thermal Enthalpies=            -211.219865
 Sum of electronic and thermal Free Energies=         -211.255699

                     E (Thermal)             CV                S
                      KCal/Mol        Cal/Mol-Kelvin    Cal/Mol-Kelvin
 Total                   67.659             22.030             75.420
 Electronic               0.000              0.000              0.000
 Translational            0.889              2.981             38.614
 Rotational               0.889              2.981             25.656
 Vibrational             65.881             16.069             11.150
 Vibration     1          0.631              1.861              2.286
 Vibration     2          0.643              1.823              2.029
 Vibration     3          0.667              1.748              1.671
 Vibration     4          0.689              1.684              1.447
 Vibration     5          0.751              1.511              1.035
 Vibration     6          0.895              1.163              0.566
 Vibration     7          0.915              1.119              0.525

 Optimization completed.
    -- Stationary point found.
 Normal termination of Gaussian 09 at Tue Aug 23 08:57:19 2022.

 -----------------------------------------------------------------
 #P Geom=AllCheck Guess=TCheck SCRF=Check CCSD(T,E4T,FrzG4)/GTBas1
 -----------------------------------------------------------------

 Structure from the checkpoint file:  "G4.Frag_730.chk"
 --------
 Frag_730
 --------
 Charge =  0 Multiplicity = 1

 SCF Done:  E(RHF) =  -209.914878991     A.U. after   13 cycles
 E2 =    -0.6735260419D+00 EUMP2 =    -0.21058840503250D+03
 CCSD(T)
 CCSD(T)= -0.21065704111D+03
 -210.6323154\CCSD(T)=-210.6570411\RMSD=7.826e-09\PG=C01 [X(C4H7N1)]\\@
 Normal termination of Gaussian 09 at Tue Aug 23 08:58:59 2022.

 ---------------------------------------------------------
 #P Geom=AllCheck Guess=TCheck SCRF=Check MP4=FrzG4/GTBas2
 ---------------------------------------------------------

 Structure from the checkpoint file:  "G4.Frag_730.chk"
 --------
 Frag_730
 --------
 Charge =  0 Multiplicity = 1

 SCF Done:  E(RHF) =  -209.923721406     A.U. after   15 cycles
 E2 =    -0.6808503536D+00 EUMP2 =    -0.21060457175977D+03
 Normal termination of Gaussian 09 at Tue Aug 23 09:00:32 2022.

 ---------------------------------------------------------
 #P Geom=AllCheck Guess=TCheck SCRF=Check MP4=FrzG4/GTBas3
 ---------------------------------------------------------

 Structure from the checkpoint file:  "G4.Frag_730.chk"
 --------
 Frag_730
 --------
 Charge =  0 Multiplicity = 1

 SCF Done:  E(RHF) =  -209.945015653     A.U. after   12 cycles
 E2 =    -0.8195731510D+00 EUMP2 =    -0.21076458880370D+03
 Normal termination of Gaussian 09 at Tue Aug 23 09:37:32 2022.

 -----------------------------------------------------------
 #P Geom=AllCheck Guess=TCheck SCRF=Check MP2=Full/GTLargeXP
 -----------------------------------------------------------

 Structure from the checkpoint file:  "G4.Frag_730.chk"
 --------
 Frag_730
 --------
 Charge =  0 Multiplicity = 1

 SCF Done:  E(RHF) =  -209.995693609     A.U. after   13 cycles
 E2 =    -0.1082951034D+01 EUMP2 =    -0.21107864464351D+03
 Normal termination of Gaussian 09 at Tue Aug 23 09:40:02 2022.
 SCF Done:  E(RHF) =  -210.012073785     A.U. after    9 cycles
 Normal termination of Gaussian 09 at Tue Aug 23 09:43:20 2022.

                         Standard orientation:
 ---------------------------------------------------------------------
 Center     Atomic      Atomic             Coordinates (Angstroms)
 Number     Number       Type             X           Y           Z
 ---------------------------------------------------------------------
      1          6           0       -2.212257    0.025481   -0.112797
      2          6           0       -1.037078   -0.021290    0.133514
      3          6           0        0.403467   -0.042574    0.396405
      4          6           0        1.071951    1.230838   -0.164243
      5          7           0        0.973978   -1.306362   -0.101418
      6          1           0       -3.254565    0.053776   -0.313644
      7          1           0        0.545596   -0.047316    1.486064
      8          1           0        0.948081    1.279514   -1.250661
      9          1           0        2.143074    1.221822    0.064170
     10          1           0        0.633758    2.134401    0.270560
     11          1           0        0.829125   -1.362527   -1.106392
     12          1           0        1.980591   -1.289864    0.042553
 ---------------------------------------------------------------------

 SCF Done:  E(RHF) =  -210.015400959     A.U. after    8 cycles

 The electronic state is 1-A.
 Alpha  occ. eigenvalues --  -15.54962 -11.28723 -11.23021 -11.22723 -11.22076
 Alpha  occ. eigenvalues --   -1.19856  -1.04208  -0.98653  -0.86692  -0.72598
 Alpha  occ. eigenvalues --   -0.68651  -0.62207  -0.59500  -0.58438  -0.53932
 Alpha  occ. eigenvalues --   -0.51760  -0.41116  -0.39198  -0.38222
 Alpha virt. eigenvalues --    0.03590   0.03993   0.04653   0.05201   0.06657
 Alpha virt. eigenvalues --    0.07188   0.07629   0.07838   0.08941   0.09870
 Alpha virt. eigenvalues --    0.10399   0.11134   0.12570   0.13397   0.13742

 Mulliken charges:
               1
     1  C   -0.476340
     2  C    0.117497
     3  C    0.021415
     4  C   -0.512758
     5  N   -0.660313
     6  H    0.242223
     7  H    0.181715
     8  H    0.171948
     9  H    0.161353
    10  H    0.177572
    11  H    0.291827
    12  H    0.283861
 Sum of Mulliken charges =  -0.00000

 Dipole moment (field-independent basis, Debye):
    X=              1.2101    Y=              1.1656    Z=             -0.5757  Tot=              1.7761
 Quadrupole moment (field-independent basis, Debye-Ang):
   XX=            -25.1773   YY=            -35.9158   ZZ=            -30.9604
   XY=             -0.5781   XZ=              0.9156   YZ=              1.7011

 Normal termination of Gaussian 09 at Tue Aug 23 11:12:20 2022.
