 Gaussian 09, Revision E.01,
 Gaussian 09:  ES64L-G09RevE.01 30-Nov-2015

 -----
 #P G4
 -----

 --------
 Frag_601
 --------
 Symbolic Z-matrix:
 Charge =  0 Multiplicity = 1

 SCF Done:  E(RB3LYP) =  -323.689086205     A.U. after   14 cycles
 SCF Done:  E(RB3LYP) =  -323.701408613     A.U. after   13 cycles
 SCF Done:  E(RB3LYP) =  -323.703094333     A.U. after   12 cycles
 SCF Done:  E(RB3LYP) =  -323.703717961     A.U. after   12 cycles
 SCF Done:  E(RB3LYP) =  -323.705003011     A.U. after   13 cycles
 SCF Done:  E(RB3LYP) =  -323.707971356     A.U. after   13 cycles
 SCF Done:  E(RB3LYP) =  -323.709460987     A.U. after   13 cycles
 SCF Done:  E(RB3LYP) =  -323.705912954     A.U. after   13 cycles
 SCF Done:  E(RB3LYP) =  -323.710119407     A.U. after   11 cycles
 SCF Done:  E(RB3LYP) =  -323.710419109     A.U. after   12 cycles
 SCF Done:  E(RB3LYP) =  -323.713596960     A.U. after   10 cycles
 SCF Done:  E(RB3LYP) =  -323.713611312     A.U. after   10 cycles
 SCF Done:  E(RB3LYP) =  -323.713612075     A.U. after    7 cycles
 Optimization completed.
    -- Stationary point found.
 Normal termination of Gaussian 09 at Tue Aug 23 06:07:42 2022.

 ----------------------------------------------------------
 #P Geom=AllCheck Guess=TCheck SCRF=Check B3LYP/GTBas3 Freq
 ----------------------------------------------------------

 Structure from the checkpoint file:  "G4.Frag_601.chk"
 --------
 Frag_601
 --------
 Charge =  0 Multiplicity = 1

 SCF Done:  E(RB3LYP) =  -323.713612075     A.U. after    1 cycles

  Exact polarizability:  58.749  -1.910  53.061   0.087  -0.238  33.957
 Approx polarizability:  84.249  -7.286  79.338   1.657  -1.403  50.142

                      1                      2                      3
                      A                      A                      A
 Frequencies --     73.8948               110.6578               154.9951
 Red. masses --      2.6418                 1.0544                 1.4334
 Frc consts  --      0.0085                 0.0076                 0.0203
 IR Inten    --      3.8258                 0.0614                 0.1776

                      4                      5                      6
                      A                      A                      A
 Frequencies --    234.0709               288.8012               400.0121
 Red. masses --      2.7294                 2.9790                 3.9755
 Frc consts  --      0.0881                 0.1464                 0.3748
 IR Inten    --      4.1177                 5.9179                22.4528

                      7                      8                      9
                      A                      A                      A
 Frequencies --    451.0659               510.8912               611.2768
 Red. masses --      3.3081                 1.2687                 2.4404
 Frc consts  --      0.3966                 0.1951                 0.5373
 IR Inten    --      3.2723                53.5088                31.2200

                     10                     11                     12
                      A                      A                      A
 Frequencies --    619.1383               738.2996               980.3834
 Red. masses --      4.1491                 4.1532                 2.2700
 Frc consts  --      0.9371                 1.3338                 1.2855
 IR Inten    --     14.9640                12.5387                33.5710

                     13                     14                     15
                      A                      A                      A
 Frequencies --   1029.4315              1047.7806              1153.8081
 Red. masses --      1.7724                 1.6675                 1.3060
 Frc consts  --      1.1066                 1.0786                 1.0243
 IR Inten    --      8.6911                 5.5812                 8.4461

                     16                     17                     18
                      A                      A                      A
 Frequencies --   1174.4899              1250.5598              1381.7310
 Red. masses --      2.0263                 4.3326                 1.3065
 Frc consts  --      1.6469                 3.9922                 1.4696
 IR Inten    --     15.2087                69.0069                14.1759

                     19                     20                     21
                      A                      A                      A
 Frequencies --   1414.4662              1452.3697              1463.9211
 Red. masses --      2.1420                 1.1642                 1.0467
 Frc consts  --      2.5250                 1.4469                 1.3216
 IR Inten    --    163.7652                 3.3814                12.0150

                     22                     23                     24
                      A                      A                      A
 Frequencies --   1476.4187              1487.6882              1511.4257
 Red. masses --      1.1267                 1.0497                 1.1294
 Frc consts  --      1.4471                 1.3688                 1.5201
 IR Inten    --     25.8069                 5.6560                48.9467

                     25                     26                     27
                      A                      A                      A
 Frequencies --   1581.4653              1719.0820              3023.5313
 Red. masses --      1.7902                 7.7232                 1.0426
 Frc consts  --      2.6380                13.4475                 5.6159
 IR Inten    --     46.9912               253.3646                46.1484

                     28                     29                     30
                      A                      A                      A
 Frequencies --   3048.4477              3086.7290              3114.6613
 Red. masses --      1.0386                 1.0972                 1.0992
 Frc consts  --      5.6865                 6.1593                 6.2825
 IR Inten    --      5.4631                19.7145                 7.9774

                     31                     32                     33
                      A                      A                      A
 Frequencies --   3159.3261              3162.8109              3505.7293
 Red. masses --      1.0991                 1.0987                 1.0636
 Frc consts  --      6.4639                 6.4753                 7.7014
 IR Inten    --      9.3099                 3.7611                85.6873

 - Thermochemistry -
 -------------------
 Temperature   298.150 Kelvin.  Pressure   1.00000 Atm.
 Atom     1 has atomic number  6 and mass  12.00000

 Molecular mass:    89.04768 amu.
 Principal axes and moments of inertia in atomic units:
                           1         2         3
     Eigenvalues --   356.01389 510.57965 841.07864
           X            0.99959   0.02849  -0.00422
           Y           -0.02848   0.99959   0.00218
           Z            0.00428  -0.00206   0.99999
 This molecule is an asymmetric top.
 Rotational symmetry number  1.
 Rotational temperatures (Kelvin)      0.24329     0.16964     0.10298
 Rotational constants (GHZ):           5.06930     3.53469     2.14575
 Zero-point vibrational energy     277649.4 (Joules/Mol)
                                   66.35981 (Kcal/Mol)
 Warning -- explicit consideration of  10 degrees of freedom as
           vibrations may cause significant error
 Vibrational temperatures:    106.32   159.21   223.00   336.78   415.52
          (Kelvin)            575.53   648.98   735.06   879.49   890.80
                             1062.25  1410.55  1481.12  1507.52  1660.07
                             1689.83  1799.27  1988.00  2035.10  2089.63
                             2106.25  2124.23  2140.45  2174.60  2275.37
                             2473.37  4350.18  4386.03  4441.11  4481.30
                             4545.56  4550.57  5043.96

 Zero-point correction=                           0.105751 (Hartree/Particle)
 Thermal correction to Energy=                    0.113055
 Thermal correction to Enthalpy=                  0.114000
 Thermal correction to Gibbs Free Energy=         0.074494
 Sum of electronic and zero-point Energies=           -323.607861
 Sum of electronic and thermal Energies=              -323.600557
 Sum of electronic and thermal Enthalpies=            -323.599612
 Sum of electronic and thermal Free Energies=         -323.639118

                     E (Thermal)             CV                S
                      KCal/Mol        Cal/Mol-Kelvin    Cal/Mol-Kelvin
 Total                   70.943             24.476             83.146
 Electronic               0.000              0.000              0.000
 Translational            0.889              2.981             39.372
 Rotational               0.889              2.981             26.528
 Vibrational             69.166             18.515             17.247
 Vibration     1          0.599              1.966              4.047
 Vibration     2          0.606              1.941              3.257
 Vibration     3          0.620              1.897              2.610
 Vibration     4          0.654              1.789              1.848
 Vibration     5          0.685              1.695              1.481
 Vibration     6          0.766              1.470              0.963
 Vibration     7          0.810              1.359              0.793
 Vibration     8          0.866              1.226              0.631
 Vibration     9          0.970              1.008              0.431
 Vibration    10          0.979              0.991              0.418

 Normal termination of Gaussian 09 at Tue Aug 23 06:09:43 2022.

 -----------------------------------------------------------------
 #P Geom=AllCheck Guess=TCheck SCRF=Check CCSD(T,E4T,FrzG4)/GTBas1
 -----------------------------------------------------------------

 Structure from the checkpoint file:  "G4.Frag_601.chk"
 --------
 Frag_601
 --------
 Charge =  0 Multiplicity = 1

 SCF Done:  E(RHF) =  -321.791964947     A.U. after   13 cycles
 E2 =    -0.9104346474D+00 EUMP2 =    -0.32270239959447D+03
 CCSD(T)
 CCSD(T)= -0.32277225713D+03
 Normal termination of Gaussian 09 at Tue Aug 23 06:15:18 2022.

 ---------------------------------------------------------
 #P Geom=AllCheck Guess=TCheck SCRF=Check MP4=FrzG4/GTBas2
 ---------------------------------------------------------

 Structure from the checkpoint file:  "G4.Frag_601.chk"
 --------
 Frag_601
 --------
 Charge =  0 Multiplicity = 1

 SCF Done:  E(RHF) =  -321.802093518     A.U. after   13 cycles
 E2 =    -0.9240090936D+00 EUMP2 =    -0.32272610261168D+03
 Normal termination of Gaussian 09 at Tue Aug 23 06:20:39 2022.

 ---------------------------------------------------------
 #P Geom=AllCheck Guess=TCheck SCRF=Check MP4=FrzG4/GTBas3
 ---------------------------------------------------------

 Structure from the checkpoint file:  "G4.Frag_601.chk"
 --------
 Frag_601
 --------
 Charge =  0 Multiplicity = 1

 SCF Done:  E(RHF) =  -321.831995532     A.U. after   12 cycles
 E2 =    -0.1118146954D+01 EUMP2 =    -0.32295014248675D+03
 Normal termination of Gaussian 09 at Tue Aug 23 08:36:42 2022.

 -----------------------------------------------------------
 #P Geom=AllCheck Guess=TCheck SCRF=Check MP2=Full/GTLargeXP
 -----------------------------------------------------------

 Structure from the checkpoint file:  "G4.Frag_601.chk"
 --------
 Frag_601
 --------
 Charge =  0 Multiplicity = 1

 SCF Done:  E(RHF) =  -321.917944043     A.U. after   12 cycles
 E2 =    -0.1460717072D+01 EUMP2 =    -0.32337866111468D+03
 Normal termination of Gaussian 09 at Tue Aug 23 08:41:55 2022.
 SCF Done:  E(RHF) =  -321.944308119     A.U. after    9 cycles
 Normal termination of Gaussian 09 at Tue Aug 23 08:47:14 2022.

                         Standard orientation:
 ---------------------------------------------------------------------
 Center     Atomic      Atomic             Coordinates (Angstroms)
 Number     Number       Type             X           Y           Z
 ---------------------------------------------------------------------
      1          6           0        1.669377    0.989634   -0.021859
      2          6           0        0.725169   -0.194503   -0.012928
      3          8           0        1.110197   -1.360923    0.067636
      4          7           0       -0.603891    0.051381   -0.128818
      5          6           0       -1.346329    1.267295    0.067925
      6          8           0       -1.417742   -1.081372   -0.022931
      7          1           0        1.466909    1.673795   -0.850084
      8          1           0        2.682162    0.599121   -0.118270
      9          1           0        1.599998    1.556165    0.912564
     10          1           0       -0.681372    2.120761   -0.060286
     11          1           0       -2.149687    1.329690   -0.672574
     12          1           0       -1.792084    1.300244    1.070184
     13          1           0       -0.727637   -1.775636    0.063727
 ---------------------------------------------------------------------

 SCF Done:  E(RHF) =  -321.949786136     A.U. after    8 cycles

 The electronic state is 1-A.
 Alpha  occ. eigenvalues --  -20.59753 -20.52921 -15.64302 -11.36430 -11.28126
 Alpha  occ. eigenvalues --  -11.25116  -1.45512  -1.36497  -1.17861  -1.01865
 Alpha  occ. eigenvalues --   -0.96253  -0.79569  -0.71213  -0.67958  -0.67837
 Alpha  occ. eigenvalues --   -0.60840  -0.60236  -0.59416  -0.57442  -0.56027
 Alpha  occ. eigenvalues --   -0.55448  -0.50826  -0.44671  -0.37368
 Alpha virt. eigenvalues --    0.02928   0.03906   0.04776   0.05694   0.06621
 Alpha virt. eigenvalues --    0.07184   0.07373   0.07775   0.08000   0.09872
 Alpha virt. eigenvalues --    0.12045   0.13323   0.14380   0.15519   0.15675

 Mulliken charges:
               1
     1  C   -0.556464
     2  C    0.479940
     3  O   -0.645710
     4  N    0.043923
     5  C   -0.438630
     6  O   -0.522784
     7  H    0.202673
     8  H    0.233045
     9  H    0.202167
    10  H    0.194062
    11  H    0.202611
    12  H    0.187292
    13  H    0.417875
 Sum of Mulliken charges =  -0.00000

 Dipole moment (field-independent basis, Debye):
    X=             -0.0521    Y=              4.1023    Z=              0.1671  Tot=              4.1060
 Quadrupole moment (field-independent basis, Debye-Ang):
   XX=            -38.1796   YY=            -36.0708   ZZ=            -36.3671
   XY=              2.0569   XZ=             -0.4708   YZ=              0.0434

 Normal termination of Gaussian 09 at Tue Aug 23 11:12:58 2022.
