 Gaussian 09, Revision E.01,
 Gaussian 09:  ES64L-G09RevE.01 30-Nov-2015

 -----
 #P G4
 -----

 --------
 Frag_944
 --------
 Symbolic Z-matrix:
 Charge =  0 Multiplicity = 1

 SCF Done:  E(RB3LYP) =  -226.385130849     A.U. after   12 cycles
 SCF Done:  E(RB3LYP) =  -226.391693333     A.U. after   11 cycles
 SCF Done:  E(RB3LYP) =  -226.392833606     A.U. after   10 cycles
 SCF Done:  E(RB3LYP) =  -226.393027418     A.U. after   10 cycles
 SCF Done:  E(RB3LYP) =  -226.393038018     A.U. after    8 cycles
 Optimization completed.
    -- Stationary point found.
 Normal termination of Gaussian 09 at Fri Aug 26 15:16:36 2022.

 ----------------------------------------------------------
 #P Geom=AllCheck Guess=TCheck SCRF=Check B3LYP/GTBas3 Freq
 ----------------------------------------------------------

 Structure from the checkpoint file:  "G4.Frag_944.chk"
 --------
 Frag_944
 --------
 Charge =  0 Multiplicity = 1

 SCF Done:  E(RB3LYP) =  -226.393038018     A.U. after    1 cycles

  Exact polarizability:  42.179  -1.230  26.855  -0.001   0.002  29.699
 Approx polarizability:  51.787  -2.299  37.909  -0.001   0.004  41.779

                      1                      2                      3
                      A                      A                      A
 Frequencies --    105.2301               169.7445               313.7041
 Red. masses --      2.6685                 1.1981                 3.3749
 Frc consts  --      0.0174                 0.0203                 0.1957
 IR Inten    --      2.1782                32.5094                 3.8745

                      4                      5                      6
                      A                      A                      A
 Frequencies --    368.9800               498.2333               837.9007
 Red. masses --      1.1117                 3.7854                 1.6731
 Frc consts  --      0.0892                 0.5536                 0.6921
 IR Inten    --     54.4467                27.7236               168.8951

                      7                      8                      9
                      A                      A                      A
 Frequencies --    935.7243               942.5256               980.1059
 Red. masses --      5.5367                 1.1209                 4.8732
 Frc consts  --      2.8562                 0.5867                 2.7581
 IR Inten    --     13.1860                 1.8265               179.8502

                     10                     11                     12
                      A                      A                      A
 Frequencies --   1166.0163              1228.0158              1239.4158
 Red. masses --      2.6821                 1.6153                 1.1435
 Frc consts  --      2.1485                 1.4352                 1.0350
 IR Inten    --     50.3459                50.1704                 1.0622

                     13                     14                     15
                      A                      A                      A
 Frequencies --   1315.7452              1377.2858              1413.0967
 Red. masses --      1.1393                 1.2672                 1.2448
 Frc consts  --      1.1621                 1.4163                 1.4645
 IR Inten    --      1.8466                 0.1943                30.8549

                     16                     17                     18
                      A                      A                      A
 Frequencies --   1519.7392              1652.5204              1676.6338
 Red. masses --      1.0985                 1.0664                 1.0964
 Frc consts  --      1.4948                 1.7159                 1.8160
 IR Inten    --      2.3354                14.6011                20.8730

                     19                     20                     21
                      A                      A                      A
 Frequencies --   3015.5907              3056.9967              3426.9999
 Red. masses --      1.0551                 1.1108                 1.0474
 Frc consts  --      5.6533                 6.1162                 7.2474
 IR Inten    --     49.7540                50.1581                 1.9585

                     22                     23                     24
                      A                      A                      A
 Frequencies --   3502.3338              3508.9900              3580.1279
 Red. masses --      1.0482                 1.0957                 1.0927
 Frc consts  --      7.5754                 7.9488                 8.2518
 IR Inten    --      0.3424                 0.0012                 1.5485

 - Thermochemistry -
 -------------------
 Temperature   298.150 Kelvin.  Pressure   1.00000 Atm.
 Atom     1 has atomic number  7 and mass  14.00307

 Molecular mass:    62.04801 amu.
 Principal axes and moments of inertia in atomic units:
                           1         2         3
     Eigenvalues --    55.56548 428.95848 454.08093
           X            0.99999  -0.00541  -0.00000
           Y            0.00541   0.99999   0.00012
           Z            0.00000  -0.00012   1.00000
 This molecule is an asymmetric top.
 Rotational symmetry number  1.
 Rotational temperatures (Kelvin)      1.55877     0.20192     0.19075
 Rotational constants (GHZ):          32.47954     4.20726     3.97449
 Zero-point vibrational energy     226283.6 (Joules/Mol)
                                   54.08307 (Kcal/Mol)
 Warning -- explicit consideration of   5 degrees of freedom as
           vibrations may cause significant error
 Vibrational temperatures:    151.40   244.22   451.35   530.88   716.85
          (Kelvin)           1205.55  1346.30  1356.08  1410.15  1677.64
                             1766.84  1783.24  1893.06  1981.60  2033.13
                             2186.56  2377.61  2412.30  4338.76  4398.33
                             4930.68  5039.07  5048.65  5151.00

 Zero-point correction=                           0.086187 (Hartree/Particle)
 Thermal correction to Energy=                    0.091608
 Thermal correction to Enthalpy=                  0.092552
 Thermal correction to Gibbs Free Energy=         0.058439
 Sum of electronic and zero-point Energies=           -226.306851
 Sum of electronic and thermal Energies=              -226.301430
 Sum of electronic and thermal Enthalpies=            -226.300486
 Sum of electronic and thermal Free Energies=         -226.334599

                     E (Thermal)             CV                S
                      KCal/Mol        Cal/Mol-Kelvin    Cal/Mol-Kelvin
 Total                   57.485             17.217             71.798
 Electronic               0.000              0.000              0.000
 Translational            0.889              2.981             38.295
 Rotational               0.889              2.981             23.896
 Vibrational             55.707             11.255              9.606
 Vibration     1          0.605              1.945              3.355
 Vibration     2          0.625              1.880              2.438
 Vibration     3          0.702              1.648              1.343
 Vibration     4          0.741              1.536              1.084
 Vibration     5          0.854              1.254              0.663

 Optimization completed.
    -- Stationary point found.
 Normal termination of Gaussian 09 at Fri Aug 26 15:16:49 2022.

 -----------------------------------------------------------------
 #P Geom=AllCheck Guess=TCheck SCRF=Check CCSD(T,E4T,FrzG4)/GTBas1
 -----------------------------------------------------------------

 Structure from the checkpoint file:  "G4.Frag_944.chk"
 --------
 Frag_944
 --------
 Charge =  0 Multiplicity = 1

 SCF Done:  E(RHF) =  -225.037356497     A.U. after   12 cycles
 E2 =    -0.6380756244D+00 EUMP2 =    -0.22567543212127D+03
 CCSD(T)
 CCSD(T)= -0.22572872402D+03
 CCSD(T)=-225.728724\RMSD=3.819e-09\PG=C01 [X(C1H6N2O1)]\\@
 Normal termination of Gaussian 09 at Fri Aug 26 15:17:16 2022.

 ---------------------------------------------------------
 #P Geom=AllCheck Guess=TCheck SCRF=Check MP4=FrzG4/GTBas2
 ---------------------------------------------------------

 Structure from the checkpoint file:  "G4.Frag_944.chk"
 --------
 Frag_944
 --------
 Charge =  0 Multiplicity = 1

 SCF Done:  E(RHF) =  -225.047369918     A.U. after   12 cycles
 E2 =    -0.6505897888D+00 EUMP2 =    -0.22569795970692D+03
 Normal termination of Gaussian 09 at Fri Aug 26 15:17:24 2022.

 ---------------------------------------------------------
 #P Geom=AllCheck Guess=TCheck SCRF=Check MP4=FrzG4/GTBas3
 ---------------------------------------------------------

 Structure from the checkpoint file:  "G4.Frag_944.chk"
 --------
 Frag_944
 --------
 Charge =  0 Multiplicity = 1

 SCF Done:  E(RHF) =  -225.068589460     A.U. after   11 cycles
 E2 =    -0.7888264303D+00 EUMP2 =    -0.22585741589007D+03
 Normal termination of Gaussian 09 at Fri Aug 26 15:17:57 2022.

 -----------------------------------------------------------
 #P Geom=AllCheck Guess=TCheck SCRF=Check MP2=Full/GTLargeXP
 -----------------------------------------------------------

 Structure from the checkpoint file:  "G4.Frag_944.chk"
 --------
 Frag_944
 --------
 Charge =  0 Multiplicity = 1

 SCF Done:  E(RHF) =  -225.133987803     A.U. after   12 cycles
 E2 =    -0.1024046478D+01 EUMP2 =    -0.22615803428070D+03
 Normal termination of Gaussian 09 at Fri Aug 26 15:18:17 2022.
 SCF Done:  E(RHF) =  -225.152355484     A.U. after    9 cycles
 Normal termination of Gaussian 09 at Fri Aug 26 15:18:47 2022.

                         Standard orientation:
 ---------------------------------------------------------------------
 Center     Atomic      Atomic             Coordinates (Angstroms)
 Number     Number       Type             X           Y           Z
 ---------------------------------------------------------------------
      1          7           0        1.829599   -0.087789    0.000009
      2          6           0        0.533898    0.516078   -0.000089
      3          8           0       -0.483098   -0.497692    0.000118
      4          7           0       -1.767982    0.151727   -0.000090
      5          1           0        1.939091   -0.681353    0.816421
      6          1           0        1.939055   -0.681637   -0.816200
      7          1           0        0.417539    1.147970    0.889591
      8          1           0        0.417469    1.147674   -0.889962
      9          1           0       -2.241441   -0.248195   -0.810164
     10          1           0       -2.241638   -0.246960    0.810474
 ---------------------------------------------------------------------

 SCF Done:  E(RHF) =  -225.156400608     A.U. after    8 cycles

 The electronic state is 1-A.
 Alpha  occ. eigenvalues --  -20.57898 -15.60505 -15.54453 -11.29739  -1.40097
 Alpha  occ. eigenvalues --   -1.18988  -1.07599  -0.86784  -0.71242  -0.66687
 Alpha  occ. eigenvalues --   -0.65702  -0.63833  -0.55523  -0.54822  -0.44055
 Alpha  occ. eigenvalues --   -0.43191  -0.41470
 Alpha virt. eigenvalues --    0.04660   0.05209   0.05611   0.06272   0.09100
 Alpha virt. eigenvalues --    0.09186   0.09394   0.11465   0.11763   0.12654
 Alpha virt. eigenvalues --    0.14724   0.15522   0.18665   0.20455   0.20625

 Mulliken charges:
               1
     1  N   -0.651579
     2  C    0.002052
     3  O   -0.300934
     4  N   -0.549422
     5  H    0.285559
     6  H    0.285555
     7  H    0.155682
     8  H    0.155716
     9  H    0.308695
    10  H    0.308676
 Sum of Mulliken charges =  -0.00000

 Dipole moment (field-independent basis, Debye):
    X=             -1.2681    Y=             -1.0481    Z=              0.0008  Tot=              1.6451
 Quadrupole moment (field-independent basis, Debye-Ang):
   XX=            -23.8545   YY=            -26.6556   ZZ=            -21.8820
   XY=             -0.5426   XZ=             -0.0016   YZ=              0.0026

 Normal termination of Gaussian 09 at Fri Aug 26 15:21:35 2022.
