 Gaussian 09, Revision E.01,
 Gaussian 09:  ES64L-G09RevE.01 30-Nov-2015

 -----
 #P G4
 -----

 --------
 Frag_904
 --------
 Symbolic Z-matrix:
 Charge =  0 Multiplicity = 1

 SCF Done:  E(RB3LYP) =  -154.738000621     A.U. after   12 cycles
 SCF Done:  E(RB3LYP) =  -154.744692216     A.U. after   12 cycles
 SCF Done:  E(RB3LYP) =  -154.744775274     A.U. after   10 cycles
 SCF Done:  E(RB3LYP) =  -154.744762527     A.U. after   10 cycles
 SCF Done:  E(RB3LYP) =  -154.744785651     A.U. after    5 cycles
 SCF Done:  E(RB3LYP) =  -154.744501617     A.U. after   10 cycles
 SCF Done:  E(RB3LYP) =  -154.744796097     A.U. after    7 cycles
 SCF Done:  E(RB3LYP) =  -154.744797466     A.U. after    7 cycles
 SCF Done:  E(RB3LYP) =  -154.744779897     A.U. after    8 cycles
 SCF Done:  E(RB3LYP) =  -154.744797568     A.U. after    8 cycles
 Optimization completed.
    -- Stationary point found.
 Normal termination of Gaussian 09 at Wed Aug 24 23:49:00 2022.

 ----------------------------------------------------------
 #P Geom=AllCheck Guess=TCheck SCRF=Check B3LYP/GTBas3 Freq
 ----------------------------------------------------------

 Structure from the checkpoint file:  "G4.Frag_904.chk"
 --------
 Frag_904
 --------
 Charge =  0 Multiplicity = 1

 SCF Done:  E(RB3LYP) =  -154.744797568     A.U. after    1 cycles

  Exact polarizability:  99.232  -0.000  28.304  -0.000  -0.000  18.971
 Approx polarizability: 192.188   0.000  38.541  -0.001   0.000  27.396

                      1                      2                      3
                      A                      A                      A
 Frequencies --    229.0051               235.3246               349.9543
 Red. masses --      2.4678                 3.9260                 3.6939
 Frc consts  --      0.0763                 0.1281                 0.2665
 IR Inten    --      4.8219                 3.3096                 0.0000

                      4                      5                      6
                      A                      A                      A
 Frequencies --    575.3596               780.0057               884.7271
 Red. masses --      7.6205                 1.0078                 1.3153
 Frc consts  --      1.4863                 0.3613                 0.6066
 IR Inten    --      0.0000                 0.0000                 0.0001

                      7                      8                      9
                      A                      A                      A
 Frequencies --    887.1443               908.8728              1018.0656
 Red. masses --      1.3326                 3.7523                 1.4366
 Frc consts  --      0.6179                 1.8262                 0.8773
 IR Inten    --     80.6511                 0.0000                 0.0000

                     10                     11                     12
                      A                      A                      A
 Frequencies --   1043.6404              1415.4047              1473.6346
 Red. masses --      1.4392                 1.1128                 1.1795
 Frc consts  --      0.9236                 1.3135                 1.5091
 IR Inten    --      0.5122                 0.0001                 0.0000

                     13                     14                     15
                      A                      A                      A
 Frequencies --   1696.5546              2230.2477              3126.7082
 Red. masses --      6.4709                11.1722                 1.0556
 Frc consts  --     10.9736                32.7411                 6.0805
 IR Inten    --     11.5901                 0.0000                 0.0000

                     16                     17                     18
                      A                      A                      A
 Frequencies --   3129.1214              3201.8379              3201.9755
 Red. masses --      1.0591                 1.1144                 1.1141
 Frc consts  --      6.1098                 6.7314                 6.7300
 IR Inten    --      5.6147                 6.3519                 0.0015

 - Thermochemistry -
 -------------------
 Temperature   298.150 Kelvin.  Pressure   1.00000 Atm.
 Atom     1 has atomic number  6 and mass  12.00000

 Molecular mass:    52.03130 amu.
 Principal axes and moments of inertia in atomic units:
                           1         2         3
     Eigenvalues --    12.32431 449.32914 461.65345
           X            1.00000  -0.00000   0.00000
           Y            0.00000   1.00000   0.00000
           Z           -0.00000  -0.00000   1.00000
 This molecule is an asymmetric top.
 Rotational symmetry number  1.
 Rotational temperatures (Kelvin)      7.02788     0.19276     0.18762
 Rotational constants (GHZ):         146.43750     4.01652     3.90930
 Zero-point vibrational energy     157832.8 (Joules/Mol)
                                   37.72294 (Kcal/Mol)
 Warning -- explicit consideration of   4 degrees of freedom as
           vibrations may cause significant error
 Vibrational temperatures:    329.49   338.58   503.51   827.81  1122.25
          (Kelvin)           1272.92  1276.40  1307.66  1464.77  1501.56
                             2036.45  2120.23  2440.96  3208.83  4498.63
                             4502.10  4606.72  4606.92

 Zero-point correction=                           0.060115 (Hartree/Particle)
 Thermal correction to Energy=                    0.064838
 Thermal correction to Enthalpy=                  0.065782
 Thermal correction to Gibbs Free Energy=         0.034198
 Sum of electronic and zero-point Energies=           -154.684682
 Sum of electronic and thermal Energies=              -154.679959
 Sum of electronic and thermal Enthalpies=            -154.679015
 Sum of electronic and thermal Free Energies=         -154.710599

                     E (Thermal)             CV                S
                      KCal/Mol        Cal/Mol-Kelvin    Cal/Mol-Kelvin
 Total                   40.687             15.331             66.474
 Electronic               0.000              0.000              0.000
 Translational            0.889              2.981             37.771
 Rotational               0.889              2.981             22.463
 Vibrational             38.909              9.369              6.240
 Vibration     1          0.652              1.797              1.887
 Vibration     2          0.655              1.787              1.838
 Vibration     3          0.727              1.575              1.166
 Vibration     4          0.932              1.085              0.494

 Optimization completed.
    -- Stationary point found.
 Normal termination of Gaussian 09 at Wed Aug 24 23:49:25 2022.

 -----------------------------------------------------------------
 #P Geom=AllCheck Guess=TCheck SCRF=Check CCSD(T,E4T,FrzG4)/GTBas1
 -----------------------------------------------------------------

 Structure from the checkpoint file:  "G4.Frag_904.chk"
 --------
 Frag_904
 --------
 Charge =  0 Multiplicity = 1

 SCF Done:  E(RHF) =  -153.689539824     A.U. after   11 cycles
 E2 =    -0.4965250863D+00 EUMP2 =    -0.15418606490981D+03
 CCSD(T)
 CCSD(T)= -0.15424578592D+03
 440771\MP4SDQ=-154.2203686\CCSD=-154.2214658\CCSD(T)=-154.2457859\RMSD
 Normal termination of Gaussian 09 at Wed Aug 24 23:49:42 2022.

 ---------------------------------------------------------
 #P Geom=AllCheck Guess=TCheck SCRF=Check MP4=FrzG4/GTBas2
 ---------------------------------------------------------

 Structure from the checkpoint file:  "G4.Frag_904.chk"
 --------
 Frag_904
 --------
 Charge =  0 Multiplicity = 1

 SCF Done:  E(RHF) =  -153.696268792     A.U. after   11 cycles
 E2 =    -0.4999179945D+00 EUMP2 =    -0.15419618678663D+03
 Normal termination of Gaussian 09 at Wed Aug 24 23:49:49 2022.

 ---------------------------------------------------------
 #P Geom=AllCheck Guess=TCheck SCRF=Check MP4=FrzG4/GTBas3
 ---------------------------------------------------------

 Structure from the checkpoint file:  "G4.Frag_904.chk"
 --------
 Frag_904
 --------
 Charge =  0 Multiplicity = 1

 SCF Done:  E(RHF) =  -153.709185077     A.U. after   10 cycles
 E2 =    -0.5944031381D+00 EUMP2 =    -0.15430358821544D+03
 Normal termination of Gaussian 09 at Wed Aug 24 23:50:56 2022.

 -----------------------------------------------------------
 #P Geom=AllCheck Guess=TCheck SCRF=Check MP2=Full/GTLargeXP
 -----------------------------------------------------------

 Structure from the checkpoint file:  "G4.Frag_904.chk"
 --------
 Frag_904
 --------
 Charge =  0 Multiplicity = 1

 SCF Done:  E(RHF) =  -153.743957491     A.U. after   11 cycles
 E2 =    -0.7964991512D+00 EUMP2 =    -0.15454045664221D+03
 Normal termination of Gaussian 09 at Wed Aug 24 23:51:30 2022.
 SCF Done:  E(RHF) =  -153.755925288     A.U. after    8 cycles
 Normal termination of Gaussian 09 at Wed Aug 24 23:52:31 2022.

                         Standard orientation:
 ---------------------------------------------------------------------
 Center     Atomic      Atomic             Coordinates (Angstroms)
 Number     Number       Type             X           Y           Z
 ---------------------------------------------------------------------
      1          6           0       -1.944459   -0.000149    0.000006
      2          6           0       -0.632444    0.000254    0.000000
      3          6           0        0.632443    0.000259   -0.000004
      4          6           0        1.944460   -0.000150   -0.000009
      5          1           0       -2.514499    0.924933   -0.000036
      6          1           0       -2.513950   -0.925570    0.000018
      7          1           0        2.514503    0.924930    0.000056
      8          1           0        2.513950   -0.925572    0.000003
 ---------------------------------------------------------------------

 SCF Done:  E(RHF) =  -153.758137022     A.U. after    6 cycles

 The electronic state is 1-A.
 Alpha  occ. eigenvalues --  -11.25751 -11.25532 -11.25337 -11.25307  -1.09338
 Alpha  occ. eigenvalues --   -1.01543  -0.89588  -0.69197  -0.65245  -0.62526
 Alpha  occ. eigenvalues --   -0.60322  -0.47742  -0.37529  -0.33639
 Alpha virt. eigenvalues --    0.03780   0.05086   0.05099   0.05477   0.06464
 Alpha virt. eigenvalues --    0.06956   0.07394   0.08389   0.08739   0.10938
 Alpha virt. eigenvalues --    0.11825   0.13811   0.14239   0.14473   0.15126

 Mulliken charges:
               1
     1  C   -0.487018
     2  C    0.068649
     3  C    0.068648
     4  C   -0.487018
     5  H    0.209182
     6  H    0.209187
     7  H    0.209182
     8  H    0.209187
 Sum of Mulliken charges =  -0.00000

 Dipole moment (field-independent basis, Debye):
    X=             -0.0000    Y=             -0.0008    Z=              0.0000  Tot=              0.0008
 Quadrupole moment (field-independent basis, Debye-Ang):
   XX=            -17.6704   YY=            -23.5591   ZZ=            -27.5435
   XY=             -0.0000   XZ=              0.0002   YZ=              0.0000

 Normal termination of Gaussian 09 at Thu Aug 25 00:16:20 2022.
