 Gaussian 09, Revision E.01,
 Gaussian 09:  ES64L-G09RevE.01 30-Nov-2015

 -----
 #P G4
 -----

 --------
 Frag_652
 --------
 Symbolic Z-matrix:
 Charge =  0 Multiplicity = 1

 SCF Done:  E(RB3LYP) =  -322.653686510     A.U. after   14 cycles
 SCF Done:  E(RB3LYP) =  -323.121418880     A.U. after   14 cycles
 SCF Done:  E(RB3LYP) =  -323.309586880     A.U. after   13 cycles
 SCF Done:  E(RB3LYP) =  -323.319815472     A.U. after   11 cycles
 SCF Done:  E(RB3LYP) =  -323.322465740     A.U. after   11 cycles
 SCF Done:  E(RB3LYP) =  -323.322654113     A.U. after   11 cycles
 SCF Done:  E(RB3LYP) =  -323.322780115     A.U. after   10 cycles
 SCF Done:  E(RB3LYP) =  -323.322918034     A.U. after   11 cycles
 SCF Done:  E(RB3LYP) =  -323.323026986     A.U. after   11 cycles
 SCF Done:  E(RB3LYP) =  -323.323165353     A.U. after    9 cycles
 SCF Done:  E(RB3LYP) =  -323.323583800     A.U. after    6 cycles
 SCF Done:  E(RB3LYP) =  -323.323583663     A.U. after    7 cycles
 SCF Done:  E(RB3LYP) =  -323.323583542     A.U. after    7 cycles
 Optimization completed.
    -- Stationary point found.
 Normal termination of Gaussian 09 at Tue Aug 30 09:55:11 2022.

 ----------------------------------------------------------
 #P Geom=AllCheck Guess=TCheck SCRF=Check B3LYP/GTBas3 Freq
 ----------------------------------------------------------

 Structure from the checkpoint file:  "G4.Frag_652.chk"
 --------
 Frag_652
 --------
 Charge =  0 Multiplicity = 1

 SCF Done:  E(RB3LYP) =  -323.323583542     A.U. after    1 cycles

  Exact polarizability:  66.659   0.956  71.077   0.130   0.474  54.955
 Approx polarizability:  91.664  -2.454 112.225  -0.156   0.239  77.752

                      1                      2                      3
                      A                      A                      A
 Frequencies --     48.5043               206.5650               259.4332
 Red. masses --      3.6717                 1.2018                 1.2795
 Frc consts  --      0.0051                 0.0302                 0.0507
 IR Inten    --      2.3645                 0.3906                 2.8633

                      4                      5                      6
                      A                      A                      A
 Frequencies --    261.0570               290.5618               332.0227
 Red. masses --      1.4334                 2.6376                 1.4566
 Frc consts  --      0.0576                 0.1312                 0.0946
 IR Inten    --     13.0163                11.5415                49.8768

                      7                      8                      9
                      A                      A                      A
 Frequencies --    347.0720               394.5550               401.4192
 Red. masses --      1.8939                 2.7690                 2.1723
 Frc consts  --      0.1344                 0.2540                 0.2062
 IR Inten    --     21.7191                 6.6075                 8.9748

                     10                     11                     12
                      A                      A                      A
 Frequencies --    465.1763               516.9191               550.4491
 Red. masses --      1.5694                 2.2754                 2.0367
 Frc consts  --      0.2001                 0.3582                 0.3636
 IR Inten    --     37.6840                14.2777                 1.9498

                     13                     14                     15
                      A                      A                      A
 Frequencies --    578.9751               700.9739               739.2533
 Red. masses --      1.2762                 3.2097                 4.9488
 Frc consts  --      0.2520                 0.9292                 1.5934
 IR Inten    --    168.5680                 4.5669                32.5929

                     16                     17                     18
                      A                      A                      A
 Frequencies --    811.0665               842.5374               872.0232
 Red. masses --      1.4175                 1.1393                 2.4035
 Frc consts  --      0.5494                 0.4765                 1.0768
 IR Inten    --    170.3322                29.0112                 1.5757

                     19                     20                     21
                      A                      A                      A
 Frequencies --    942.8545              1002.5449              1010.9662
 Red. masses --      1.5469                 1.6341                 1.3096
 Frc consts  --      0.8102                 0.9677                 0.7886
 IR Inten    --      0.9862                 6.6766                 1.5629

                     22                     23                     24
                      A                      A                      A
 Frequencies --   1069.3435              1110.2217              1150.1491
 Red. masses --      1.6007                 1.7991                 1.3171
 Frc consts  --      1.0784                 1.3065                 1.0266
 IR Inten    --      0.3136                34.7180                56.1867

                     25                     26                     27
                      A                      A                      A
 Frequencies --   1207.4977              1244.0659              1322.6042
 Red. masses --      2.1973                 3.0222                 1.9133
 Frc consts  --      1.8876                 2.7559                 1.9719
 IR Inten    --     65.9824                24.2733                 3.5333

                     28                     29                     30
                      A                      A                      A
 Frequencies --   1395.2583              1406.1630              1420.0411
 Red. masses --      1.2899                 1.7744                 1.4577
 Frc consts  --      1.4795                 2.0671                 1.7319
 IR Inten    --      8.6814                27.7799                30.7569

                     31                     32                     33
                      A                      A                      A
 Frequencies --   1479.2926              1484.3222              1493.6199
 Red. masses --      1.0498                 1.0502                 1.0578
 Frc consts  --      1.3535                 1.3632                 1.3903
 IR Inten    --      1.5274                 0.3079                 4.3829

                     34                     35                     36
                      A                      A                      A
 Frequencies --   1505.3410              1602.0011              1654.1609
 Red. masses --      1.0584                 1.2929                 1.1065
 Frc consts  --      1.4131                 1.9550                 1.7839
 IR Inten    --      7.9964                76.5847                14.8976

                     37                     38                     39
                      A                      A                      A
 Frequencies --   1706.3740              3038.2985              3041.8906
 Red. masses --      5.4151                 1.0365                 1.0372
 Frc consts  --      9.2898                 5.6375                 5.6547
 IR Inten    --    155.6854                31.1616                 4.1070

                     40                     41                     42
                      A                      A                      A
 Frequencies --   3108.2742              3111.0687              3128.7800
 Red. masses --      1.0989                 1.0989                 1.1026
 Frc consts  --      6.2554                 6.2667                 6.3596
 IR Inten    --     12.4936                30.3515                 0.7017

                     43                     44                     45
                      A                      A                      A
 Frequencies --   3133.8858              3490.7777              3503.8575
 Red. masses --      1.1019                 1.0476                 1.0742
 Frc consts  --      6.3760                 7.5214                 7.7703
 IR Inten    --     35.0260                 0.7274                 0.6616

                     46                     47                     48
                      A                      A                      A
 Frequencies --   3576.5485              3585.0773              3698.9525
 Red. masses --      1.0468                 1.0943                 1.0980
 Frc consts  --      7.8893                 8.2870                 8.8513
 IR Inten    --     13.1394                 0.6048                25.0629

 - Thermochemistry -
 -------------------
 Temperature   298.150 Kelvin.  Pressure   1.00000 Atm.
 Atom     1 has atomic number  6 and mass  12.00000

 Molecular mass:   101.09530 amu.
 Principal axes and moments of inertia in atomic units:
                           1         2         3
     Eigenvalues --   547.89785 779.59765 927.13479
           X            0.99627   0.08598   0.00722
           Y           -0.08607   0.99621   0.01284
           Z           -0.00609  -0.01341   0.99989
 This molecule is an asymmetric top.
 Rotational symmetry number  1.
 Warning -- assumption of classical behavior for rotation
           may cause significant error
 Rotational temperatures (Kelvin)      0.15808     0.11110     0.09342
 Rotational constants (GHZ):           3.29394     2.31496     1.94658
 Zero-point vibrational energy     420145.2 (Joules/Mol)
                                  100.41712 (Kcal/Mol)
 Warning -- explicit consideration of  13 degrees of freedom as
           vibrations may cause significant error
 Vibrational temperatures:     69.79   297.20   373.27   375.60   418.05
          (Kelvin)            477.71   499.36   567.68   577.55   669.28
                              743.73   791.97   833.01  1008.54  1063.62
                             1166.94  1212.22  1254.65  1356.56  1442.44
                             1454.55  1538.54  1597.36  1654.81  1737.32
                             1789.93  1902.93  2007.46  2023.15  2043.12
                             2128.37  2135.61  2148.98  2165.85  2304.92
                             2379.97  2455.09  4371.43  4376.60  4472.11
                             4476.13  4501.61  4508.96  5022.44  5041.26
                             5145.85  5158.12  5321.96

 Zero-point correction=                           0.160025 (Hartree/Particle)
 Thermal correction to Energy=                    0.168509
 Thermal correction to Enthalpy=                  0.169453
 Thermal correction to Gibbs Free Energy=         0.127863
 Sum of electronic and zero-point Energies=           -323.163559
 Sum of electronic and thermal Energies=              -323.155075
 Sum of electronic and thermal Enthalpies=            -323.154131
 Sum of electronic and thermal Free Energies=         -323.195720

                     E (Thermal)             CV                S
                      KCal/Mol        Cal/Mol-Kelvin    Cal/Mol-Kelvin
 Total                  105.741             32.457             87.533
 Electronic               0.000              0.000              0.000
 Translational            0.889              2.981             39.751
 Rotational               0.889              2.981             27.473
 Vibrational            103.963             26.496             20.309
 Vibration     1          0.595              1.978              4.877
 Vibration     2          0.641              1.831              2.074
 Vibration     3          0.668              1.747              1.666
 Vibration     4          0.669              1.744              1.655
 Vibration     5          0.687              1.691              1.471
 Vibration     6          0.714              1.612              1.250
 Vibration     7          0.725              1.581              1.179
 Vibration     8          0.762              1.482              0.983
 Vibration     9          0.767              1.467              0.957
 Vibration    10          0.823              1.327              0.751
 Vibration    11          0.872              1.213              0.617
 Vibration    12          0.906              1.139              0.543
 Vibration    13          0.936              1.077              0.487

 Optimization completed.
    -- Stationary point found.
 Normal termination of Gaussian 09 at Tue Aug 30 09:56:05 2022.

 -----------------------------------------------------------------
 #P Geom=AllCheck Guess=TCheck SCRF=Check CCSD(T,E4T,FrzG4)/GTBas1
 -----------------------------------------------------------------

 Structure from the checkpoint file:  "G4.Frag_652.chk"
 --------
 Frag_652
 --------
 Charge =  0 Multiplicity = 1

 SCF Done:  E(RHF) =  -321.203120350     A.U. after   13 cycles
 E2 =    -0.1015157902D+01 EUMP2 =    -0.32221827825160D+03
 CCSD(T)
 CCSD(T)= -0.32231486305D+03
 Normal termination of Gaussian 09 at Tue Aug 30 10:01:00 2022.

 ---------------------------------------------------------
 #P Geom=AllCheck Guess=TCheck SCRF=Check MP4=FrzG4/GTBas2
 ---------------------------------------------------------

 Structure from the checkpoint file:  "G4.Frag_652.chk"
 --------
 Frag_652
 --------
 Charge =  0 Multiplicity = 1

 SCF Done:  E(RHF) =  -321.214229245     A.U. after   13 cycles
 E2 =    -0.1031031689D+01 EUMP2 =    -0.32224526093384D+03
 Normal termination of Gaussian 09 at Tue Aug 30 10:02:34 2022.

 ---------------------------------------------------------
 #P Geom=AllCheck Guess=TCheck SCRF=Check MP4=FrzG4/GTBas3
 ---------------------------------------------------------

 Structure from the checkpoint file:  "G4.Frag_652.chk"
 --------
 Frag_652
 --------
 Charge =  0 Multiplicity = 1

 SCF Done:  E(RHF) =  -321.250795704     A.U. after   11 cycles
 E2 =    -0.1242712280D+01 EUMP2 =    -0.32249350798418D+03
 Normal termination of Gaussian 09 at Tue Aug 30 10:15:31 2022.

 -----------------------------------------------------------
 #P Geom=AllCheck Guess=TCheck SCRF=Check MP2=Full/GTLargeXP
 -----------------------------------------------------------

 Structure from the checkpoint file:  "G4.Frag_652.chk"
 --------
 Frag_652
 --------
 Charge =  0 Multiplicity = 1

 SCF Done:  E(RHF) =  -321.330406390     A.U. after   12 cycles
 E2 =    -0.1627969887D+01 EUMP2 =    -0.32295837627719D+03
 Normal termination of Gaussian 09 at Tue Aug 30 10:20:07 2022.
 SCF Done:  E(RHF) =  -321.354977912     A.U. after    8 cycles
 Normal termination of Gaussian 09 at Tue Aug 30 10:23:51 2022.

                         Standard orientation:
 ---------------------------------------------------------------------
 Center     Atomic      Atomic             Coordinates (Angstroms)
 Number     Number       Type             X           Y           Z
 ---------------------------------------------------------------------
      1          6           0       -1.104460   -0.417807   -1.365069
      2          6           0       -0.575358    0.054918    0.002599
      3          6           0       -1.226546   -0.749058    1.140178
      4          7           0       -1.006363    1.449999    0.166879
      5          6           0        0.963016   -0.174845    0.023563
      6          7           0        1.549812   -1.311402    0.019349
      7          7           0        1.734429    0.968293   -0.042903
      8          1           0       -0.663649    0.173794   -2.174480
      9          1           0       -2.190396   -0.296738   -1.401335
     10          1           0       -0.853720   -1.465673   -1.545706
     11          1           0       -0.864341   -0.408657    2.116648
     12          1           0       -2.310611   -0.613014    1.108635
     13          1           0       -1.005325   -1.815528    1.061070
     14          1           0       -0.758495    1.817543    1.080304
     15          1           0       -0.599885    2.050705   -0.542748
     16          1           0        0.874214   -2.071886   -0.013757
     17          1           0        1.368666    1.800224    0.388736
     18          1           0        2.718485    0.801746    0.111739
 ---------------------------------------------------------------------

 SCF Done:  E(RHF) =  -321.360258514     A.U. after    8 cycles

 The electronic state is 1-A.
 Alpha  occ. eigenvalues --  -15.56792 -15.55415 -15.51433 -11.30883 -11.28450
 Alpha  occ. eigenvalues --  -11.22447 -11.22217  -1.26553  -1.19451  -1.13661
 Alpha  occ. eigenvalues --   -1.02630  -0.94583  -0.84940  -0.75928  -0.72163
 Alpha  occ. eigenvalues --   -0.67577  -0.65457  -0.61918  -0.60486  -0.56802
 Alpha  occ. eigenvalues --   -0.54237  -0.52793  -0.51457  -0.50463  -0.48117
 Alpha  occ. eigenvalues --   -0.45600  -0.38384  -0.36464
 Alpha virt. eigenvalues --    0.03057   0.04141   0.04264   0.05136   0.06522
 Alpha virt. eigenvalues --    0.06759   0.07184   0.07370   0.07438   0.09865
 Alpha virt. eigenvalues --    0.10238   0.10334   0.10619   0.11312   0.12897

 Mulliken charges:
               1
     1  C   -0.574788
     2  C    0.448146
     3  C   -0.576982
     4  N   -0.810488
     5  C    0.377623
     6  N   -0.732100
     7  N   -0.724483
     8  H    0.175191
     9  H    0.181480
    10  H    0.175361
    11  H    0.163698
    12  H    0.186502
    13  H    0.173513
    14  H    0.298443
    15  H    0.312132
    16  H    0.273523
    17  H    0.309734
    18  H    0.343496
 Sum of Mulliken charges =  -0.00000

 Dipole moment (field-independent basis, Debye):
    X=             -1.0838    Y=              2.0024    Z=              0.8768  Tot=              2.4399
 Quadrupole moment (field-independent basis, Debye-Ang):
   XX=            -50.9450   YY=            -42.1370   ZZ=            -44.5695
   XY=              8.2798   XZ=              1.4604   YZ=              1.9384

 Normal termination of Gaussian 09 at Tue Aug 30 10:37:24 2022.
