 Gaussian 09, Revision E.01,
 Gaussian 09:  ES64L-G09RevE.01 30-Nov-2015

 -----
 #P G4
 -----

 ---------
 Frag_1114
 ---------
 Symbolic Z-matrix:
 Charge =  0 Multiplicity = 1

 SCF Done:  E(RB3LYP) =  -323.636645319     A.U. after   14 cycles
 SCF Done:  E(RB3LYP) =  -323.659043903     A.U. after   12 cycles
 SCF Done:  E(RB3LYP) =  -323.661410275     A.U. after   10 cycles
 SCF Done:  E(RB3LYP) =  -323.661744742     A.U. after   11 cycles
 SCF Done:  E(RB3LYP) =  -323.662166946     A.U. after   11 cycles
 SCF Done:  E(RB3LYP) =  -323.634600851     A.U. after   15 cycles
 SCF Done:  E(RB3LYP) =  -323.663026983     A.U. after   12 cycles
 SCF Done:  E(RB3LYP) =  -323.663951691     A.U. after   11 cycles
 SCF Done:  E(RB3LYP) =  -323.665388307     A.U. after   11 cycles
 SCF Done:  E(RB3LYP) =  -323.665871334     A.U. after   11 cycles
 SCF Done:  E(RB3LYP) =  -323.668437937     A.U. after    9 cycles
 SCF Done:  E(RB3LYP) =  -323.668441575     A.U. after    8 cycles
 SCF Done:  E(RB3LYP) =  -323.668442419     A.U. after    7 cycles
 Optimization completed.
    -- Stationary point found.
 Normal termination of Gaussian 09 at Fri Aug 26 14:36:55 2022.

 ----------------------------------------------------------
 #P Geom=AllCheck Guess=TCheck SCRF=Check B3LYP/GTBas3 Freq
 ----------------------------------------------------------

 Structure from the checkpoint file:  "G4.Frag_1114.chk"
 ---------
 Frag_1114
 ---------
 Charge =  0 Multiplicity = 1

 SCF Done:  E(RB3LYP) =  -323.668442419     A.U. after    1 cycles

  Exact polarizability:  60.446   5.827  55.577   0.814   2.479  33.150
 Approx polarizability:  81.359   8.515  84.436   4.248   5.731  51.321

                      1                      2                      3
                      A                      A                      A
 Frequencies --     95.0735               201.6449               297.0364
 Red. masses --      3.7955                 1.1921                 2.4029
 Frc consts  --      0.0202                 0.0286                 0.1249
 IR Inten    --      4.7506                 2.7781                34.0785

                      4                      5                      6
                      A                      A                      A
 Frequencies --    308.5258               337.6915               388.7807
 Red. masses --      2.8367                 1.0666                 1.3429
 Frc consts  --      0.1591                 0.0717                 0.1196
 IR Inten    --      2.3945               103.4840                23.8553

                      7                      8                      9
                      A                      A                      A
 Frequencies --    442.2114               506.1977               548.6809
 Red. masses --      2.5925                 2.8354                 4.6495
 Frc consts  --      0.2987                 0.4281                 0.8247
 IR Inten    --     23.1325                25.5297                12.0395

                     10                     11                     12
                      A                      A                      A
 Frequencies --    682.4441               699.7258               741.3477
 Red. masses --      2.1871                 1.4209                 1.4930
 Frc consts  --      0.6001                 0.4099                 0.4834
 IR Inten    --     11.4304                15.3309                65.7810

                     13                     14                     15
                      A                      A                      A
 Frequencies --    767.1215               968.7949              1014.3208
 Red. masses --      3.8260                 1.8966                 2.3615
 Frc consts  --      1.3265                 1.0488                 1.4315
 IR Inten    --     16.0240                14.0391                14.9007

                     16                     17                     18
                      A                      A                      A
 Frequencies --   1130.2578              1161.8344              1178.1307
 Red. masses --      1.8005                 1.5267                 3.6875
 Frc consts  --      1.3552                 1.2142                 3.0156
 IR Inten    --     89.6745                86.0542                 5.0000

                     19                     20                     21
                      A                      A                      A
 Frequencies --   1260.4628              1398.9025              1433.5780
 Red. masses --      1.7586                 1.8903                 1.1550
 Frc consts  --      1.6462                 2.1795                 1.3985
 IR Inten    --     25.6889                26.9152                 8.9864

                     22                     23                     24
                      A                      A                      A
 Frequencies --   1443.6093              1470.0222              1488.3605
 Red. masses --      1.1781                 1.3634                 1.0710
 Frc consts  --      1.4465                 1.7359                 1.3978
 IR Inten    --     33.2943                12.4735                29.0356

                     25                     26                     27
                      A                      A                      A
 Frequencies --   1510.7060              1711.1445              2972.0516
 Red. masses --      1.1601                 6.2789                 1.0574
 Frc consts  --      1.5599                10.8319                 5.5030
 IR Inten    --     26.0325               254.7986                71.1844

                     28                     29                     30
                      A                      A                      A
 Frequencies --   3113.5316              3168.5159              3182.4717
 Red. masses --      1.0762                 1.1027                 1.0645
 Frc consts  --      6.1468                 6.5223                 6.3524
 IR Inten    --     18.1370                 4.7010                 4.7037

                     31                     32                     33
                      A                      A                      A
 Frequencies --   3291.8514              3584.2057              3838.2095
 Red. masses --      1.1105                 1.0669                 1.0657
 Frc consts  --      7.0903                 8.0752                 9.2501
 IR Inten    --      2.3932                 8.6821                49.7005

 - Thermochemistry -
 -------------------
 Temperature   298.150 Kelvin.  Pressure   1.00000 Atm.
 Atom     1 has atomic number  6 and mass  12.00000

 Molecular mass:    89.04768 amu.
 Principal axes and moments of inertia in atomic units:
                           1         2         3
     Eigenvalues --   354.20576 500.13649 815.03869
           X            0.98823   0.15268  -0.00920
           Y           -0.15261   0.98825   0.00805
           Z            0.01032  -0.00656   0.99993
 This molecule is an asymmetric top.
 Rotational symmetry number  1.
 Rotational temperatures (Kelvin)      0.24453     0.17318     0.10627
 Rotational constants (GHZ):           5.09518     3.60850     2.21430
 Zero-point vibrational energy     277159.5 (Joules/Mol)
                                   66.24270 (Kcal/Mol)
 Warning -- explicit consideration of   9 degrees of freedom as
           vibrations may cause significant error
 Vibrational temperatures:    136.79   290.12   427.37   443.90   485.86
          (Kelvin)            559.37   636.24   728.30   789.43   981.88
                             1006.75  1066.63  1103.72  1393.88  1459.38
                             1626.19  1671.62  1695.07  1813.52  2012.71
                             2062.60  2077.03  2115.03  2141.42  2173.57
                             2461.95  4276.11  4479.67  4558.78  4578.86
                             4736.23  5156.87  5522.32

 Zero-point correction=                           0.105564 (Hartree/Particle)
 Thermal correction to Energy=                    0.112514
 Thermal correction to Enthalpy=                  0.113458
 Thermal correction to Gibbs Free Energy=         0.075376
 Sum of electronic and zero-point Energies=           -323.562878
 Sum of electronic and thermal Energies=              -323.555928
 Sum of electronic and thermal Enthalpies=            -323.554984
 Sum of electronic and thermal Free Energies=         -323.593066

                     E (Thermal)             CV                S
                      KCal/Mol        Cal/Mol-Kelvin    Cal/Mol-Kelvin
 Total                   70.604             25.301             80.151
 Electronic               0.000              0.000              0.000
 Translational            0.889              2.981             39.372
 Rotational               0.889              2.981             26.471
 Vibrational             68.826             19.340             14.308
 Vibration     1          0.603              1.953              3.553
 Vibration     2          0.639              1.838              2.118
 Vibration     3          0.691              1.679              1.434
 Vibration     4          0.698              1.657              1.370
 Vibration     5          0.718              1.600              1.223
 Vibration     6          0.757              1.494              1.005
 Vibration     7          0.802              1.378              0.820
 Vibration     8          0.861              1.236              0.643
 Vibration     9          0.904              1.143              0.547

 Optimization completed.
    -- Stationary point found.
 Normal termination of Gaussian 09 at Fri Aug 26 14:37:25 2022.

 -----------------------------------------------------------------
 #P Geom=AllCheck Guess=TCheck SCRF=Check CCSD(T,E4T,FrzG4)/GTBas1
 -----------------------------------------------------------------

 Structure from the checkpoint file:  "G4.Frag_1114.chk"
 ---------
 Frag_1114
 ---------
 Charge =  0 Multiplicity = 1

 SCF Done:  E(RHF) =  -321.743859087     A.U. after   12 cycles
 E2 =    -0.9064774021D+00 EUMP2 =    -0.32265033648906D+03
 CCSD(T)
 CCSD(T)= -0.32272249003D+03
 64\MP4SDTQ=-322.7232643\MP4SDQ=-322.6937276\CCSD=-322.6936904\CCSD(T)=
 Normal termination of Gaussian 09 at Fri Aug 26 14:39:14 2022.

 ---------------------------------------------------------
 #P Geom=AllCheck Guess=TCheck SCRF=Check MP4=FrzG4/GTBas2
 ---------------------------------------------------------

 Structure from the checkpoint file:  "G4.Frag_1114.chk"
 ---------
 Frag_1114
 ---------
 Charge =  0 Multiplicity = 1

 SCF Done:  E(RHF) =  -321.755002167     A.U. after   12 cycles
 E2 =    -0.9208290018D+00 EUMP2 =    -0.32267583116852D+03
 Normal termination of Gaussian 09 at Fri Aug 26 14:39:48 2022.

 ---------------------------------------------------------
 #P Geom=AllCheck Guess=TCheck SCRF=Check MP4=FrzG4/GTBas3
 ---------------------------------------------------------

 Structure from the checkpoint file:  "G4.Frag_1114.chk"
 ---------
 Frag_1114
 ---------
 Charge =  0 Multiplicity = 1

 SCF Done:  E(RHF) =  -321.789464138     A.U. after   11 cycles
 E2 =    -0.1115460696D+01 EUMP2 =    -0.32290492483431D+03
 Normal termination of Gaussian 09 at Fri Aug 26 14:43:07 2022.

 -----------------------------------------------------------
 #P Geom=AllCheck Guess=TCheck SCRF=Check MP2=Full/GTLargeXP
 -----------------------------------------------------------

 Structure from the checkpoint file:  "G4.Frag_1114.chk"
 ---------
 Frag_1114
 ---------
 Charge =  0 Multiplicity = 1

 SCF Done:  E(RHF) =  -321.877151802     A.U. after   12 cycles
 E2 =    -0.1458704658D+01 EUMP2 =    -0.32333585645967D+03
 Normal termination of Gaussian 09 at Fri Aug 26 14:44:46 2022.
 SCF Done:  E(RHF) =  -321.903457393     A.U. after    9 cycles
 Normal termination of Gaussian 09 at Fri Aug 26 14:46:36 2022.

                         Standard orientation:
 ---------------------------------------------------------------------
 Center     Atomic      Atomic             Coordinates (Angstroms)
 Number     Number       Type             X           Y           Z
 ---------------------------------------------------------------------
      1          6           0        1.525160    1.047482    0.161081
      2          6           0        0.739537   -0.013419   -0.069798
      3          8           0        1.166653   -1.307203   -0.080007
      4          7           0       -0.628999    0.038488   -0.355238
      5          6           0       -1.490316   -0.992238    0.212114
      6          8           0       -1.165008    1.314100   -0.122874
      7          1           0        1.142273    2.052610    0.096933
      8          1           0        2.586826    0.912520    0.326232
      9          1           0        2.123897   -1.304575    0.019066
     10          1           0       -1.107116   -1.972170   -0.069576
     11          1           0       -2.489433   -0.856854   -0.204163
     12          1           0       -1.546771   -0.931620    1.311676
     13          1           0       -0.966131    1.524561    0.809166
 ---------------------------------------------------------------------

 SCF Done:  E(RHF) =  -321.909092616     A.U. after    8 cycles

 The electronic state is 1-A.
 Alpha  occ. eigenvalues --  -20.60236 -20.60049 -15.62837 -11.34151 -11.25838
 Alpha  occ. eigenvalues --  -11.20436  -1.44608  -1.41301  -1.15772  -1.02618
 Alpha  occ. eigenvalues --   -0.91808  -0.82041  -0.72791  -0.69439  -0.68356
 Alpha  occ. eigenvalues --   -0.63804  -0.59907  -0.58787  -0.56692  -0.55842
 Alpha  occ. eigenvalues --   -0.53975  -0.49424  -0.43434  -0.32582
 Alpha virt. eigenvalues --    0.03702   0.04143   0.04668   0.05648   0.06655
 Alpha virt. eigenvalues --    0.06830   0.07535   0.08761   0.09285   0.10117
 Alpha virt. eigenvalues --    0.10911   0.12270   0.14196   0.14924   0.15423

 Mulliken charges:
               1
     1  C   -0.582138
     2  C    0.349399
     3  O   -0.563029
     4  N    0.052860
     5  C   -0.466675
     6  O   -0.487327
     7  H    0.213644
     8  H    0.156806
     9  H    0.401606
    10  H    0.212689
    11  H    0.201422
    12  H    0.154482
    13  H    0.356260
 Sum of Mulliken charges =  -0.00000

 Dipole moment (field-independent basis, Debye):
    X=              0.9826    Y=             -0.9980    Z=              1.8891  Tot=              2.3516
 Quadrupole moment (field-independent basis, Debye-Ang):
   XX=            -31.3805   YY=            -36.7329   ZZ=            -38.7499
   XY=             -0.0350   XZ=             -1.6100   YZ=              2.0355

 Normal termination of Gaussian 09 at Fri Aug 26 14:53:18 2022.
