 Gaussian 09, Revision E.01,
 Gaussian 09:  ES64L-G09RevE.01 30-Nov-2015

 -----
 #P G4
 -----

 --------
 Frag_807
 --------
 Symbolic Z-matrix:
 Charge =  0 Multiplicity = 1

 SCF Done:  E(RB3LYP) =  -307.633924689     A.U. after   14 cycles
 SCF Done:  E(RB3LYP) =  -307.667721405     A.U. after   12 cycles
 SCF Done:  E(RB3LYP) =  -307.660638263     A.U. after   14 cycles
 SCF Done:  E(RB3LYP) =  -307.682915044     A.U. after   11 cycles
 SCF Done:  E(RB3LYP) =  -307.683818230     A.U. after   10 cycles
 SCF Done:  E(RB3LYP) =  -307.685685185     A.U. after   12 cycles
 SCF Done:  E(RB3LYP) =  -307.687038005     A.U. after   12 cycles
 SCF Done:  E(RB3LYP) =  -307.688876229     A.U. after   11 cycles
 SCF Done:  E(RB3LYP) =  -307.689867733     A.U. after   11 cycles
 SCF Done:  E(RB3LYP) =  -307.690268154     A.U. after   10 cycles
 SCF Done:  E(RB3LYP) =  -307.695176342     A.U. after   10 cycles
 SCF Done:  E(RB3LYP) =  -307.695191291     A.U. after    9 cycles
 SCF Done:  E(RB3LYP) =  -307.695191537     A.U. after    7 cycles
 Optimization completed.
    -- Stationary point found.
 Normal termination of Gaussian 09 at Tue Aug 30 11:41:49 2022.

 ----------------------------------------------------------
 #P Geom=AllCheck Guess=TCheck SCRF=Check B3LYP/GTBas3 Freq
 ----------------------------------------------------------

 Structure from the checkpoint file:  "G4.Frag_807.chk"
 --------
 Frag_807
 --------
 Charge =  0 Multiplicity = 1

 SCF Done:  E(RB3LYP) =  -307.695191537     A.U. after    1 cycles

  Exact polarizability:  71.377   0.001  51.907   0.002   0.843  37.447
 Approx polarizability: 103.816   0.001  69.055   0.004  -0.131  56.382

                      1                      2                      3
                      A                      A                      A
 Frequencies --    168.8797               175.4565               183.6134
 Red. masses --      1.0207                 1.0516                 3.8501
 Frc consts  --      0.0172                 0.0191                 0.0765
 IR Inten    --      0.0588                 9.5657                 0.3112

                      4                      5                      6
                      A                      A                      A
 Frequencies --    254.0060               274.3112               332.2589
 Red. masses --      1.2850                 2.4974                 2.8407
 Frc consts  --      0.0488                 0.1107                 0.1848
 IR Inten    --     78.9180                43.1483                 8.6606

                      7                      8                      9
                      A                      A                      A
 Frequencies --    346.4218               459.1764               530.5019
 Red. masses --      2.4257                 1.2759                 2.4118
 Frc consts  --      0.1715                 0.1585                 0.3999
 IR Inten    --      2.8289                47.7618               108.8393

                     10                     11                     12
                      A                      A                      A
 Frequencies --    541.2045               610.5561               734.4939
 Red. masses --      5.2730                 4.3325                 4.3268
 Frc consts  --      0.9100                 0.9516                 1.3753
 IR Inten    --      9.6072                 8.6343                 0.3181

                     13                     14                     15
                      A                      A                      A
 Frequencies --    973.5659               977.7176              1006.3744
 Red. masses --      2.3905                 1.3420                 1.2441
 Frc consts  --      1.3349                 0.7558                 0.7424
 IR Inten    --     18.8718                 1.0624                 0.1255

                     16                     17                     18
                      A                      A                      A
 Frequencies --   1106.1928              1124.9351              1216.0425
 Red. masses --      1.5772                 1.7965                 5.5582
 Frc consts  --      1.1371                 1.3394                 4.8427
 IR Inten    --      0.3173               187.5216                59.8493

                     19                     20                     21
                      A                      A                      A
 Frequencies --   1249.1467              1301.3126              1309.9794
 Red. masses --      1.6295                 1.5168                 2.5849
 Frc consts  --      1.4981                 1.5133                 2.6135
 IR Inten    --     45.5485                 0.3865               166.3409

                     22                     23                     24
                      A                      A                      A
 Frequencies --   1406.2064              1418.9083              1482.2011
 Red. masses --      1.3363                 1.2587                 1.0461
 Frc consts  --      1.5569                 1.4931                 1.3541
 IR Inten    --      0.5847                 0.1480                 0.0253

                     25                     26                     27
                      A                      A                      A
 Frequencies --   1488.2624              1497.9456              1500.0331
 Red. masses --      1.0437                 1.0433                 1.0615
 Frc consts  --      1.3620                 1.3793                 1.4072
 IR Inten    --      5.5525                10.3181                 0.6044

                     28                     29                     30
                      A                      A                      A
 Frequencies --   1812.1028              3006.8735              3012.5646
 Red. masses --      6.9206                 1.0411                 1.0415
 Frc consts  --     13.3894                 5.5459                 5.5689
 IR Inten    --    100.7498                20.5752                74.9072

                     31                     32                     33
                      A                      A                      A
 Frequencies --   3047.5169              3048.4006              3138.3018
 Red. masses --      1.0992                 1.0985                 1.0946
 Frc consts  --      6.0149                 6.0147                 6.3519
 IR Inten    --      0.2150                59.8171                16.0164

                     34                     35                     36
                      A                      A                      A
 Frequencies --   3138.7251              3762.3025              3768.5455
 Red. masses --      1.0950                 1.0657                 1.0646
 Frc consts  --      6.3557                 8.8877                 8.9079
 IR Inten    --      8.8396                25.8613                33.2896

 - Thermochemistry -
 -------------------
 Temperature   298.150 Kelvin.  Pressure   1.00000 Atm.
 Atom     1 has atomic number  6 and mass  12.00000

 Molecular mass:    88.05243 amu.
 Principal axes and moments of inertia in atomic units:
                           1         2         3
     Eigenvalues --   373.03862 563.33078 906.78703
           X            1.00000   0.00001   0.00000
           Y           -0.00001   0.99987   0.01585
           Z           -0.00000  -0.01585   0.99987
 This molecule is an asymmetric top.
 Rotational symmetry number  1.
 Rotational temperatures (Kelvin)      0.23218     0.15375     0.09552
 Rotational constants (GHZ):           4.83795     3.20370     1.99026
 Zero-point vibrational energy     307470.4 (Joules/Mol)
                                   73.48719 (Kcal/Mol)
 Warning -- explicit consideration of  11 degrees of freedom as
           vibrations may cause significant error
 Vibrational temperatures:    242.98   252.44   264.18   365.46   394.67
          (Kelvin)            478.05   498.42   660.65   763.27   778.67
                              878.45  1056.77  1400.74  1406.72  1447.95
                             1591.56  1618.53  1749.61  1797.24  1872.30
                             1884.77  2023.21  2041.49  2132.55  2141.27
                             2155.21  2158.21  2607.21  4326.21  4334.40
                             4384.69  4385.96  4515.31  4515.92  5413.11
                             5422.09

 Zero-point correction=                           0.117109 (Hartree/Particle)
 Thermal correction to Energy=                    0.124580
 Thermal correction to Enthalpy=                  0.125524
 Thermal correction to Gibbs Free Energy=         0.086493
 Sum of electronic and zero-point Energies=           -307.578082
 Sum of electronic and thermal Energies=              -307.570612
 Sum of electronic and thermal Enthalpies=            -307.569668
 Sum of electronic and thermal Free Energies=         -307.608698

                     E (Thermal)             CV                S
                      KCal/Mol        Cal/Mol-Kelvin    Cal/Mol-Kelvin
 Total                   78.175             26.614             82.147
 Electronic               0.000              0.000              0.000
 Translational            0.889              2.981             39.339
 Rotational               0.889              2.981             26.746
 Vibrational             76.397             20.652             16.062
 Vibration     1          0.625              1.881              2.448
 Vibration     2          0.627              1.873              2.376
 Vibration     3          0.631              1.862              2.291
 Vibration     4          0.665              1.756              1.703
 Vibration     5          0.677              1.721              1.569
 Vibration     6          0.714              1.611              1.249
 Vibration     7          0.724              1.583              1.182
 Vibration     8          0.817              1.341              0.769
 Vibration     9          0.885              1.183              0.586
 Vibration    10          0.896              1.159              0.563
 Vibration    11          0.970              1.009              0.432

 Normal termination of Gaussian 09 at Tue Aug 30 11:42:20 2022.

 -----------------------------------------------------------------
 #P Geom=AllCheck Guess=TCheck SCRF=Check CCSD(T,E4T,FrzG4)/GTBas1
 -----------------------------------------------------------------

 Structure from the checkpoint file:  "G4.Frag_807.chk"
 --------
 Frag_807
 --------
 Charge =  0 Multiplicity = 1

 SCF Done:  E(RHF) =  -305.821185176     A.U. after   12 cycles
 E2 =    -0.8745892826D+00 EUMP2 =    -0.30669577445897D+03
 CCSD(T)
 CCSD(T)= -0.30677105180D+03
 =-306.7434425\CCSD=-306.7437911\CCSD(T)=-306.7710518\RMSD=6.453e-09\PG
 Normal termination of Gaussian 09 at Tue Aug 30 11:44:10 2022.

 ---------------------------------------------------------
 #P Geom=AllCheck Guess=TCheck SCRF=Check MP4=FrzG4/GTBas2
 ---------------------------------------------------------

 Structure from the checkpoint file:  "G4.Frag_807.chk"
 --------
 Frag_807
 --------
 Charge =  0 Multiplicity = 1

 SCF Done:  E(RHF) =  -305.829894557     A.U. after   13 cycles
 E2 =    -0.8878632193D+00 EUMP2 =    -0.30671775777657D+03
 Normal termination of Gaussian 09 at Tue Aug 30 11:44:45 2022.

 ---------------------------------------------------------
 #P Geom=AllCheck Guess=TCheck SCRF=Check MP4=FrzG4/GTBas3
 ---------------------------------------------------------

 Structure from the checkpoint file:  "G4.Frag_807.chk"
 --------
 Frag_807
 --------
 Charge =  0 Multiplicity = 1

 SCF Done:  E(RHF) =  -305.865235050     A.U. after   11 cycles
 E2 =    -0.1082445278D+01 EUMP2 =    -0.30694768032725D+03
 Normal termination of Gaussian 09 at Tue Aug 30 11:48:10 2022.

 -----------------------------------------------------------
 #P Geom=AllCheck Guess=TCheck SCRF=Check MP2=Full/GTLargeXP
 -----------------------------------------------------------

 Structure from the checkpoint file:  "G4.Frag_807.chk"
 --------
 Frag_807
 --------
 Charge =  0 Multiplicity = 1

 SCF Done:  E(RHF) =  -305.944423892     A.U. after   12 cycles
 E2 =    -0.1420839906D+01 EUMP2 =    -0.30736526379777D+03
 Normal termination of Gaussian 09 at Tue Aug 30 11:50:11 2022.
 SCF Done:  E(RHF) =  -305.969735893     A.U. after    9 cycles
 Normal termination of Gaussian 09 at Tue Aug 30 11:52:17 2022.

                         Standard orientation:
 ---------------------------------------------------------------------
 Center     Atomic      Atomic             Coordinates (Angstroms)
 Number     Number       Type             X           Y           Z
 ---------------------------------------------------------------------
      1          6           0       -1.441001   -1.283212   -0.034624
      2          6           0       -0.656623    0.000001    0.000236
      3          6           0       -1.440931    1.283268    0.034509
      4          6           0        0.677129   -0.000010    0.000253
      5          8           0        1.428984    1.141669   -0.113368
      6          8           0        1.428973   -1.141717    0.113247
      7          1           0       -0.789668   -2.153787   -0.121317
      8          1           0       -2.046906   -1.400266    0.873905
      9          1           0       -2.143990   -1.288147   -0.878496
     10          1           0       -2.145293    1.287586    0.877209
     11          1           0       -0.789640    2.153709    0.122865
     12          1           0       -2.045311    1.401089   -0.874955
     13          1           0        2.133042    1.097792    0.546323
     14          1           0        2.132674   -1.097872   -0.546818
 ---------------------------------------------------------------------

 SCF Done:  E(RHF) =  -305.975101002     A.U. after    8 cycles

 The electronic state is 1-A.
 Alpha  occ. eigenvalues --  -20.58830 -20.58827 -11.33330 -11.21834 -11.21123
 Alpha  occ. eigenvalues --  -11.21118  -1.44319  -1.36005  -1.07671  -0.93130
 Alpha  occ. eigenvalues --   -0.91460  -0.75878  -0.75334  -0.66320  -0.63895
 Alpha  occ. eigenvalues --   -0.61520  -0.57467  -0.55253  -0.53566  -0.52649
 Alpha  occ. eigenvalues --   -0.51553  -0.51063  -0.48378  -0.31937
 Alpha virt. eigenvalues --    0.03428   0.04488   0.04574   0.05182   0.06666
 Alpha virt. eigenvalues --    0.07462   0.07514   0.08165   0.08413   0.09879
 Alpha virt. eigenvalues --    0.11365   0.11630   0.12403   0.13697   0.14058

 Mulliken charges:
               1
     1  C   -0.555869
     2  C    0.099973
     3  C   -0.555774
     4  C    0.326520
     5  O   -0.563537
     6  O   -0.563560
     7  H    0.191331
     8  H    0.167243
     9  H    0.166217
    10  H    0.166211
    11  H    0.191279
    12  H    0.167244
    13  H    0.381356
    14  H    0.381365
 Sum of Mulliken charges =  -0.00000

 Dipole moment (field-independent basis, Debye):
    X=              1.2527    Y=             -0.0001    Z=             -0.0010  Tot=              1.2527
 Quadrupole moment (field-independent basis, Debye-Ang):
   XX=            -30.1680   YY=            -39.7725   ZZ=            -37.1751
   XY=              0.0007   XZ=             -0.0006   YZ=              3.0174

 Normal termination of Gaussian 09 at Tue Aug 30 11:59:20 2022.
