 Gaussian 09, Revision E.01,
 Gaussian 09:  ES64L-G09RevE.01 30-Nov-2015

 -----
 #P G4
 -----

 --------
 Frag_957
 --------
 Symbolic Z-matrix:
 Charge =  0 Multiplicity = 1

 SCF Done:  E(RB3LYP) =  -284.393053668     A.U. after   14 cycles
 SCF Done:  E(RB3LYP) =  -284.398240338     A.U. after   12 cycles
 SCF Done:  E(RB3LYP) =  -284.398631395     A.U. after   11 cycles
 SCF Done:  E(RB3LYP) =  -284.398850274     A.U. after   12 cycles
 SCF Done:  E(RB3LYP) =  -284.399368251     A.U. after   13 cycles
 SCF Done:  E(RB3LYP) =  -284.400209608     A.U. after   15 cycles
 SCF Done:  E(RB3LYP) =  -284.401293538     A.U. after   13 cycles
 SCF Done:  E(RB3LYP) =  -284.403550850     A.U. after   12 cycles
 SCF Done:  E(RB3LYP) =  -284.404832536     A.U. after   13 cycles
 SCF Done:  E(RB3LYP) =  -284.405356384     A.U. after   12 cycles
 SCF Done:  E(RB3LYP) =  -284.408557653     A.U. after   10 cycles
 SCF Done:  E(RB3LYP) =  -284.408564419     A.U. after    8 cycles
 SCF Done:  E(RB3LYP) =  -284.408565117     A.U. after    8 cycles
 Optimization completed.
    -- Stationary point found.
 Normal termination of Gaussian 09 at Thu Aug 25 16:41:34 2022.

 ----------------------------------------------------------
 #P Geom=AllCheck Guess=TCheck SCRF=Check B3LYP/GTBas3 Freq
 ----------------------------------------------------------

 Structure from the checkpoint file:  "G4.Frag_957.chk"
 --------
 Frag_957
 --------
 Charge =  0 Multiplicity = 1

 SCF Done:  E(RB3LYP) =  -284.408565117     A.U. after    1 cycles

  Exact polarizability:  46.083   2.445  35.940   2.590   1.013  28.385
 Approx polarizability:  63.571   6.995  53.978   3.981   2.088  42.064

                      1                      2                      3
                      A                      A                      A
 Frequencies --    144.7608               306.8952               326.1368
 Red. masses --      3.9001                 1.0772                 3.0246
 Frc consts  --      0.0482                 0.0598                 0.1895
 IR Inten    --      5.0158                33.1372                 8.8635

                      4                      5                      6
                      A                      A                      A
 Frequencies --    336.4493               487.0138               544.9486
 Red. masses --      1.3296                 2.4580                 3.0552
 Frc consts  --      0.0887                 0.3435                 0.5346
 IR Inten    --    131.0527                34.9841                10.9775

                      7                      8                      9
                      A                      A                      A
 Frequencies --    607.9317               767.5444               929.1941
 Red. masses --      2.5085                 1.9852                 2.8466
 Frc consts  --      0.5462                 0.6891                 1.4480
 IR Inten    --     10.9103                 5.3183                37.3850

                     10                     11                     12
                      A                      A                      A
 Frequencies --   1031.9441              1095.3042              1107.6267
 Red. masses --      3.4522                 1.3517                 4.0653
 Frc consts  --      2.1660                 0.9554                 2.9385
 IR Inten    --    138.9904                13.0345               172.9783

                     13                     14                     15
                      A                      A                      A
 Frequencies --   1225.4822              1278.8586              1323.8698
 Red. masses --      1.5175                 1.1995                 1.3079
 Frc consts  --      1.3427                 1.1558                 1.3506
 IR Inten    --     24.3468                34.4606                 6.8169

                     16                     17                     18
                      A                      A                      A
 Frequencies --   1389.0562              1439.0686              1482.4323
 Red. masses --      1.3980                 1.2653                 1.1433
 Frc consts  --      1.5893                 1.5439                 1.4803
 IR Inten    --    157.7061                64.0640                34.9215

                     19                     20                     21
                      A                      A                      A
 Frequencies --   1741.9616              3008.3768              3057.1553
 Red. masses --      6.9914                 1.0834                 1.0568
 Frc consts  --     12.4995                 5.7772                 5.8195
 IR Inten    --     33.2301                50.6851                22.8985

                     22                     23                     24
                      A                      A                      A
 Frequencies --   3154.0660              3784.1370              3802.0931
 Red. masses --      1.1148                 1.0647                 1.0649
 Frc consts  --      6.5343                 8.9831                 9.0701
 IR Inten    --     20.1569                35.2610                42.4965

 - Thermochemistry -
 -------------------
 Temperature   298.150 Kelvin.  Pressure   1.00000 Atm.
 Atom     1 has atomic number  6 and mass  12.00000

 Molecular mass:    75.03203 amu.
 Principal axes and moments of inertia in atomic units:
                           1         2         3
     Eigenvalues --   200.56518 393.56415 543.87542
           X            0.99968   0.02231   0.01161
           Y           -0.02249   0.99964   0.01489
           Z           -0.01127  -0.01515   0.99982
 This molecule is an asymmetric top.
 Rotational symmetry number  1.
 Rotational temperatures (Kelvin)      0.43185     0.22008     0.15925
 Rotational constants (GHZ):           8.99828     4.58563     3.31830
 Zero-point vibrational energy     205592.1 (Joules/Mol)
                                   49.13768 (Kcal/Mol)
 Warning -- explicit consideration of   7 degrees of freedom as
           vibrations may cause significant error
 Vibrational temperatures:    208.28   441.55   469.24   484.07   700.70
          (Kelvin)            784.06   874.68  1104.32  1336.90  1484.74
                             1575.90  1593.63  1763.19  1839.99  1904.75
                             1998.54  2070.50  2132.89  2506.29  4328.38
                             4398.56  4537.99  5444.52  5470.36

 Zero-point correction=                           0.078306 (Hartree/Particle)
 Thermal correction to Energy=                    0.083827
 Thermal correction to Enthalpy=                  0.084772
 Thermal correction to Gibbs Free Energy=         0.050018
 Sum of electronic and zero-point Energies=           -284.330259
 Sum of electronic and thermal Energies=              -284.324738
 Sum of electronic and thermal Enthalpies=            -284.323793
 Sum of electronic and thermal Free Energies=         -284.358547

                     E (Thermal)             CV                S
                      KCal/Mol        Cal/Mol-Kelvin    Cal/Mol-Kelvin
 Total                   52.603             19.067             73.145
 Electronic               0.000              0.000              0.000
 Translational            0.889              2.981             38.862
 Rotational               0.889              2.981             25.266
 Vibrational             50.825             13.106              9.018
 Vibration     1          0.616              1.908              2.740
 Vibration     2          0.697              1.661              1.379
 Vibration     3          0.710              1.623              1.279
 Vibration     4          0.717              1.603              1.229
 Vibration     5          0.843              1.279              0.691
 Vibration     6          0.900              1.151              0.555
 Vibration     7          0.967              1.015              0.436

 Optimization completed.
    -- Stationary point found.
 Normal termination of Gaussian 09 at Thu Aug 25 16:42:38 2022.

 -----------------------------------------------------------------
 #P Geom=AllCheck Guess=TCheck SCRF=Check CCSD(T,E4T,FrzG4)/GTBas1
 -----------------------------------------------------------------

 Structure from the checkpoint file:  "G4.Frag_957.chk"
 --------
 Frag_957
 --------
 Charge =  0 Multiplicity = 1

 SCF Done:  E(RHF) =  -282.781807139     A.U. after   13 cycles
 E2 =    -0.7722331496D+00 EUMP2 =    -0.28355404028870D+03
 CCSD(T)
 CCSD(T)= -0.28360969500D+03
 \CCSD(T)=-283.609695\RMSD=7.729e-09\PG=C01 [X(C2H5N1O2)]\\@
 Normal termination of Gaussian 09 at Thu Aug 25 16:44:10 2022.

 ---------------------------------------------------------
 #P Geom=AllCheck Guess=TCheck SCRF=Check MP4=FrzG4/GTBas2
 ---------------------------------------------------------

 Structure from the checkpoint file:  "G4.Frag_957.chk"
 --------
 Frag_957
 --------
 Charge =  0 Multiplicity = 1

 SCF Done:  E(RHF) =  -282.792846382     A.U. after   12 cycles
 E2 =    -0.7859587054D+00 EUMP2 =    -0.28357880508776D+03
 Normal termination of Gaussian 09 at Thu Aug 25 16:45:38 2022.

 ---------------------------------------------------------
 #P Geom=AllCheck Guess=TCheck SCRF=Check MP4=FrzG4/GTBas3
 ---------------------------------------------------------

 Structure from the checkpoint file:  "G4.Frag_957.chk"
 --------
 Frag_957
 --------
 Charge =  0 Multiplicity = 1

 SCF Done:  E(RHF) =  -282.819454888     A.U. after   12 cycles
 E2 =    -0.9470915424D+00 EUMP2 =    -0.28376654643066D+03
 Normal termination of Gaussian 09 at Thu Aug 25 17:16:52 2022.

 -----------------------------------------------------------
 #P Geom=AllCheck Guess=TCheck SCRF=Check MP2=Full/GTLargeXP
 -----------------------------------------------------------

 Structure from the checkpoint file:  "G4.Frag_957.chk"
 --------
 Frag_957
 --------
 Charge =  0 Multiplicity = 1

 SCF Done:  E(RHF) =  -282.900384590     A.U. after   12 cycles
 E2 =    -0.1237360911D+01 EUMP2 =    -0.28413774550164D+03
 Normal termination of Gaussian 09 at Thu Aug 25 17:18:58 2022.
 SCF Done:  E(RHF) =  -282.923119058     A.U. after    9 cycles
 Normal termination of Gaussian 09 at Thu Aug 25 17:21:40 2022.

                         Standard orientation:
 ---------------------------------------------------------------------
 Center     Atomic      Atomic             Coordinates (Angstroms)
 Number     Number       Type             X           Y           Z
 ---------------------------------------------------------------------
      1          6           0       -1.819882    0.020038   -0.153995
      2          7           0       -0.803459    0.706696    0.152291
      3          6           0        0.455412    0.004825    0.401690
      4          8           0        1.467386    0.720235   -0.253826
      5          8           0        0.518208   -1.325669   -0.009282
      6          1           0       -2.763994    0.530405   -0.347334
      7          1           0       -1.800155   -1.071278   -0.234593
      8          1           0        0.606183   -0.007026    1.491081
      9          1           0        1.108882    1.600978   -0.416333
     10          1           0        0.775366   -1.305650   -0.940170
 ---------------------------------------------------------------------

 SCF Done:  E(RHF) =  -282.928088390     A.U. after    8 cycles

 The electronic state is 1-A.
 Alpha  occ. eigenvalues --  -20.57306 -20.57038 -15.57547 -11.36993 -11.29089
 Alpha  occ. eigenvalues --   -1.43448  -1.34600  -1.23093  -0.93804  -0.82199
 Alpha  occ. eigenvalues --   -0.73745  -0.71506  -0.68579  -0.63646  -0.57068
 Alpha  occ. eigenvalues --   -0.55870  -0.52388  -0.48222  -0.44901  -0.42718
 Alpha virt. eigenvalues --    0.03736   0.04685   0.05160   0.05401   0.06951
 Alpha virt. eigenvalues --    0.07176   0.07860   0.10868   0.11447   0.13129
 Alpha virt. eigenvalues --    0.13483   0.15019   0.15151   0.15297   0.16796

 Mulliken charges:
               1
     1  C   -0.217011
     2  N   -0.380503
     3  C    0.369725
     4  O   -0.592586
     5  O   -0.572049
     6  H    0.217155
     7  H    0.222050
     8  H    0.175392
     9  H    0.397034
    10  H    0.380792
 Sum of Mulliken charges =  -0.00000

 Dipole moment (field-independent basis, Debye):
    X=             -1.9290    Y=              0.0365    Z=             -0.9662  Tot=              2.1578
 Quadrupole moment (field-independent basis, Debye-Ang):
   XX=            -29.2529   YY=            -30.8353   ZZ=            -27.8243
   XY=              1.8788   XZ=              0.5577   YZ=              1.1087

 Normal termination of Gaussian 09 at Thu Aug 25 18:35:12 2022.
