 Gaussian 09, Revision E.01,
 Gaussian 09:  ES64L-G09RevE.01 30-Nov-2015

 -----
 #P G4
 -----

 --------
 Frag_789
 --------
 Symbolic Z-matrix:
 Charge =  0 Multiplicity = 1

 SCF Done:  E(RB3LYP) =  -287.811707903     A.U. after   14 cycles
 SCF Done:  E(RB3LYP) =  -287.818313927     A.U. after   12 cycles
 SCF Done:  E(RB3LYP) =  -287.819156991     A.U. after   12 cycles
 SCF Done:  E(RB3LYP) =  -287.820661613     A.U. after   13 cycles
 SCF Done:  E(RB3LYP) =  -287.822957559     A.U. after   15 cycles
 SCF Done:  E(RB3LYP) =  -287.824341046     A.U. after   12 cycles
 SCF Done:  E(RB3LYP) =  -287.825572708     A.U. after   12 cycles
 SCF Done:  E(RB3LYP) =  -287.825649361     A.U. after   12 cycles
 SCF Done:  E(RB3LYP) =  -287.825759313     A.U. after   12 cycles
 SCF Done:  E(RB3LYP) =  -287.825764639     A.U. after    9 cycles
 SCF Done:  E(RB3LYP) =  -287.825765480     A.U. after    7 cycles
 SCF Done:  E(RB3LYP) =  -287.825765727     A.U. after    7 cycles
 Optimization completed.
    -- Stationary point found.
 Normal termination of Gaussian 09 at Sun Aug 21 12:25:15 2022.

 ----------------------------------------------------------
 #P Geom=AllCheck Guess=TCheck SCRF=Check B3LYP/GTBas3 Freq
 ----------------------------------------------------------

 Structure from the checkpoint file:  "G4.Frag_789.chk"
 --------
 Frag_789
 --------
 Charge =  0 Multiplicity = 1

 SCF Done:  E(RB3LYP) =  -287.825765727     A.U. after    1 cycles

  Exact polarizability:  65.459  -0.003  46.643  -1.911   0.006  51.626
 Approx polarizability:  92.331  -0.009  62.535  -6.378   0.019  78.994

                      1                      2                      3
                      A                      A                      A
 Frequencies --    111.5993               215.1835               252.6844
 Red. masses --      3.5525                 1.0199                 1.0872
 Frc consts  --      0.0261                 0.0278                 0.0409
 IR Inten    --      0.0000                 0.0177                 0.3976

                      4                      5                      6
                      A                      A                      A
 Frequencies --    311.1289               318.4314               347.0478
 Red. masses --      2.7290                 2.0409                 2.6584
 Frc consts  --      0.1556                 0.1219                 0.1886
 IR Inten    --      5.5745                12.3449                 6.1857

                      7                      8                      9
                      A                      A                      A
 Frequencies --    402.4491               405.5406               480.3421
 Red. masses --      1.7506                 2.8789                 1.4068
 Frc consts  --      0.1671                 0.2790                 0.1912
 IR Inten    --     35.3589                 5.4139                32.7679

                     10                     11                     12
                      A                      A                      A
 Frequencies --    625.9635               788.0322               797.2910
 Red. masses --      3.9546                 3.4000                 1.5194
 Frc consts  --      0.9130                 1.2440                 0.5691
 IR Inten    --      9.3838                27.5180                30.5093

                     13                     14                     15
                      A                      A                      A
 Frequencies --    894.3663               924.1833               989.3171
 Red. masses --      2.0275                 1.4970                 2.1257
 Frc consts  --      0.9555                 0.7533                 1.2258
 IR Inten    --     10.2833                 1.2352                39.4563

                     16                     17                     18
                      A                      A                      A
 Frequencies --   1014.8109              1108.4369              1141.0637
 Red. masses --      1.3063                 1.2680                 1.2550
 Frc consts  --      0.7926                 0.9179                 0.9627
 IR Inten    --      3.7298                 8.2299                41.1362

                     19                     20                     21
                      A                      A                      A
 Frequencies --   1184.5169              1185.6543              1286.1114
 Red. masses --      1.7775                 3.4333                 2.2003
 Frc consts  --      1.4694                 2.8437                 2.1443
 IR Inten    --     54.8061                27.9305                 8.6855

                     22                     23                     24
                      A                      A                      A
 Frequencies --   1387.3126              1395.7548              1415.9831
 Red. masses --      1.2406                 1.3212                 1.3683
 Frc consts  --      1.4067                 1.5165                 1.6163
 IR Inten    --      5.4538                43.0158                 8.0871

                     25                     26                     27
                      A                      A                      A
 Frequencies --   1431.9585              1474.1403              1482.4548
 Red. masses --      1.2974                 1.0487                 1.0462
 Frc consts  --      1.5675                 1.3427                 1.3546
 IR Inten    --    102.0554                 0.4790                 0.9404

                     28                     29                     30
                      A                      A                      A
 Frequencies --   1498.9879              1506.8193              1730.2451
 Red. masses --      1.0967                 1.0765                 7.1174
 Frc consts  --      1.4520                 1.4400                12.5541
 IR Inten    --     10.0722                 0.4363                61.0648

                     31                     32                     33
                      A                      A                      A
 Frequencies --   3033.9280              3034.3975              3042.3040
 Red. masses --      1.0684                 1.0347                 1.0538
 Frc consts  --      5.7940                 5.6134                 5.7465
 IR Inten    --     12.6204                16.9917                40.9538

                     34                     35                     36
                      A                      A                      A
 Frequencies --   3108.4292              3113.9974              3121.5695
 Red. masses --      1.1006                 1.1010                 1.1031
 Frc consts  --      6.2654                 6.2903                 6.3330
 IR Inten    --      3.4825                41.2866                12.8992

                     37                     38                     39
                      A                      A                      A
 Frequencies --   3124.0681              3480.9932              3657.1315
 Red. masses --      1.1024                 1.0767                 1.0651
 Frc consts  --      6.3389                 7.6872                 8.3930
 IR Inten    --     23.7041                 0.1788               100.5605

 - Thermochemistry -
 -------------------
 Temperature   298.150 Kelvin.  Pressure   1.00000 Atm.
 Atom     1 has atomic number  6 and mass  12.00000

 Molecular mass:    87.06841 amu.
 Principal axes and moments of inertia in atomic units:
                           1         2         3
     Eigenvalues --   379.45869 635.58545 646.55420
           X            0.99988  -0.00003  -0.01557
           Y           -0.00000   1.00000  -0.00187
           Z            0.01557   0.00187   0.99988
 This molecule is an asymmetric top.
 Rotational symmetry number  1.
 Rotational temperatures (Kelvin)      0.22826     0.13627     0.13396
 Rotational constants (GHZ):           4.75609     2.83949     2.79132
 Zero-point vibrational energy     339886.8 (Joules/Mol)
                                   81.23489 (Kcal/Mol)
 Warning -- explicit consideration of   9 degrees of freedom as
           vibrations may cause significant error
 Vibrational temperatures:    160.57   309.60   363.56   447.64   458.15
          (Kelvin)            499.32   579.03   583.48   691.10   900.62
                             1133.80  1147.12  1286.79  1329.69  1423.40
                             1460.08  1594.79  1641.73  1704.25  1705.89
                             1850.43  1996.03  2008.18  2037.28  2060.27
                             2120.96  2132.92  2156.71  2167.97  2489.43
                             4365.14  4365.82  4377.19  4472.33  4480.34
                             4491.24  4494.83  5008.37  5261.79

 Zero-point correction=                           0.129456 (Hartree/Particle)
 Thermal correction to Energy=                    0.136669
 Thermal correction to Enthalpy=                  0.137613
 Thermal correction to Gibbs Free Energy=         0.099172
 Sum of electronic and zero-point Energies=           -287.696310
 Sum of electronic and thermal Energies=              -287.689097
 Sum of electronic and thermal Enthalpies=            -287.688153
 Sum of electronic and thermal Free Energies=         -287.726594

                     E (Thermal)             CV                S
                      KCal/Mol        Cal/Mol-Kelvin    Cal/Mol-Kelvin
 Total                   85.761             26.456             80.906
 Electronic               0.000              0.000              0.000
 Translational            0.889              2.981             39.305
 Rotational               0.889              2.981             26.547
 Vibrational             83.984             20.495             15.054
 Vibration     1          0.607              1.940              3.241
 Vibration     2          0.645              1.818              1.999
 Vibration     3          0.664              1.758              1.712
 Vibration     4          0.700              1.652              1.356
 Vibration     5          0.705              1.638              1.318
 Vibration     6          0.725              1.581              1.180
 Vibration     7          0.768              1.465              0.954
 Vibration     8          0.771              1.458              0.943
 Vibration     9          0.837              1.294              0.709

 Optimization completed.
    -- Stationary point found.
 Normal termination of Gaussian 09 at Sun Aug 21 12:28:07 2022.

 -----------------------------------------------------------------
 #P Geom=AllCheck Guess=TCheck SCRF=Check CCSD(T,E4T,FrzG4)/GTBas1
 -----------------------------------------------------------------

 Structure from the checkpoint file:  "G4.Frag_789.chk"
 --------
 Frag_789
 --------
 Charge =  0 Multiplicity = 1

 SCF Done:  E(RHF) =  -285.999324401     A.U. after   12 cycles
 E2 =    -0.8631217479D+00 EUMP2 =    -0.28686244614865D+03
 CCSD(T)
 CCSD(T)= -0.28694428745D+03
 6.9158986\CCSD(T)=-286.9442874\RMSD=7.407e-09\PG=C01 [X(C4H9N1O1)]\\@
 Normal termination of Gaussian 09 at Sun Aug 21 12:34:34 2022.

 ---------------------------------------------------------
 #P Geom=AllCheck Guess=TCheck SCRF=Check MP4=FrzG4/GTBas2
 ---------------------------------------------------------

 Structure from the checkpoint file:  "G4.Frag_789.chk"
 --------
 Frag_789
 --------
 Charge =  0 Multiplicity = 1

 SCF Done:  E(RHF) =  -286.008638822     A.U. after   13 cycles
 E2 =    -0.8756904774D+00 EUMP2 =    -0.28688432929923D+03
 Normal termination of Gaussian 09 at Sun Aug 21 12:41:05 2022.

 ---------------------------------------------------------
 #P Geom=AllCheck Guess=TCheck SCRF=Check MP4=FrzG4/GTBas3
 ---------------------------------------------------------

 Structure from the checkpoint file:  "G4.Frag_789.chk"
 --------
 Frag_789
 --------
 Charge =  0 Multiplicity = 1

 SCF Done:  E(RHF) =  -286.037678443     A.U. after   11 cycles
 E2 =    -0.1062479664D+01 EUMP2 =    -0.28710015810713D+03
 Normal termination of Gaussian 09 at Sun Aug 21 15:57:46 2022.

 -----------------------------------------------------------
 #P Geom=AllCheck Guess=TCheck SCRF=Check MP2=Full/GTLargeXP
 -----------------------------------------------------------

 Structure from the checkpoint file:  "G4.Frag_789.chk"
 --------
 Frag_789
 --------
 Charge =  0 Multiplicity = 1

 SCF Done:  E(RHF) =  -286.110292351     A.U. after   12 cycles
 E2 =    -0.1394167343D+01 EUMP2 =    -0.28750445969388D+03
 Normal termination of Gaussian 09 at Sun Aug 21 16:04:23 2022.
 SCF Done:  E(RHF) =  -286.133007042     A.U. after    8 cycles
 Normal termination of Gaussian 09 at Sun Aug 21 16:10:26 2022.

                         Standard orientation:
 ---------------------------------------------------------------------
 Center     Atomic      Atomic             Coordinates (Angstroms)
 Number     Number       Type             X           Y           Z
 ---------------------------------------------------------------------
      1          6           0        1.136823    1.266364   -0.351856
      2          6           0        0.353315    0.000087    0.042864
      3          6           0        1.135643   -1.267853   -0.349175
      4          8           0        0.142294    0.001875    1.438341
      5          6           0       -0.979970   -0.000421   -0.678875
      6          7           0       -2.054527    0.000276   -0.007080
      7          1           0        1.332587    1.304878   -1.428772
      8          1           0        2.095341    1.273385    0.174428
      9          1           0        0.579854    2.161345   -0.061433
     10          1           0        0.578065   -2.161687   -0.056383
     11          1           0        1.330865   -1.309109   -1.426104
     12          1           0        2.094416   -1.274457    0.176642
     13          1           0       -0.822054    0.001520    1.556662
     14          1           0       -0.932428   -0.001545   -1.775775
     15          1           0       -2.888183   -0.000328   -0.594178
 ---------------------------------------------------------------------

 SCF Done:  E(RHF) =  -286.137822742     A.U. after    8 cycles

 The electronic state is 1-A.
 Alpha  occ. eigenvalues --  -20.53867 -15.56646 -11.29528 -11.29386 -11.22070
 Alpha  occ. eigenvalues --  -11.22068  -1.36074  -1.22092  -1.05613  -0.94273
 Alpha  occ. eigenvalues --   -0.87443  -0.76146  -0.71495  -0.67851  -0.61207
 Alpha  occ. eigenvalues --   -0.60696  -0.55860  -0.55037  -0.53047  -0.51397
 Alpha  occ. eigenvalues --   -0.49457  -0.45917  -0.43762  -0.42587
 Alpha virt. eigenvalues --    0.02877   0.04131   0.04186   0.05412   0.07072
 Alpha virt. eigenvalues --    0.07159   0.07302   0.07364   0.07678   0.09816
 Alpha virt. eigenvalues --    0.10674   0.11123   0.11267   0.11605   0.11733

 Mulliken charges:
               1
     1  C   -0.552748
     2  C    0.473903
     3  C   -0.552791
     4  O   -0.650961
     5  C    0.002433
     6  N   -0.673601
     7  H    0.162810
     8  H    0.179021
     9  H    0.180327
    10  H    0.180336
    11  H    0.162804
    12  H    0.178974
    13  H    0.410090
    14  H    0.194634
    15  H    0.304768
 Sum of Mulliken charges =  -0.00000

 Dipole moment (field-independent basis, Debye):
    X=             -0.3793    Y=             -0.0045    Z=             -3.2873  Tot=              3.3091
 Quadrupole moment (field-independent basis, Debye-Ang):
   XX=            -35.7028   YY=            -38.6980   ZZ=            -39.2424
   XY=              0.0021   XZ=              1.5726   YZ=             -0.0032

 Normal termination of Gaussian 09 at Sun Aug 21 19:12:54 2022.
