 Gaussian 09, Revision E.01,
 Gaussian 09:  ES64L-G09RevE.01 30-Nov-2015

 -----
 #P G4
 -----

 --------
 Frag_871
 --------
 Symbolic Z-matrix:
 Charge =  0 Multiplicity = 1

 SCF Done:  E(RB3LYP) =  -301.127252630     A.U. after   12 cycles
 SCF Done:  E(RB3LYP) =  -301.136966514     A.U. after   11 cycles
 SCF Done:  E(RB3LYP) =  -301.139268080     A.U. after   11 cycles
 SCF Done:  E(RB3LYP) =  -301.140551391     A.U. after   11 cycles
 SCF Done:  E(RB3LYP) =  -301.141363679     A.U. after   11 cycles
 SCF Done:  E(RB3LYP) =  -301.143685046     A.U. after   13 cycles
 SCF Done:  E(RB3LYP) =  -301.145080068     A.U. after   11 cycles
 SCF Done:  E(RB3LYP) =  -301.146233571     A.U. after   11 cycles
 SCF Done:  E(RB3LYP) =  -301.146819638     A.U. after   10 cycles
 SCF Done:  E(RB3LYP) =  -301.146985690     A.U. after   10 cycles
 SCF Done:  E(RB3LYP) =  -301.147056127     A.U. after    8 cycles
 SCF Done:  E(RB3LYP) =  -301.147056783     A.U. after    7 cycles
 SCF Done:  E(RB3LYP) =  -301.147057186     A.U. after    7 cycles
 Optimization completed.
    -- Stationary point found.
 Normal termination of Gaussian 09 at Sat Aug 20 19:01:36 2022.

 ----------------------------------------------------------
 #P Geom=AllCheck Guess=TCheck SCRF=Check B3LYP/GTBas3 Freq
 ----------------------------------------------------------

 Structure from the checkpoint file:  "G4.Frag_871.chk"
 --------
 Frag_871
 --------
 Charge =  0 Multiplicity = 1

 SCF Done:  E(RB3LYP) =  -301.147057186     A.U. after    1 cycles

  Exact polarizability:  65.235  -2.228  57.459   1.735  -0.104  46.147
 Approx polarizability:  82.991  -5.802  78.588   2.021  -0.521  71.489

                      1                      2                      3
                      A                      A                      A
 Frequencies --     66.4509               231.6636               250.4234
 Red. masses --      2.6873                 1.2157                 1.0986
 Frc consts  --      0.0070                 0.0384                 0.0406
 IR Inten    --      3.5819                 9.0263                 0.0007

                      4                      5                      6
                      A                      A                      A
 Frequencies --    278.9092               300.4482               345.4009
 Red. masses --      1.1864                 1.0785                 2.3192
 Frc consts  --      0.0544                 0.0574                 0.1630
 IR Inten    --     54.8653                 0.0025                15.6149

                      7                      8                      9
                      A                      A                      A
 Frequencies --    416.7856               440.1314               483.1527
 Red. masses --      2.1958                 2.6235                 2.3807
 Frc consts  --      0.2247                 0.2994                 0.3274
 IR Inten    --      4.8667                 0.0000                12.0392

                     10                     11                     12
                      A                      A                      A
 Frequencies --    515.6671               550.6921               763.1795
 Red. masses --      3.3487                 3.0561                 3.7049
 Frc consts  --      0.5246                 0.5460                 1.2714
 IR Inten    --      0.0000                 0.0000                 0.0000

                     13                     14                     15
                      A                      A                      A
 Frequencies --    864.8115               868.2749               996.8464
 Red. masses --      3.1055                 2.5142                 1.6935
 Frc consts  --      1.3684                 1.1168                 0.9915
 IR Inten    --    135.9471                 0.1112                57.3913

                     16                     17                     18
                      A                      A                      A
 Frequencies --   1056.0373              1111.9093              1122.0516
 Red. masses --      1.3471                 2.7835                 1.9610
 Frc consts  --      0.8852                 2.0276                 1.4546
 IR Inten    --      0.0001                21.6020                 0.0001

                     19                     20                     21
                      A                      A                      A
 Frequencies --   1142.2145              1199.5049              1219.0226
 Red. masses --      1.3556                 2.5942                 1.9280
 Frc consts  --      1.0420                 2.1991                 1.6880
 IR Inten    --      4.2992                 0.0001                41.4551

                     22                     23                     24
                      A                      A                      A
 Frequencies --   1250.1976              1322.3117              1348.1394
 Red. masses --      2.4003                 1.2139                 1.2977
 Frc consts  --      2.2104                 1.2506                 1.3896
 IR Inten    --      0.0001                 9.2452                 0.0001

                     25                     26                     27
                      A                      A                      A
 Frequencies --   1424.7626              1426.6959              1469.4728
 Red. masses --      1.1782                 1.1814                 1.0528
 Frc consts  --      1.4091                 1.4167                 1.3395
 IR Inten    --      3.7664                 0.0000                 0.0219

                     28                     29                     30
                      A                      A                      A
 Frequencies --   1470.0307              1506.9888              1510.1118
 Red. masses --      1.0496                 1.0489                 1.0534
 Frc consts  --      1.3364                 1.4035                 1.4153
 IR Inten    --     14.0684                16.7598                 0.0000

                     31                     32                     33
                      A                      A                      A
 Frequencies --   1647.1385              1654.3229              2957.3036
 Red. masses --      1.0806                 1.0842                 1.0558
 Frc consts  --      1.7274                 1.7482                 5.4402
 IR Inten    --     24.1173                 0.0016               130.9330

                     34                     35                     36
                      A                      A                      A
 Frequencies --   2959.5776              3092.9051              3093.0606
 Red. masses --      1.0570                 1.0811                 1.0812
 Frc consts  --      5.4547                 6.0933                 6.0942
 IR Inten    --      0.0013                46.3874                14.7787

                     37                     38                     39
                      A                      A                      A
 Frequencies --   3169.0145              3169.2303              3368.6245
 Red. masses --      1.0965                 1.0968                 1.0576
 Frc consts  --      6.4882                 6.4907                 7.0709
 IR Inten    --      0.5116                15.2716                34.7108

                     40                     41                     42
                      A                      A                      A
 Frequencies --   3369.7981              3563.1234              3563.4956
 Red. masses --      1.0575                 1.0829                 1.0829
 Frc consts  --      7.0749                 8.1004                 8.1020
 IR Inten    --      0.9726                 2.4364                 4.1674

 - Thermochemistry -
 -------------------
 Temperature   298.150 Kelvin.  Pressure   1.00000 Atm.
 Atom     1 has atomic number  6 and mass  12.00000

 Molecular mass:    90.09055 amu.
 Principal axes and moments of inertia in atomic units:
                           1         2         3
     Eigenvalues --   368.02429 535.39902 834.61326
           X            0.99806   0.06095   0.01260
           Y           -0.06102   0.99813   0.00469
           Z           -0.01229  -0.00545   0.99991
 This molecule is an asymmetric top.
 Rotational symmetry number  1.
 Rotational temperatures (Kelvin)      0.23535     0.16177     0.10378
 Rotational constants (GHZ):           4.90386     3.37083     2.16237
 Zero-point vibrational energy     374191.2 (Joules/Mol)
                                   89.43384 (Kcal/Mol)
 Warning -- explicit consideration of  11 degrees of freedom as
           vibrations may cause significant error
 Vibrational temperatures:     95.61   333.31   360.30   401.29   432.28
          (Kelvin)            496.95   599.66   633.25   695.15   741.93
                              792.32  1098.04  1244.27  1249.25  1434.24
                             1519.40  1599.79  1614.38  1643.39  1725.82
                             1753.90  1798.75  1902.51  1939.67  2049.91
                             2052.69  2114.24  2115.04  2168.22  2172.71
                             2369.86  2380.20  4254.89  4258.17  4450.00
                             4450.22  4559.50  4559.81  4846.69  4848.38
                             5126.53  5127.07

 Zero-point correction=                           0.142522 (Hartree/Particle)
 Thermal correction to Energy=                    0.150043
 Thermal correction to Enthalpy=                  0.150987
 Thermal correction to Gibbs Free Energy=         0.111674
 Sum of electronic and zero-point Energies=           -301.004535
 Sum of electronic and thermal Energies=              -300.997014
 Sum of electronic and thermal Enthalpies=            -300.996070
 Sum of electronic and thermal Free Energies=         -301.035384

                     E (Thermal)             CV                S
                      KCal/Mol        Cal/Mol-Kelvin    Cal/Mol-Kelvin
 Total                   94.154             27.630             82.743
 Electronic               0.000              0.000              0.000
 Translational            0.889              2.981             39.407
 Rotational               0.889              2.981             26.600
 Vibrational             92.376             21.668             16.736
 Vibration     1          0.598              1.970              4.256
 Vibration     2          0.653              1.793              1.866
 Vibration     3          0.663              1.762              1.728
 Vibration     4          0.679              1.713              1.540
 Vibration     5          0.693              1.673              1.414
 Vibration     6          0.724              1.585              1.187
 Vibration     7          0.780              1.434              0.903
 Vibration     8          0.800              1.383              0.826
 Vibration     9          0.839              1.287              0.702
 Vibration    10          0.871              1.215              0.620
 Vibration    11          0.906              1.138              0.543

 Optimization completed.
    -- Stationary point found.
 Normal termination of Gaussian 09 at Sat Aug 20 19:04:39 2022.

 -----------------------------------------------------------------
 #P Geom=AllCheck Guess=TCheck SCRF=Check CCSD(T,E4T,FrzG4)/GTBas1
 -----------------------------------------------------------------

 Structure from the checkpoint file:  "G4.Frag_871.chk"
 --------
 Frag_871
 --------
 Charge =  0 Multiplicity = 1

 SCF Done:  E(RHF) =  -299.212267369     A.U. after   12 cycles
 E2 =    -0.9270022164D+00 EUMP2 =    -0.30013926958494D+03
 CCSD(T)
 CCSD(T)= -0.30022673992D+03
 =-300.2255034\MP4SDQ=-300.1962901\CCSD=-300.1975961\CCSD(T)=-300.22673
 Normal termination of Gaussian 09 at Sat Aug 20 19:11:23 2022.

 ---------------------------------------------------------
 #P Geom=AllCheck Guess=TCheck SCRF=Check MP4=FrzG4/GTBas2
 ---------------------------------------------------------

 Structure from the checkpoint file:  "G4.Frag_871.chk"
 --------
 Frag_871
 --------
 Charge =  0 Multiplicity = 1

 SCF Done:  E(RHF) =  -299.223030626     A.U. after   12 cycles
 E2 =    -0.9434610815D+00 EUMP2 =    -0.30016649170766D+03
 Normal termination of Gaussian 09 at Sat Aug 20 19:21:07 2022.

 ---------------------------------------------------------
 #P Geom=AllCheck Guess=TCheck SCRF=Check MP4=FrzG4/GTBas3
 ---------------------------------------------------------

 Structure from the checkpoint file:  "G4.Frag_871.chk"
 --------
 Frag_871
 --------
 Charge =  0 Multiplicity = 1

 SCF Done:  E(RHF) =  -299.253862282     A.U. after   11 cycles
 E2 =    -0.1137798046D+01 EUMP2 =    -0.30039166032779D+03
 Normal termination of Gaussian 09 at Sat Aug 20 23:01:55 2022.

 -----------------------------------------------------------
 #P Geom=AllCheck Guess=TCheck SCRF=Check MP2=Full/GTLargeXP
 -----------------------------------------------------------

 Structure from the checkpoint file:  "G4.Frag_871.chk"
 --------
 Frag_871
 --------
 Charge =  0 Multiplicity = 1

 SCF Done:  E(RHF) =  -299.331508870     A.U. after   11 cycles
 E2 =    -0.1478137240D+01 EUMP2 =    -0.30080964610945D+03
 Normal termination of Gaussian 09 at Sat Aug 20 23:09:10 2022.
 SCF Done:  E(RHF) =  -299.354501814     A.U. after    9 cycles
 Normal termination of Gaussian 09 at Sat Aug 20 23:16:11 2022.

                         Standard orientation:
 ---------------------------------------------------------------------
 Center     Atomic      Atomic             Coordinates (Angstroms)
 Number     Number       Type             X           Y           Z
 ---------------------------------------------------------------------
      1          6           0        1.471068    1.102338    0.035623
      2          7           0        0.643880   -0.038567   -0.365213
      3          7           0        1.247434   -1.258842    0.058450
      4          7           0       -0.643865    0.038489    0.365271
      5          6           0       -1.471123   -1.102231   -0.035776
      6          7           0       -1.247356    1.258794   -0.058373
      7          1           0        0.992938    2.033694   -0.260628
      8          1           0        2.432324    1.006479   -0.476107
      9          1           0        1.639010    1.118440    1.126694
     10          1           0        1.747696   -1.119342    0.941704
     11          1           0        1.927166   -1.509089   -0.651115
     12          1           0       -2.432167   -1.006770    0.476465
     13          1           0       -1.639628   -1.117793   -1.126767
     14          1           0       -0.992693   -2.033620    0.259849
     15          1           0       -1.747999    1.119067   -0.941418
     16          1           0       -1.926966    1.509173    0.651300
 ---------------------------------------------------------------------

 SCF Done:  E(RHF) =  -299.359553484     A.U. after    8 cycles

 The electronic state is 1-A.
 Alpha  occ. eigenvalues --  -15.60299 -15.60258 -15.56640 -15.56639 -11.23308
 Alpha  occ. eigenvalues --  -11.23308  -1.33891  -1.22942  -1.05722  -1.02391
 Alpha  occ. eigenvalues --   -0.89795  -0.81695  -0.69398  -0.67853  -0.65728
 Alpha  occ. eigenvalues --   -0.63652  -0.58137  -0.56867  -0.55203  -0.54830
 Alpha  occ. eigenvalues --   -0.50192  -0.45698  -0.42863  -0.39551  -0.34295
 Alpha virt. eigenvalues --    0.04015   0.04242   0.05226   0.05495   0.06688
 Alpha virt. eigenvalues --    0.07035   0.07182   0.09202   0.09375   0.09966
 Alpha virt. eigenvalues --    0.11262   0.11548   0.12885   0.14430   0.14900

 Mulliken charges:
               1
     1  C   -0.455815
     2  N   -0.029502
     3  N   -0.635493
     4  N   -0.029482
     5  C   -0.455791
     6  N   -0.635465
     7  H    0.217579
     8  H    0.162853
     9  H    0.143576
    10  H    0.283100
    11  H    0.313714
    12  H    0.162837
    13  H    0.143545
    14  H    0.217583
    15  H    0.283065
    16  H    0.313695
 Sum of Mulliken charges =  -0.00000

 Dipole moment (field-independent basis, Debye):
    X=             -0.0001    Y=              0.0000    Z=              0.0004  Tot=              0.0004
 Quadrupole moment (field-independent basis, Debye-Ang):
   XX=            -30.0449   YY=            -40.2658   ZZ=            -39.3424
   XY=             -2.2707   XZ=              0.5046   YZ=              0.5312

 Normal termination of Gaussian 09 at Sun Aug 21 02:24:53 2022.
