 Gaussian 09, Revision E.01,
 Gaussian 09:  ES64L-G09RevE.01 30-Nov-2015

 -----
 #P G4
 -----

 --------
 Frag_481
 --------
 Symbolic Z-matrix:
 Charge =  0 Multiplicity = 1

 SCF Done:  E(RB3LYP) =  -248.471463302     A.U. after   13 cycles
 SCF Done:  E(RB3LYP) =  -248.504278160     A.U. after   12 cycles
 SCF Done:  E(RB3LYP) =  -248.515856202     A.U. after   12 cycles
 SCF Done:  E(RB3LYP) =  -248.517348116     A.U. after   11 cycles
 SCF Done:  E(RB3LYP) =  -248.517479103     A.U. after   10 cycles
 SCF Done:  E(RB3LYP) =  -248.517486650     A.U. after    8 cycles
 SCF Done:  E(RB3LYP) =  -248.517498881     A.U. after    8 cycles
 SCF Done:  E(RB3LYP) =  -248.517547824     A.U. after    9 cycles
 SCF Done:  E(RB3LYP) =  -248.516569870     A.U. after   14 cycles
 SCF Done:  E(RB3LYP) =  -248.517606213     A.U. after   10 cycles
 SCF Done:  E(RB3LYP) =  -248.518523949     A.U. after    8 cycles
 SCF Done:  E(RB3LYP) =  -248.518524398     A.U. after    7 cycles
 SCF Done:  E(RB3LYP) =  -248.518524532     A.U. after    7 cycles
 Optimization completed.
    -- Stationary point found.
 Normal termination of Gaussian 09 at Tue Aug 30 09:27:22 2022.

 ----------------------------------------------------------
 #P Geom=AllCheck Guess=TCheck SCRF=Check B3LYP/GTBas3 Freq
 ----------------------------------------------------------

 Structure from the checkpoint file:  "G4.Frag_481.chk"
 --------
 Frag_481
 --------
 Charge =  0 Multiplicity = 1

 SCF Done:  E(RB3LYP) =  -248.518524532     A.U. after    1 cycles

  Exact polarizability:  51.591  -1.683  47.276  -0.000  -0.000  31.857
 Approx polarizability:  61.944  -2.715  75.909  -0.000  -0.001  45.989

                      1                      2                      3
                      A                      A                      A
 Frequencies --    104.9998               165.2448               189.1405
 Red. masses --      1.0921                 1.9999                 1.2563
 Frc consts  --      0.0071                 0.0322                 0.0265
 IR Inten    --      0.8298                 6.9038                 3.4863

                      4                      5                      6
                      A                      A                      A
 Frequencies --    299.6596               425.3798               576.9344
 Red. masses --      2.9134                 2.7766                 2.8447
 Frc consts  --      0.1541                 0.2960                 0.5579
 IR Inten    --     10.6538                 4.9511                 8.6900

                      7                      8                      9
                      A                      A                      A
 Frequencies --    615.3404               855.1085               869.9630
 Red. masses --      3.4305                 1.1484                 3.9081
 Frc consts  --      0.7653                 0.4948                 1.7427
 IR Inten    --      4.6788                35.0807                 9.7351

                     10                     11                     12
                      A                      A                      A
 Frequencies --    982.0560              1068.3374              1072.4796
 Red. masses --      2.2954                 1.6459                 1.6434
 Frc consts  --      1.3043                 1.1068                 1.1137
 IR Inten    --     12.8734                 8.5166                52.1481

                     13                     14                     15
                      A                      A                      A
 Frequencies --   1120.9640              1181.3689              1220.1630
 Red. masses --      2.4126                 1.2840                 1.5373
 Frc consts  --      1.7862                 1.0558                 1.3485
 IR Inten    --    161.2679                 1.0089                25.1228

                     16                     17                     18
                      A                      A                      A
 Frequencies --   1370.1193              1410.3422              1471.8718
 Red. masses --      1.7638                 1.4389                 1.0455
 Frc consts  --      1.9508                 1.6863                 1.3345
 IR Inten    --    107.2042                63.6975                 4.6262

                     19                     20                     21
                      A                      A                      A
 Frequencies --   1477.5450              1477.9079              1485.4479
 Red. masses --      1.0468                 1.1276                 1.2414
 Frc consts  --      1.3465                 1.4511                 1.6139
 IR Inten    --      6.6582                16.2739                36.3025

                     22                     23                     24
                      A                      A                      A
 Frequencies --   1500.2370              1729.6661              3044.8383
 Red. masses --      1.0679                 7.6346                 1.0294
 Frc consts  --      1.4161                13.4573                 5.6227
 IR Inten    --      9.1714               165.9902                30.7623

                     25                     26                     27
                      A                      A                      A
 Frequencies --   3048.8005              3112.0611              3116.5279
 Red. masses --      1.0360                 1.0996                 1.1049
 Frc consts  --      5.6736                 6.2744                 6.3229
 IR Inten    --      8.9986                 7.7361                22.7763

                     28                     29                     30
                      A                      A                      A
 Frequencies --   3143.8730              3147.0698              3516.8921
 Red. masses --      1.1027                 1.1060                 1.0753
 Frc consts  --      6.4217                 6.4540                 7.8362
 IR Inten    --     10.1753                24.3172                 1.0518

 - Thermochemistry -
 -------------------
 Temperature   298.150 Kelvin.  Pressure   1.00000 Atm.
 Atom     1 has atomic number  6 and mass  12.00000

 Molecular mass:    73.05276 amu.
 Principal axes and moments of inertia in atomic units:
                           1         2         3
     Eigenvalues --   186.10296 434.54026 598.17888
           X            0.99976   0.02212   0.00000
           Y           -0.02212   0.99976   0.00001
           Z           -0.00000  -0.00001   1.00000
 This molecule is an asymmetric top.
 Rotational symmetry number  1.
 Rotational temperatures (Kelvin)      0.46541     0.19932     0.14480
 Rotational constants (GHZ):           9.69754     4.15322     3.01706
 Zero-point vibrational energy     267965.5 (Joules/Mol)
                                   64.04530 (Kcal/Mol)
 Warning -- explicit consideration of   7 degrees of freedom as
           vibrations may cause significant error
 Vibrational temperatures:    151.07   237.75   272.13   431.14   612.03
          (Kelvin)            830.08   885.34  1230.31  1251.68  1412.96
                             1537.10  1543.06  1612.82  1699.72  1755.54
                             1971.29  2029.17  2117.69  2125.86  2126.38
                             2137.23  2158.50  2488.60  4380.84  4386.54
                             4477.56  4483.98  4523.33  4527.93  5060.02

 Zero-point correction=                           0.102063 (Hartree/Particle)
 Thermal correction to Energy=                    0.108167
 Thermal correction to Enthalpy=                  0.109111
 Thermal correction to Gibbs Free Energy=         0.072873
 Sum of electronic and zero-point Energies=           -248.416462
 Sum of electronic and thermal Energies=              -248.410358
 Sum of electronic and thermal Enthalpies=            -248.409414
 Sum of electronic and thermal Free Energies=         -248.445652

                     E (Thermal)             CV                S
                      KCal/Mol        Cal/Mol-Kelvin    Cal/Mol-Kelvin
 Total                   67.876             20.256             76.269
 Electronic               0.000              0.000              0.000
 Translational            0.889              2.981             38.782
 Rotational               0.889              2.981             25.384
 Vibrational             66.098             14.295             12.103
 Vibration     1          0.605              1.945              3.359
 Vibration     2          0.624              1.885              2.489
 Vibration     3          0.633              1.855              2.236
 Vibration     4          0.692              1.674              1.419
 Vibration     5          0.787              1.415              0.874
 Vibration     6          0.933              1.081              0.491
 Vibration     7          0.975              0.999              0.424

 Optimization completed.
    -- Stationary point found.
 Normal termination of Gaussian 09 at Tue Aug 30 09:27:43 2022.

 -----------------------------------------------------------------
 #P Geom=AllCheck Guess=TCheck SCRF=Check CCSD(T,E4T,FrzG4)/GTBas1
 -----------------------------------------------------------------

 Structure from the checkpoint file:  "G4.Frag_481.chk"
 --------
 Frag_481
 --------
 Charge =  0 Multiplicity = 1

 SCF Done:  E(RHF) =  -246.976723969     A.U. after   12 cycles
 E2 =    -0.7247157127D+00 EUMP2 =    -0.24770143968203D+03
 CCSD(T)
 CCSD(T)= -0.24776736548D+03
 D=-247.7434934\CCSD(T)=-247.7673655\RMSD=5.537e-09\PG=C01 [X(C3H7N1O1)
 Normal termination of Gaussian 09 at Tue Aug 30 09:28:39 2022.

 ---------------------------------------------------------
 #P Geom=AllCheck Guess=TCheck SCRF=Check MP4=FrzG4/GTBas2
 ---------------------------------------------------------

 Structure from the checkpoint file:  "G4.Frag_481.chk"
 --------
 Frag_481
 --------
 Charge =  0 Multiplicity = 1

 SCF Done:  E(RHF) =  -246.984361066     A.U. after   12 cycles
 E2 =    -0.7345333387D+00 EUMP2 =    -0.24771889440459D+03
 Normal termination of Gaussian 09 at Tue Aug 30 09:29:00 2022.

 ---------------------------------------------------------
 #P Geom=AllCheck Guess=TCheck SCRF=Check MP4=FrzG4/GTBas3
 ---------------------------------------------------------

 Structure from the checkpoint file:  "G4.Frag_481.chk"
 --------
 Frag_481
 --------
 Charge =  0 Multiplicity = 1

 SCF Done:  E(RHF) =  -247.007555632     A.U. after   12 cycles
 E2 =    -0.8918052898D+00 EUMP2 =    -0.24789936092189D+03
 Normal termination of Gaussian 09 at Tue Aug 30 09:30:27 2022.

 -----------------------------------------------------------
 #P Geom=AllCheck Guess=TCheck SCRF=Check MP2=Full/GTLargeXP
 -----------------------------------------------------------

 Structure from the checkpoint file:  "G4.Frag_481.chk"
 --------
 Frag_481
 --------
 Charge =  0 Multiplicity = 1

 SCF Done:  E(RHF) =  -247.071629270     A.U. after   12 cycles
 E2 =    -0.1169384630D+01 EUMP2 =    -0.24824101389953D+03
 Normal termination of Gaussian 09 at Tue Aug 30 09:31:23 2022.
 SCF Done:  E(RHF) =  -247.091089704     A.U. after    8 cycles
 Normal termination of Gaussian 09 at Tue Aug 30 09:32:20 2022.

                         Standard orientation:
 ---------------------------------------------------------------------
 Center     Atomic      Atomic             Coordinates (Angstroms)
 Number     Number       Type             X           Y           Z
 ---------------------------------------------------------------------
      1          6           0        1.882625   -0.144665   -0.000059
      2          8           0        0.575010   -0.717805    0.000103
      3          6           0       -0.456353    0.151002    0.000092
      4          6           0       -1.763468   -0.600375   -0.000038
      5          7           0       -0.259067    1.405609   -0.000004
      6          1           0        2.575076   -0.987724    0.000385
      7          1           0        2.034343    0.478295    0.885800
      8          1           0        2.034487    0.477403   -0.886538
      9          1           0       -1.826319   -1.246572   -0.880884
     10          1           0       -2.610464    0.087312    0.000428
     11          1           0       -1.826078   -1.247693    0.879976
     12          1           0       -1.144485    1.906384    0.000065
 ---------------------------------------------------------------------

 SCF Done:  E(RHF) =  -247.095268782     A.U. after    8 cycles

 The electronic state is 1-A.
 Alpha  occ. eigenvalues --  -20.58522 -15.52992 -11.33771 -11.27198 -11.23884
 Alpha  occ. eigenvalues --   -1.42264  -1.19058  -1.01310  -0.93530  -0.77646
 Alpha  occ. eigenvalues --   -0.68458  -0.65851  -0.65318  -0.58965  -0.58210
 Alpha  occ. eigenvalues --   -0.55106  -0.51291  -0.49353  -0.43082  -0.40076
 Alpha virt. eigenvalues --    0.03487   0.04407   0.05382   0.05438   0.06527
 Alpha virt. eigenvalues --    0.07168   0.07331   0.09159   0.09841   0.10245
 Alpha virt. eigenvalues --    0.12962   0.13251   0.13506   0.14899   0.15899

 Mulliken charges:
               1
     1  C   -0.347448
     2  O   -0.279020
     3  C    0.435672
     4  C   -0.516828
     5  N   -0.720647
     6  H    0.184053
     7  H    0.190867
     8  H    0.190803
     9  H    0.203286
    10  H    0.169855
    11  H    0.203350
    12  H    0.286057
 Sum of Mulliken charges =  -0.00000

 Dipole moment (field-independent basis, Debye):
    X=             -1.1129    Y=             -0.8916    Z=             -0.0001  Tot=              1.4261
 Quadrupole moment (field-independent basis, Debye-Ang):
   XX=            -24.7826   YY=            -34.2618   ZZ=            -31.4898
   XY=             -1.4099   XZ=             -0.0001   YZ=              0.0004

 Normal termination of Gaussian 09 at Tue Aug 30 09:38:44 2022.
