 Gaussian 09, Revision E.01,
 Gaussian 09:  ES64L-G09RevE.01 30-Nov-2015

 -----
 #P G4
 -----

 --------
 Frag_851
 --------
 Symbolic Z-matrix:
 Charge =  0 Multiplicity = 1

 SCF Done:  E(RB3LYP) =  -189.153142597     A.U. after   15 cycles
 SCF Done:  E(RB3LYP) =  -189.203753326     A.U. after   14 cycles
 SCF Done:  E(RB3LYP) =  -189.198359287     A.U. after   14 cycles
 SCF Done:  E(RB3LYP) =  -189.214297074     A.U. after   11 cycles
 SCF Done:  E(RB3LYP) =  -189.215390412     A.U. after   12 cycles
 SCF Done:  E(RB3LYP) =  -189.215697787     A.U. after   11 cycles
 SCF Done:  E(RB3LYP) =  -189.215787303     A.U. after   11 cycles
 SCF Done:  E(RB3LYP) =  -189.215838449     A.U. after   11 cycles
 SCF Done:  E(RB3LYP) =  -189.215865313     A.U. after   10 cycles
 SCF Done:  E(RB3LYP) =  -189.215870427     A.U. after    9 cycles
 SCF Done:  E(RB3LYP) =  -189.215871014     A.U. after    8 cycles
 Optimization completed.
    -- Stationary point found.
 Normal termination of Gaussian 09 at Tue Aug 30 10:18:40 2022.

 ----------------------------------------------------------
 #P Geom=AllCheck Guess=TCheck SCRF=Check B3LYP/GTBas3 Freq
 ----------------------------------------------------------

 Structure from the checkpoint file:  "G4.Frag_851.chk"
 --------
 Frag_851
 --------
 Charge =  0 Multiplicity = 1

 SCF Done:  E(RB3LYP) =  -189.215871014     A.U. after    1 cycles

  Exact polarizability:  69.954   3.908  36.708   0.026  -1.247  24.381
 Approx polarizability: 103.405   5.300  55.547  -1.600  -1.026  35.695

                      1                      2                      3
                      A                      A                      A
 Frequencies --    148.3927               190.3580               334.5694
 Red. masses --      2.1639                 1.1470                 2.3144
 Frc consts  --      0.0281                 0.0245                 0.1526
 IR Inten    --     17.9279                 7.3524                16.7585

                      4                      5                      6
                      A                      A                      A
 Frequencies --    554.2022               666.5514               752.5278
 Red. masses --      2.8535                 1.3195                 1.6587
 Frc consts  --      0.5164                 0.3454                 0.5534
 IR Inten    --     15.1686                12.7921                50.9197

                      7                      8                      9
                      A                      A                      A
 Frequencies --    796.3993               972.3889               999.5578
 Red. masses --      4.1391                 1.2500                 1.8572
 Frc consts  --      1.5467                 0.6964                 1.0933
 IR Inten    --     29.1478                 2.8338                37.4882

                     10                     11                     12
                      A                      A                      A
 Frequencies --   1067.6709              1094.2800              1274.2254
 Red. masses --      1.2311                 1.3394                 2.9171
 Frc consts  --      0.8268                 0.9450                 2.7906
 IR Inten    --     46.9935                17.0355                80.1100

                     13                     14                     15
                      A                      A                      A
 Frequencies --   1343.7142              1441.3596              1483.3697
 Red. masses --      1.2051                 1.1885                 1.1872
 Frc consts  --      1.2820                 1.4547                 1.5391
 IR Inten    --      8.4647                12.6940                10.2079

                     16                     17                     18
                      A                      A                      A
 Frequencies --   1613.4054              1659.1677              1679.9152
 Red. masses --      1.0635                 1.0833                 3.9066
 Frc consts  --      1.6311                 1.7571                 6.4956
 IR Inten    --     54.3377                80.3132               152.6041

                     19                     20                     21
                      A                      A                      A
 Frequencies --   2912.0178              3155.4631              3162.6317
 Red. masses --      1.0826                 1.0867                 1.0584
 Frc consts  --      5.4089                 6.3752                 6.2375
 IR Inten    --     97.1589                70.0863                 0.5418

                     22                     23                     24
                      A                      A                      A
 Frequencies --   3167.1969              3250.6780              3493.7302
 Red. masses --      1.0422                 1.1152                 1.0784
 Frc consts  --      6.1598                 6.9429                 7.7555
 IR Inten    --    163.5921                17.0334                47.7251

 - Thermochemistry -
 -------------------
 Temperature   298.150 Kelvin.  Pressure   1.00000 Atm.
 Atom     1 has atomic number  6 and mass  12.00000

 Molecular mass:    58.05310 amu.
 Principal axes and moments of inertia in atomic units:
                           1         2         3
     Eigenvalues --    47.19952 413.68759 446.99142
           X            0.99993   0.01139   0.00118
           Y           -0.01131   0.99853  -0.05294
           Z           -0.00178   0.05293   0.99860
 This molecule is an asymmetric top.
 Rotational symmetry number  1.
 Rotational temperatures (Kelvin)      1.83506     0.20937     0.19377
 Rotational constants (GHZ):          38.23643     4.36257     4.03753
 Zero-point vibrational energy     222587.8 (Joules/Mol)
                                   53.19976 (Kcal/Mol)
 Warning -- explicit consideration of   4 degrees of freedom as
           vibrations may cause significant error
 Vibrational temperatures:    213.50   273.88   481.37   797.37   959.02
          (Kelvin)           1082.72  1145.84  1399.05  1438.14  1536.14
                             1574.42  1833.32  1933.30  2073.79  2134.24
                             2321.33  2387.17  2417.02  4189.74  4540.00
                             4550.32  4556.88  4676.99  5026.69

 Zero-point correction=                           0.084779 (Hartree/Particle)
 Thermal correction to Energy=                    0.089872
 Thermal correction to Enthalpy=                  0.090816
 Thermal correction to Gibbs Free Energy=         0.057694
 Sum of electronic and zero-point Energies=           -189.131092
 Sum of electronic and thermal Energies=              -189.125999
 Sum of electronic and thermal Enthalpies=            -189.125055
 Sum of electronic and thermal Free Energies=         -189.158177

                     E (Thermal)             CV                S
                      KCal/Mol        Cal/Mol-Kelvin    Cal/Mol-Kelvin
 Total                   56.396             16.713             69.711
 Electronic               0.000              0.000              0.000
 Translational            0.889              2.981             38.097
 Rotational               0.889              2.981             23.683
 Vibrational             54.618             10.751              7.931
 Vibration     1          0.618              1.904              2.693
 Vibration     2          0.634              1.853              2.224
 Vibration     3          0.716              1.606              1.238
 Vibration     4          0.910              1.131              0.536

 Optimization completed.
    -- Stationary point found.
 Normal termination of Gaussian 09 at Tue Aug 30 10:18:54 2022.

 -----------------------------------------------------------------
 #P Geom=AllCheck Guess=TCheck SCRF=Check CCSD(T,E4T,FrzG4)/GTBas1
 -----------------------------------------------------------------

 Structure from the checkpoint file:  "G4.Frag_851.chk"
 --------
 Frag_851
 --------
 Charge =  0 Multiplicity = 1

 SCF Done:  E(RHF) =  -187.978659263     A.U. after   13 cycles
 E2 =    -0.5860894474D+00 EUMP2 =    -0.18856474871021D+03
 CCSD(T)
 CCSD(T)= -0.18862340597D+03
 43\MP4SDTQ=-188.6222489\MP4SDQ=-188.6017394\CCSD=-188.6025779\CCSD(T)=
 Normal termination of Gaussian 09 at Tue Aug 30 10:19:17 2022.

 ---------------------------------------------------------
 #P Geom=AllCheck Guess=TCheck SCRF=Check MP4=FrzG4/GTBas2
 ---------------------------------------------------------

 Structure from the checkpoint file:  "G4.Frag_851.chk"
 --------
 Frag_851
 --------
 Charge =  0 Multiplicity = 1

 SCF Done:  E(RHF) =  -187.991030512     A.U. after   13 cycles
 E2 =    -0.5955659363D+00 EUMP2 =    -0.18858659644874D+03
 Normal termination of Gaussian 09 at Tue Aug 30 10:19:24 2022.

 ---------------------------------------------------------
 #P Geom=AllCheck Guess=TCheck SCRF=Check MP4=FrzG4/GTBas3
 ---------------------------------------------------------

 Structure from the checkpoint file:  "G4.Frag_851.chk"
 --------
 Frag_851
 --------
 Charge =  0 Multiplicity = 1

 SCF Done:  E(RHF) =  -188.007344733     A.U. after   12 cycles
 E2 =    -0.7138466489D+00 EUMP2 =    -0.18872119138216D+03
 Normal termination of Gaussian 09 at Tue Aug 30 10:19:55 2022.

 -----------------------------------------------------------
 #P Geom=AllCheck Guess=TCheck SCRF=Check MP2=Full/GTLargeXP
 -----------------------------------------------------------

 Structure from the checkpoint file:  "G4.Frag_851.chk"
 --------
 Frag_851
 --------
 Charge =  0 Multiplicity = 1

 SCF Done:  E(RHF) =  -188.062154316     A.U. after   13 cycles
 E2 =    -0.9350433390D+00 EUMP2 =    -0.18899719765533D+03
 Normal termination of Gaussian 09 at Tue Aug 30 10:20:17 2022.
 SCF Done:  E(RHF) =  -188.076943346     A.U. after    9 cycles
 Normal termination of Gaussian 09 at Tue Aug 30 10:20:46 2022.

                         Standard orientation:
 ---------------------------------------------------------------------
 Center     Atomic      Atomic             Coordinates (Angstroms)
 Number     Number       Type             X           Y           Z
 ---------------------------------------------------------------------
      1          6           0       -1.918258   -0.024251    0.079677
      2          6           0       -0.613743    0.273205   -0.072292
      3          7           0        0.425881   -0.617314   -0.133582
      4          7           0        1.648027    0.123115    0.074335
      5          1           0       -2.671621    0.746126   -0.017673
      6          1           0       -2.249690   -1.043315    0.241414
      7          1           0       -0.361850    1.341544   -0.219536
      8          1           0        1.858748    0.348744    1.064187
      9          1           0        2.414901   -0.456904   -0.266283
     10          1           0        1.684162    1.029477   -0.431694
 ---------------------------------------------------------------------

 SCF Done:  E(RHF) =  -188.080191485     A.U. after    9 cycles

 The electronic state is 1-A.
 Alpha  occ. eigenvalues --  -15.70967 -15.51884 -11.23740 -11.16352  -1.33638
 Alpha  occ. eigenvalues --   -1.09673  -0.93730  -0.79007  -0.75827  -0.70741
 Alpha  occ. eigenvalues --   -0.65686  -0.54897  -0.50715  -0.43694  -0.40640
 Alpha  occ. eigenvalues --   -0.25880
 Alpha virt. eigenvalues --    0.01682   0.04762   0.05575   0.06074   0.07646
 Alpha virt. eigenvalues --    0.08016   0.09033   0.10104   0.10402   0.11361
 Alpha virt. eigenvalues --    0.13073   0.13910   0.15053   0.17205   0.18199

 Mulliken charges:
               1
     1  C   -0.547400
     2  C    0.006411
     3  N   -0.504869
     4  N   -0.441543
     5  H    0.172968
     6  H    0.174491
     7  H    0.096023
     8  H    0.342123
     9  H    0.365007
    10  H    0.336788
 Sum of Mulliken charges =  -0.00000

 Dipole moment (field-independent basis, Debye):
    X=              6.0444    Y=              2.8718    Z=              0.5531  Tot=              6.7147
 Quadrupole moment (field-independent basis, Debye-Ang):
   XX=            -16.6356   YY=            -26.6944   ZZ=            -27.8746
   XY=              2.2503   XZ=              0.8781   YZ=             -0.8101

 Normal termination of Gaussian 09 at Tue Aug 30 10:23:53 2022.
