 Gaussian 09, Revision E.01,
 Gaussian 09:  ES64L-G09RevE.01 30-Nov-2015

 -----
 #P G4
 -----

 --------
 Frag_811
 --------
 Symbolic Z-matrix:
 Charge =  0 Multiplicity = 1

 SCF Done:  E(RB3LYP) =  -380.296056911     A.U. after   12 cycles
 SCF Done:  E(RB3LYP) =  -380.304082277     A.U. after   11 cycles
 SCF Done:  E(RB3LYP) =  -380.305826156     A.U. after   11 cycles
 SCF Done:  E(RB3LYP) =  -380.307083676     A.U. after   11 cycles
 SCF Done:  E(RB3LYP) =  -380.307211462     A.U. after   11 cycles
 SCF Done:  E(RB3LYP) =  -380.307645281     A.U. after   10 cycles
 SCF Done:  E(RB3LYP) =  -380.307770964     A.U. after   10 cycles
 SCF Done:  E(RB3LYP) =  -380.307885378     A.U. after   10 cycles
 SCF Done:  E(RB3LYP) =  -380.307937942     A.U. after   10 cycles
 SCF Done:  E(RB3LYP) =  -380.307990945     A.U. after   10 cycles
 SCF Done:  E(RB3LYP) =  -380.308017040     A.U. after    6 cycles
 SCF Done:  E(RB3LYP) =  -380.308017051     A.U. after    7 cycles
 SCF Done:  E(RB3LYP) =  -380.308017038     A.U. after    6 cycles
 Optimization completed.
    -- Stationary point found.
 Normal termination of Gaussian 09 at Fri Aug 26 11:09:32 2022.

 ----------------------------------------------------------
 #P Geom=AllCheck Guess=TCheck SCRF=Check B3LYP/GTBas3 Freq
 ----------------------------------------------------------

 Structure from the checkpoint file:  "G4.Frag_811.chk"
 --------
 Frag_811
 --------
 Charge =  0 Multiplicity = 1

 SCF Done:  E(RB3LYP) =  -380.308017038     A.U. after    1 cycles

  Exact polarizability:  60.172   1.493  56.378   0.300   1.446  52.604
 Approx polarizability:  78.493  -0.309  78.804   0.782   1.848  79.652

                      1                      2                      3
                      A                      A                      A
 Frequencies --     76.4973               129.1789               158.3000
 Red. masses --      1.7862                 1.6963                 1.1572
 Frc consts  --      0.0062                 0.0167                 0.0171
 IR Inten    --     21.3192                51.3480                19.0880

                      4                      5                      6
                      A                      A                      A
 Frequencies --    251.5644               263.6524               276.2201
 Red. masses --      1.5835                 2.3201                 1.7284
 Frc consts  --      0.0590                 0.0950                 0.0777
 IR Inten    --      0.5517                 1.1554                 3.8166

                      7                      8                      9
                      A                      A                      A
 Frequencies --    298.1805               360.7181               393.4984
 Red. masses --      1.1713                 2.5253                 2.5699
 Frc consts  --      0.0614                 0.1936                 0.2345
 IR Inten    --     28.8037                10.5509                13.4116

                     10                     11                     12
                      A                      A                      A
 Frequencies --    412.2861               443.9803               531.4768
 Red. masses --      1.7348                 2.7678                 3.6528
 Frc consts  --      0.1737                 0.3215                 0.6079
 IR Inten    --     62.4042                11.4211                12.4970

                     13                     14                     15
                      A                      A                      A
 Frequencies --    566.0613               634.1776               764.5740
 Red. masses --      2.5570                 3.0093                 2.7005
 Frc consts  --      0.4827                 0.7131                 0.9301
 IR Inten    --     60.7580                10.4505                26.1146

                     16                     17                     18
                      A                      A                      A
 Frequencies --    856.4595               870.7028               913.8660
 Red. masses --      1.5246                 1.7804                 1.5362
 Frc consts  --      0.6589                 0.7952                 0.7559
 IR Inten    --    128.3535               139.4900                39.0154

                     19                     20                     21
                      A                      A                      A
 Frequencies --    963.0584              1031.5090              1061.0331
 Red. masses --      1.9853                 3.4287                 1.4674
 Frc consts  --      1.0849                 2.1494                 0.9734
 IR Inten    --     27.1236                73.4789                25.5243

                     22                     23                     24
                      A                      A                      A
 Frequencies --   1091.8887              1125.6879              1183.3484
 Red. masses --      2.2528                 2.0591                 1.7683
 Frc consts  --      1.5824                 1.5373                 1.4589
 IR Inten    --     97.9237                14.9087                25.2897

                     25                     26                     27
                      A                      A                      A
 Frequencies --   1234.0263              1308.7177              1311.8636
 Red. masses --      1.8062                 1.7170                 1.4332
 Frc consts  --      1.6205                 1.7326                 1.4532
 IR Inten    --     61.8925                73.1694                 4.8252

                     28                     29                     30
                      A                      A                      A
 Frequencies --   1374.2777              1396.1841              1418.4081
 Red. masses --      1.4988                 1.3068                 1.6374
 Frc consts  --      1.6678                 1.5009                 1.9410
 IR Inten    --     29.9715                23.2075                13.8070

                     31                     32                     33
                      A                      A                      A
 Frequencies --   1447.3226              1482.1216              1504.5147
 Red. masses --      1.2452                 1.0553                 1.0765
 Frc consts  --      1.5369                 1.3658                 1.4357
 IR Inten    --     54.7548                 0.3794                 6.2661

                     34                     35                     36
                      A                      A                      A
 Frequencies --   1630.0022              1637.7590              2955.2957
 Red. masses --      1.1053                 1.1106                 1.0831
 Frc consts  --      1.7303                 1.7552                 5.5733
 IR Inten    --     38.5941                42.7128                70.7401

                     37                     38                     39
                      A                      A                      A
 Frequencies --   3023.8005              3093.9791              3129.5087
 Red. masses --      1.0401                 1.0971                 1.1003
 Frc consts  --      5.6032                 6.1879                 6.3489
 IR Inten    --     21.0513                25.0252                12.1732

                     40                     41                     42
                      A                      A                      A
 Frequencies --   3478.0923              3507.3235              3563.4450
 Red. masses --      1.0489                 1.0483                 1.0923
 Frc consts  --      7.4762                 7.5976                 8.1719
 IR Inten    --      0.2567                12.1441                 0.3555

                     43                     44                     45
                      A                      A                      A
 Frequencies --   3600.0224              3764.4725              3833.9390
 Red. masses --      1.0940                 1.0641                 1.0666
 Frc consts  --      8.3534                 8.8845                 9.2376
 IR Inten    --     12.2041                26.6388                22.7807

 - Thermochemistry -
 -------------------
 Temperature   298.150 Kelvin.  Pressure   1.00000 Atm.
 Atom     1 has atomic number  6 and mass  12.00000

 Molecular mass:   106.07423 amu.
 Principal axes and moments of inertia in atomic units:
                           1         2         3
     Eigenvalues --   545.96215 750.92590 924.87719
           X            0.99626   0.08546  -0.01253
           Y           -0.08504   0.99590   0.03092
           Z            0.01512  -0.02973   0.99944
 This molecule is an asymmetric top.
 Rotational symmetry number  1.
 Warning -- assumption of classical behavior for rotation
           may cause significant error
 Rotational temperatures (Kelvin)      0.15864     0.11534     0.09365
 Rotational constants (GHZ):           3.30562     2.40335     1.95133
 Zero-point vibrational energy     384916.4 (Joules/Mol)
                                   91.99723 (Kcal/Mol)
 Warning -- explicit consideration of  13 degrees of freedom as
           vibrations may cause significant error
 Vibrational temperatures:    110.06   185.86   227.76   361.94   379.34
          (Kelvin)            397.42   429.01   518.99   566.16   593.19
                              638.79   764.68   814.43   912.44  1100.05
                             1232.25  1252.75  1314.85  1385.62  1484.11
                             1526.59  1570.98  1619.61  1702.57  1775.49
                             1882.95  1887.48  1977.28  2008.80  2040.77
                             2082.37  2132.44  2164.66  2345.21  2356.37
                             4252.01  4350.57  4451.54  4502.66  5004.19
                             5046.25  5127.00  5179.62  5416.23  5516.18

 Zero-point correction=                           0.146607 (Hartree/Particle)
 Thermal correction to Energy=                    0.155625
 Thermal correction to Enthalpy=                  0.156569
 Thermal correction to Gibbs Free Energy=         0.113894
 Sum of electronic and zero-point Energies=           -380.161410
 Sum of electronic and thermal Energies=              -380.152392
 Sum of electronic and thermal Enthalpies=            -380.151448
 Sum of electronic and thermal Free Energies=         -380.194123

                     E (Thermal)             CV                S
                      KCal/Mol        Cal/Mol-Kelvin    Cal/Mol-Kelvin
 Total                   97.656             33.003             89.818
 Electronic               0.000              0.000              0.000
 Translational            0.889              2.981             39.894
 Rotational               0.889              2.981             27.430
 Vibrational             95.879             27.042             22.494
 Vibration     1          0.599              1.965              3.979
 Vibration     2          0.612              1.924              2.958
 Vibration     3          0.621              1.893              2.570
 Vibration     4          0.664              1.760              1.720
 Vibration     5          0.670              1.740              1.637
 Vibration     6          0.678              1.717              1.557
 Vibration     7          0.691              1.677              1.427
 Vibration     8          0.735              1.553              1.119
 Vibration     9          0.761              1.484              0.987
 Vibration    10          0.776              1.444              0.919
 Vibration    11          0.803              1.374              0.814
 Vibration    12          0.886              1.180              0.584
 Vibration    13          0.922              1.105              0.512

 Optimization completed.
    -- Stationary point found.
 Normal termination of Gaussian 09 at Fri Aug 26 11:10:25 2022.

 -----------------------------------------------------------------
 #P Geom=AllCheck Guess=TCheck SCRF=Check CCSD(T,E4T,FrzG4)/GTBas1
 -----------------------------------------------------------------

 Structure from the checkpoint file:  "G4.Frag_811.chk"
 --------
 Frag_811
 --------
 Charge =  0 Multiplicity = 1

 SCF Done:  E(RHF) =  -378.018663512     A.U. after   12 cycles
 E2 =    -0.1084265075D+01 EUMP2 =    -0.37910292858640D+03
 CCSD(T)
 CCSD(T)= -0.37918905961D+03
 .1587261\CCSD=-379.159038\CCSD(T)=-379.1890596\RMSD=3.571e-09\PG=C01 [
 Normal termination of Gaussian 09 at Fri Aug 26 11:15:01 2022.

 ---------------------------------------------------------
 #P Geom=AllCheck Guess=TCheck SCRF=Check MP4=FrzG4/GTBas2
 ---------------------------------------------------------

 Structure from the checkpoint file:  "G4.Frag_811.chk"
 --------
 Frag_811
 --------
 Charge =  0 Multiplicity = 1

 SCF Done:  E(RHF) =  -378.034194702     A.U. after   12 cycles
 E2 =    -0.1105299205D+01 EUMP2 =    -0.37913949390644D+03
 Normal termination of Gaussian 09 at Fri Aug 26 11:16:26 2022.

 ---------------------------------------------------------
 #P Geom=AllCheck Guess=TCheck SCRF=Check MP4=FrzG4/GTBas3
 ---------------------------------------------------------

 Structure from the checkpoint file:  "G4.Frag_811.chk"
 --------
 Frag_811
 --------
 Charge =  0 Multiplicity = 1

 SCF Done:  E(RHF) =  -378.076509773     A.U. after   11 cycles
 E2 =    -0.1342319753D+01 EUMP2 =    -0.37941882952537D+03
 Normal termination of Gaussian 09 at Fri Aug 26 11:29:01 2022.

 -----------------------------------------------------------
 #P Geom=AllCheck Guess=TCheck SCRF=Check MP2=Full/GTLargeXP
 -----------------------------------------------------------

 Structure from the checkpoint file:  "G4.Frag_811.chk"
 --------
 Frag_811
 --------
 Charge =  0 Multiplicity = 1

 SCF Done:  E(RHF) =  -378.181280889     A.U. after   12 cycles
 E2 =    -0.1748596772D+01 EUMP2 =    -0.37992987766070D+03
 Normal termination of Gaussian 09 at Fri Aug 26 11:33:03 2022.
 SCF Done:  E(RHF) =  -378.211210126     A.U. after    9 cycles
 Normal termination of Gaussian 09 at Fri Aug 26 11:36:55 2022.

                         Standard orientation:
 ---------------------------------------------------------------------
 Center     Atomic      Atomic             Coordinates (Angstroms)
 Number     Number       Type             X           Y           Z
 ---------------------------------------------------------------------
      1          6           0        1.456907    1.056792   -0.584189
      2          6           0        0.601154   -0.067848    0.010106
      3          7           0        1.078309   -1.417150   -0.328657
      4          8           0        0.574275    0.031846    1.426543
      5          6           0       -0.872398    0.068851   -0.472263
      6          7           0       -1.662589   -1.009784    0.076768
      7          8           0       -1.400666    1.314549   -0.072983
      8          1           0        1.516637    0.970252   -1.673641
      9          1           0        1.026220    2.031960   -0.345493
     10          1           0        2.479586    0.999827   -0.190365
     11          1           0        1.239596   -1.486748   -1.330631
     12          1           0        1.974115   -1.574118    0.124855
     13          1           0        1.307574    0.588437    1.703436
     14          1           0       -0.866921    0.113101   -1.574642
     15          1           0       -1.114599   -1.864307    0.074251
     16          1           0       -2.507591   -1.150177   -0.464079
     17          1           0       -1.467500    1.242387    0.889131
 ---------------------------------------------------------------------

 SCF Done:  E(RHF) =  -378.217918761     A.U. after    8 cycles

 The electronic state is 1-A.
 Alpha  occ. eigenvalues --  -20.56329 -20.54419 -15.55168 -15.52847 -11.32105
 Alpha  occ. eigenvalues --  -11.30270 -11.22752  -1.39016  -1.35522  -1.19106
 Alpha  occ. eigenvalues --   -1.15250  -1.00421  -0.90289  -0.80621  -0.70427
 Alpha  occ. eigenvalues --   -0.69238  -0.66089  -0.65516  -0.63534  -0.60501
 Alpha  occ. eigenvalues --   -0.58847  -0.56564  -0.54598  -0.51804  -0.50455
 Alpha  occ. eigenvalues --   -0.48804  -0.44504  -0.41096  -0.38982
 Alpha virt. eigenvalues --    0.02913   0.04236   0.04709   0.05265   0.06667
 Alpha virt. eigenvalues --    0.07050   0.07206   0.07547   0.08035   0.09792
 Alpha virt. eigenvalues --    0.11210   0.12006   0.12352   0.12967   0.13047

 Mulliken charges:
               1
     1  C   -0.591871
     2  C    0.460061
     3  N   -0.752840
     4  O   -0.630359
     5  C    0.194842
     6  N   -0.736670
     7  O   -0.627928
     8  H    0.173985
     9  H    0.209774
    10  H    0.164832
    11  H    0.288239
    12  H    0.295030
    13  H    0.379092
    14  H    0.151846
    15  H    0.331823
    16  H    0.294979
    17  H    0.395164
 Sum of Mulliken charges =  -0.00000

 Dipole moment (field-independent basis, Debye):
    X=              3.0132    Y=             -0.1983    Z=             -1.5680  Tot=              3.4025
 Quadrupole moment (field-independent basis, Debye-Ang):
   XX=            -39.6546   YY=            -46.0311   ZZ=            -42.0760
   XY=              2.6975   XZ=              2.0464   YZ=              5.4394

 Normal termination of Gaussian 09 at Fri Aug 26 11:49:23 2022.
