 Gaussian 09, Revision E.01,
 Gaussian 09:  ES64L-G09RevE.01 30-Nov-2015

 -----
 #P G4
 -----

 --------
 Frag_913
 --------
 Symbolic Z-matrix:
 Charge =  0 Multiplicity = 1

 SCF Done:  E(RB3LYP) =  -303.865352411     A.U. after   14 cycles
 SCF Done:  E(RB3LYP) =  -303.871500999     A.U. after   13 cycles
 SCF Done:  E(RB3LYP) =  -303.872308803     A.U. after   12 cycles
 SCF Done:  E(RB3LYP) =  -303.872355716     A.U. after   12 cycles
 SCF Done:  E(RB3LYP) =  -303.872934145     A.U. after   12 cycles
 SCF Done:  E(RB3LYP) =  -303.873170670     A.U. after   12 cycles
 SCF Done:  E(RB3LYP) =  -303.840287694     A.U. after   13 cycles
 SCF Done:  E(RB3LYP) =  -303.873181008     A.U. after    8 cycles
 SCF Done:  E(RB3LYP) =  -303.874873346     A.U. after   14 cycles
 SCF Done:  E(RB3LYP) =  -303.827031476     A.U. after   15 cycles
 SCF Done:  E(RB3LYP) =  -303.876704081     A.U. after   10 cycles
 SCF Done:  E(RB3LYP) =  -303.876718653     A.U. after    9 cycles
 SCF Done:  E(RB3LYP) =  -303.876718983     A.U. after    7 cycles
 Optimization completed.
    -- Stationary point found.
 Normal termination of Gaussian 09 at Sat Aug 20 20:44:14 2022.

 ----------------------------------------------------------
 #P Geom=AllCheck Guess=TCheck SCRF=Check B3LYP/GTBas3 Freq
 ----------------------------------------------------------

 Structure from the checkpoint file:  "G4.Frag_913.chk"
 --------
 Frag_913
 --------
 Charge =  0 Multiplicity = 1

 SCF Done:  E(RB3LYP) =  -303.876718983     A.U. after    1 cycles

  Exact polarizability:  53.579   1.278  51.172   0.211   1.690  44.998
 Approx polarizability:  67.027  -0.107  77.949  -0.992   7.102  69.215

                      1                      2                      3
                      A                      A                      A
 Frequencies --     58.3062               133.6517               224.5482
 Red. masses --      4.0043                 1.0566                 1.1631
 Frc consts  --      0.0080                 0.0111                 0.0346
 IR Inten    --      2.7048                 0.0488                46.6545

                      4                      5                      6
                      A                      A                      A
 Frequencies --    246.1279               272.2880               321.2254
 Red. masses --      3.3973                 1.7189                 1.4424
 Frc consts  --      0.1213                 0.0751                 0.0877
 IR Inten    --      3.8903                28.4822                16.3684

                      7                      8                      9
                      A                      A                      A
 Frequencies --    368.3612               480.6662               599.1694
 Red. masses --      2.9921                 2.5426                 3.0425
 Frc consts  --      0.2392                 0.3461                 0.6435
 IR Inten    --     17.3916                25.0116                 1.9898

                     10                     11                     12
                      A                      A                      A
 Frequencies --    627.7218               756.1254               877.4344
 Red. masses --      2.8431                 2.5830                 2.2439
 Frc consts  --      0.6600                 0.8701                 1.0178
 IR Inten    --      6.3908                20.3515               125.9455

                     13                     14                     15
                      A                      A                      A
 Frequencies --    923.8325               958.1055              1017.1143
 Red. masses --      1.5205                 2.0648                 1.5955
 Frc consts  --      0.7646                 1.1167                 0.9725
 IR Inten    --    168.0629                19.4281                 4.2418

                     16                     17                     18
                      A                      A                      A
 Frequencies --   1047.9826              1146.1393              1152.7564
 Red. masses --      1.5583                 1.6848                 1.7862
 Frc consts  --      1.0084                 1.3040                 1.3985
 IR Inten    --     62.0828                31.0479                21.8144

                     19                     20                     21
                      A                      A                      A
 Frequencies --   1186.3624              1275.2330              1374.4382
 Red. masses --      2.0458                 1.9781                 1.3054
 Frc consts  --      1.6964                 1.8953                 1.4529
 IR Inten    --     37.8081                 6.0052                36.5335

                     22                     23                     24
                      A                      A                      A
 Frequencies --   1397.2457              1417.3356              1464.9660
 Red. masses --      1.3494                 1.2962                 1.0544
 Frc consts  --      1.5522                 1.5341                 1.3332
 IR Inten    --      2.2895                 8.4621                 9.1332

                     25                     26                     27
                      A                      A                      A
 Frequencies --   1474.9709              1663.0879              1668.8555
 Red. masses --      1.0522                 1.0876                 1.0976
 Frc consts  --      1.3487                 1.7723                 1.8011
 IR Inten    --      9.8886                30.5736                23.8425

                     28                     29                     30
                      A                      A                      A
 Frequencies --   1812.6735              3035.2531              3041.8233
 Red. masses --     10.3765                 1.0545                 1.0686
 Frc consts  --     20.0882                 5.7237                 5.8253
 IR Inten    --    122.7422                 2.9051                25.4643

                     31                     32                     33
                      A                      A                      A
 Frequencies --   3108.8469              3155.6121              3459.8281
 Red. masses --      1.0921                 1.1044                 1.0501
 Frc consts  --      6.2190                 6.4798                 7.4064
 IR Inten    --      5.1300                 8.8510                 3.9600

                     34                     35                     36
                      A                      A                      A
 Frequencies --   3474.9488              3539.8896              3552.0966
 Red. masses --      1.0496                 1.0896                 1.0912
 Frc consts  --      7.4676                 8.0442                 8.1116
 IR Inten    --      0.4212                 3.9467                 2.1699

 - Thermochemistry -
 -------------------
 Temperature   298.150 Kelvin.  Pressure   1.00000 Atm.
 Atom     1 has atomic number  6 and mass  12.00000

 Molecular mass:    88.06366 amu.
 Principal axes and moments of inertia in atomic units:
                           1         2         3
     Eigenvalues --   365.74267 604.41704 798.35566
           X            0.99789   0.06165   0.02033
           Y           -0.06124   0.99791  -0.02044
           Z           -0.02155   0.01915   0.99958
 This molecule is an asymmetric top.
 Rotational symmetry number  1.
 Rotational temperatures (Kelvin)      0.23682     0.14330     0.10849
 Rotational constants (GHZ):           4.93446     2.98592     2.26057
 Zero-point vibrational energy     312913.3 (Joules/Mol)
                                   74.78808 (Kcal/Mol)
 Warning -- explicit consideration of   9 degrees of freedom as
           vibrations may cause significant error
 Vibrational temperatures:     83.89   192.29   323.07   354.12   391.76
          (Kelvin)            462.17   529.99   691.57   862.07   903.15
                             1087.89  1262.43  1329.19  1378.50  1463.40
                             1507.81  1649.04  1658.56  1706.91  1834.77
                             1977.51  2010.32  2039.23  2107.76  2122.15
                             2392.81  2401.11  2608.03  4367.05  4376.50
                             4472.93  4540.22  4977.91  4999.67  5093.11
                             5110.67

 Zero-point correction=                           0.119182 (Hartree/Particle)
 Thermal correction to Energy=                    0.126676
 Thermal correction to Enthalpy=                  0.127620
 Thermal correction to Gibbs Free Energy=         0.087849
 Sum of electronic and zero-point Energies=           -303.757537
 Sum of electronic and thermal Energies=              -303.750043
 Sum of electronic and thermal Enthalpies=            -303.749099
 Sum of electronic and thermal Free Energies=         -303.788870

                     E (Thermal)             CV                S
                      KCal/Mol        Cal/Mol-Kelvin    Cal/Mol-Kelvin
 Total                   79.490             25.912             83.705
 Electronic               0.000              0.000              0.000
 Translational            0.889              2.981             39.339
 Rotational               0.889              2.981             26.670
 Vibrational             77.713             19.950             17.696
 Vibration     1          0.596              1.974              4.514
 Vibration     2          0.613              1.920              2.893
 Vibration     3          0.649              1.804              1.922
 Vibration     4          0.661              1.769              1.758
 Vibration     5          0.675              1.724              1.582
 Vibration     6          0.707              1.633              1.304
 Vibration     7          0.741              1.537              1.087
 Vibration     8          0.837              1.293              0.708
 Vibration     9          0.957              1.034              0.451

 Normal termination of Gaussian 09 at Sat Aug 20 20:46:32 2022.

 -----------------------------------------------------------------
 #P Geom=AllCheck Guess=TCheck SCRF=Check CCSD(T,E4T,FrzG4)/GTBas1
 -----------------------------------------------------------------

 Structure from the checkpoint file:  "G4.Frag_913.chk"
 --------
 Frag_913
 --------
 Charge =  0 Multiplicity = 1

 SCF Done:  E(RHF) =  -302.007237189     A.U. after   13 cycles
 E2 =    -0.8898988956D+00 EUMP2 =    -0.30289713608505D+03
 CCSD(T)
 CCSD(T)= -0.30297300564D+03
 P4SDQ=-302.9458408\CCSD=-302.9450011\CCSD(T)=-302.9730056\RMSD=9.487e-
 Normal termination of Gaussian 09 at Sat Aug 20 20:52:44 2022.

 ---------------------------------------------------------
 #P Geom=AllCheck Guess=TCheck SCRF=Check MP4=FrzG4/GTBas2
 ---------------------------------------------------------

 Structure from the checkpoint file:  "G4.Frag_913.chk"
 --------
 Frag_913
 --------
 Charge =  0 Multiplicity = 1

 SCF Done:  E(RHF) =  -302.018053011     A.U. after   13 cycles
 E2 =    -0.9040394609D+00 EUMP2 =    -0.30292209247162D+03
 Normal termination of Gaussian 09 at Sat Aug 20 20:58:54 2022.

 ---------------------------------------------------------
 #P Geom=AllCheck Guess=TCheck SCRF=Check MP4=FrzG4/GTBas3
 ---------------------------------------------------------

 Structure from the checkpoint file:  "G4.Frag_913.chk"
 --------
 Frag_913
 --------
 Charge =  0 Multiplicity = 1

 SCF Done:  E(RHF) =  -302.047654936     A.U. after   13 cycles
 E2 =    -0.1091265534D+01 EUMP2 =    -0.30313892047005D+03
 Normal termination of Gaussian 09 at Sat Aug 20 23:29:24 2022.

 -----------------------------------------------------------
 #P Geom=AllCheck Guess=TCheck SCRF=Check MP2=Full/GTLargeXP
 -----------------------------------------------------------

 Structure from the checkpoint file:  "G4.Frag_913.chk"
 --------
 Frag_913
 --------
 Charge =  0 Multiplicity = 1

 SCF Done:  E(RHF) =  -302.127340004     A.U. after   12 cycles
 E2 =    -0.1427556371D+01 EUMP2 =    -0.30355489637478D+03
 Normal termination of Gaussian 09 at Sat Aug 20 23:34:56 2022.
 SCF Done:  E(RHF) =  -302.150753224     A.U. after    9 cycles
 Normal termination of Gaussian 09 at Sat Aug 20 23:40:42 2022.

                         Standard orientation:
 ---------------------------------------------------------------------
 Center     Atomic      Atomic             Coordinates (Angstroms)
 Number     Number       Type             X           Y           Z
 ---------------------------------------------------------------------
      1          6           0       -1.918354   -0.572938   -0.366467
      2          6           0       -0.728662    0.275585    0.019678
      3          8           0       -0.827741    1.312439    0.636045
      4          6           0        0.669577   -0.258320   -0.377491
      5          7           0        1.702098    0.770294   -0.382866
      6          7           0        0.938534   -1.360469    0.547291
      7          1           0       -2.825970   -0.193744    0.104857
      8          1           0       -2.042050   -0.551457   -1.456307
      9          1           0       -1.736784   -1.613176   -0.083054
     10          1           0        0.607718   -0.692028   -1.383177
     11          1           0        1.652665    1.302071   -1.248417
     12          1           0        1.474818    1.437358    0.354433
     13          1           0        1.015459   -0.984349    1.490119
     14          1           0        1.856271   -1.738924    0.327898
 ---------------------------------------------------------------------

 SCF Done:  E(RHF) =  -302.155800515     A.U. after    8 cycles

 The electronic state is 1-A.
 Alpha  occ. eigenvalues --  -20.55284 -15.55433 -15.54619 -11.33324 -11.30015
 Alpha  occ. eigenvalues --  -11.23453  -1.39811  -1.23201  -1.13722  -1.01877
 Alpha  occ. eigenvalues --   -0.89895  -0.75662  -0.70146  -0.66242  -0.63909
 Alpha  occ. eigenvalues --   -0.63387  -0.60945  -0.58330  -0.55981  -0.53481
 Alpha  occ. eigenvalues --   -0.50237  -0.45113  -0.42111  -0.39702
 Alpha virt. eigenvalues --    0.03351   0.04268   0.04998   0.05074   0.06957
 Alpha virt. eigenvalues --    0.07244   0.07362   0.07974   0.08362   0.10040
 Alpha virt. eigenvalues --    0.11436   0.11625   0.12753   0.12958   0.13273

 Mulliken charges:
               1
     1  C   -0.579376
     2  C    0.463469
     3  O   -0.539896
     4  C    0.069455
     5  N   -0.689299
     6  N   -0.690163
     7  H    0.208834
     8  H    0.186157
     9  H    0.228822
    10  H    0.158782
    11  H    0.282226
    12  H    0.311023
    13  H    0.288163
    14  H    0.301804
 Sum of Mulliken charges =  -0.00000

 Dipole moment (field-independent basis, Debye):
    X=              0.0091    Y=             -1.2649    Z=             -1.6500  Tot=              2.0791
 Quadrupole moment (field-independent basis, Debye-Ang):
   XX=            -38.4006   YY=            -40.8818   ZZ=            -33.9721
   XY=              1.6504   XZ=              2.2026   YZ=             -1.9934

 Normal termination of Gaussian 09 at Sun Aug 21 02:17:28 2022.
