 Gaussian 09, Revision E.01,
 Gaussian 09:  ES64L-G09RevE.01 30-Nov-2015

 -----
 #P G4
 -----

 ---------
 Frag_1052
 ---------
 Symbolic Z-matrix:
 Charge =  0 Multiplicity = 1

 SCF Done:  E(RB3LYP) =  -423.449616529     A.U. after   12 cycles
 SCF Done:  E(RB3LYP) =  -423.456128672     A.U. after   11 cycles
 SCF Done:  E(RB3LYP) =  -423.456718334     A.U. after   11 cycles
 SCF Done:  E(RB3LYP) =  -423.456939419     A.U. after   10 cycles
 SCF Done:  E(RB3LYP) =  -423.457014055     A.U. after    9 cycles
 SCF Done:  E(RB3LYP) =  -423.457048710     A.U. after    9 cycles
 SCF Done:  E(RB3LYP) =  -423.457093021     A.U. after    9 cycles
 SCF Done:  E(RB3LYP) =  -423.457133900     A.U. after   10 cycles
 SCF Done:  E(RB3LYP) =  -423.457213383     A.U. after   10 cycles
 SCF Done:  E(RB3LYP) =  -423.459204058     A.U. after   13 cycles
 SCF Done:  E(RB3LYP) =  -423.467692988     A.U. after    8 cycles
 SCF Done:  E(RB3LYP) =  -423.467695068     A.U. after    7 cycles
 SCF Done:  E(RB3LYP) =  -423.467695134     A.U. after    6 cycles
 Optimization completed.
    -- Stationary point found.
 Normal termination of Gaussian 09 at Fri Aug 26 01:15:30 2022.

 ----------------------------------------------------------
 #P Geom=AllCheck Guess=TCheck SCRF=Check B3LYP/GTBas3 Freq
 ----------------------------------------------------------

 Structure from the checkpoint file:  "G4.Frag_1052.chk"
 ---------
 Frag_1052
 ---------
 Charge =  0 Multiplicity = 1

 SCF Done:  E(RB3LYP) =  -423.467695134     A.U. after    1 cycles

  Exact polarizability:  70.155  -1.425  66.615   0.807   0.634  62.419
 Approx polarizability:  93.638   1.067  91.728  -0.169   0.261  94.717

                      1                      2                      3
                      A                      A                      A
 Frequencies --     96.2796               192.5485               226.2814
 Red. masses --      3.3879                 1.0867                 1.2578
 Frc consts  --      0.0185                 0.0237                 0.0379
 IR Inten    --      3.0140                 0.0496                 1.0166

                      4                      5                      6
                      A                      A                      A
 Frequencies --    235.5334               267.0306               282.5777
 Red. masses --      1.3519                 2.6144                 1.8417
 Frc consts  --      0.0442                 0.1098                 0.0866
 IR Inten    --      1.2576                 1.2739                 0.5912

                      7                      8                      9
                      A                      A                      A
 Frequencies --    309.8878               334.2532               348.5875
 Red. masses --      1.1379                 2.3060                 3.2344
 Frc consts  --      0.0644                 0.1518                 0.2316
 IR Inten    --     53.6888                20.1656                 6.3722

                     10                     11                     12
                      A                      A                      A
 Frequencies --    368.9120               390.9386               411.4019
 Red. masses --      2.2295                 2.4485                 1.6797
 Frc consts  --      0.1788                 0.2205                 0.1675
 IR Inten    --      4.4095                 1.7325                30.4987

                     13                     14                     15
                      A                      A                      A
 Frequencies --    476.5222               509.8322               516.1794
 Red. masses --      2.3128                 1.3053                 3.3769
 Frc consts  --      0.3094                 0.1999                 0.5301
 IR Inten    --     56.1855                67.9184                13.3428

                     16                     17                     18
                      A                      A                      A
 Frequencies --    547.8172               584.3203               688.5933
 Red. masses --      3.1207                 2.2712                 3.5307
 Frc consts  --      0.5518                 0.4569                 0.9864
 IR Inten    --     17.4679                86.7479                 6.9609

                     19                     20                     21
                      A                      A                      A
 Frequencies --    850.9507               919.5802               935.2545
 Red. masses --      2.7950                 2.0070                 1.5787
 Frc consts  --      1.1924                 0.9999                 0.8136
 IR Inten    --      5.8517                14.8976                 6.5207

                     22                     23                     24
                      A                      A                      A
 Frequencies --    938.3560               978.6312              1007.1456
 Red. masses --      2.0060                 2.1187                 1.3480
 Frc consts  --      1.0407                 1.1955                 0.8056
 IR Inten    --     46.4737                49.0248                 2.3400

                     25                     26                     27
                      A                      A                      A
 Frequencies --   1059.2381              1103.1784              1138.1875
 Red. masses --      1.7359                 1.9094                 2.0301
 Frc consts  --      1.1475                 1.3691                 1.5495
 IR Inten    --     53.9393                59.6297               145.5010

                     28                     29                     30
                      A                      A                      A
 Frequencies --   1189.2464              1216.4696              1233.2307
 Red. masses --      2.3768                 2.4465                 2.6747
 Frc consts  --      1.9805                 2.1330                 2.3967
 IR Inten    --     37.3236                57.6681                 7.8502

                     31                     32                     33
                      A                      A                      A
 Frequencies --   1342.1142              1368.7745              1390.7670
 Red. masses --      1.5337                 1.3421                 1.2937
 Frc consts  --      1.6276                 1.4815                 1.4744
 IR Inten    --     21.7022                15.5413                19.8775

                     34                     35                     36
                      A                      A                      A
 Frequencies --   1409.4635              1415.8802              1418.2903
 Red. masses --      1.3865                 1.5326                 1.5559
 Frc consts  --      1.6228                 1.8102                 1.8440
 IR Inten    --     35.4600                44.5666                51.3596

                     37                     38                     39
                      A                      A                      A
 Frequencies --   1477.9756              1482.1046              1492.2046
 Red. masses --      1.0553                 1.0535                 1.0454
 Frc consts  --      1.3582                 1.3634                 1.3715
 IR Inten    --      0.7219                 0.9119                 1.3978

                     40                     41                     42
                      A                      A                      A
 Frequencies --   1500.4744              1501.2096              1516.6871
 Red. masses --      1.0946                 1.0580                 1.0710
 Frc consts  --      1.4519                 1.4048                 1.4515
 IR Inten    --      9.6298                 5.7456                 0.9660

                     43                     44                     45
                      A                      A                      A
 Frequencies --   3036.9409              3052.1210              3054.5573
 Red. masses --      1.0393                 1.0365                 1.0375
 Frc consts  --      5.6474                 5.6888                 5.7034
 IR Inten    --     25.7837                14.6754                 7.7447

                     46                     47                     48
                      A                      A                      A
 Frequencies --   3103.7685              3121.8954              3129.1385
 Red. masses --      1.0953                 1.1010                 1.0983
 Frc consts  --      6.2165                 6.3220                 6.3359
 IR Inten    --     25.0993                26.5605                 9.4618

                     49                     50                     51
                      A                      A                      A
 Frequencies --   3135.5291              3140.4734              3154.1362
 Red. masses --      1.1022                 1.1018                 1.1023
 Frc consts  --      6.3845                 6.4027                 6.4614
 IR Inten    --      8.3851                25.2518                 7.9536

                     52                     53                     54
                      A                      A                      A
 Frequencies --   3764.3652              3799.1776              3802.8060
 Red. masses --      1.0648                 1.0658                 1.0649
 Frc consts  --      8.8900                 9.0640                 9.0734
 IR Inten    --     32.5267                19.1810                20.3308

 - Thermochemistry -
 -------------------
 Temperature   298.150 Kelvin.  Pressure   1.00000 Atm.
 Atom     1 has atomic number  6 and mass  12.00000

 Molecular mass:   120.07864 amu.
 Principal axes and moments of inertia in atomic units:
                           1         2         3
     Eigenvalues --   725.886401005.455331026.75570
           X            0.99631  -0.07810   0.03545
           Y            0.06987   0.97878   0.19262
           Z           -0.04974  -0.18943   0.98063
 This molecule is an asymmetric top.
 Rotational symmetry number  1.
 Warning -- assumption of classical behavior for rotation
           may cause significant error
 Rotational temperatures (Kelvin)      0.11932     0.08614     0.08436
 Rotational constants (GHZ):           2.48626     1.79495     1.75771
 Zero-point vibrational energy     454388.5 (Joules/Mol)
                                  108.60145 (Kcal/Mol)
 Warning -- explicit consideration of  17 degrees of freedom as
           vibrations may cause significant error
 Vibrational temperatures:    138.52   277.03   325.57   338.88   384.20
          (Kelvin)            406.57   445.86   480.92   501.54   530.78
                              562.47   591.91   685.61   733.53   742.67
                              788.19   840.71   990.73  1224.33  1323.07
                             1345.62  1350.08  1408.03  1449.06  1524.01
                             1587.23  1637.60  1711.06  1750.23  1774.34
                             1931.00  1969.36  2001.00  2027.90  2037.13
                             2040.60  2126.47  2132.42  2146.95  2158.85
                             2159.90  2182.17  4369.48  4391.32  4394.82
                             4465.63  4491.71  4502.13  4511.32  4518.44
                             4538.09  5416.08  5466.16  5471.38

 Zero-point correction=                           0.173067 (Hartree/Particle)
 Thermal correction to Energy=                    0.182888
 Thermal correction to Enthalpy=                  0.183832
 Thermal correction to Gibbs Free Energy=         0.139978
 Sum of electronic and zero-point Energies=           -423.294628
 Sum of electronic and thermal Energies=              -423.284807
 Sum of electronic and thermal Enthalpies=            -423.283863
 Sum of electronic and thermal Free Energies=         -423.327717

                     E (Thermal)             CV                S
                      KCal/Mol        Cal/Mol-Kelvin    Cal/Mol-Kelvin
 Total                  114.764             38.176             92.300
 Electronic               0.000              0.000              0.000
 Translational            0.889              2.981             40.263
 Rotational               0.889              2.981             28.107
 Vibrational            112.987             32.214             23.930
 Vibration     1          0.603              1.952              3.528
 Vibration     2          0.635              1.850              2.203
 Vibration     3          0.650              1.801              1.908
 Vibration     4          0.655              1.786              1.836
 Vibration     5          0.672              1.734              1.615
 Vibration     6          0.682              1.706              1.518
 Vibration     7          0.699              1.655              1.363
 Vibration     8          0.716              1.607              1.239
 Vibration     9          0.726              1.578              1.173
 Vibration    10          0.741              1.536              1.084
 Vibration    11          0.759              1.490              0.997
 Vibration    12          0.775              1.445              0.922
 Vibration    13          0.833              1.302              0.720
 Vibration    14          0.865              1.228              0.634
 Vibration    15          0.871              1.214              0.619
 Vibration    16          0.903              1.144              0.549
 Vibration    17          0.941              1.065              0.477

 Optimization completed.
    -- Stationary point found.
 Normal termination of Gaussian 09 at Fri Aug 26 01:16:47 2022.

 -----------------------------------------------------------------
 #P Geom=AllCheck Guess=TCheck SCRF=Check CCSD(T,E4T,FrzG4)/GTBas1
 -----------------------------------------------------------------

 Structure from the checkpoint file:  "G4.Frag_1052.chk"
 ---------
 Frag_1052
 ---------
 Charge =  0 Multiplicity = 1

 SCF Done:  E(RHF) =  -420.903969357     A.U. after   11 cycles
 E2 =    -0.1203068216D+01 EUMP2 =    -0.42210703757298D+03
 CCSD(T)
 CCSD(T)= -0.42220784603D+03
 1730516\CCSD=-422.1730699\CCSD(T)=-422.207846\RMSD=9.792e-09\PG=C01 [X
 Normal termination of Gaussian 09 at Fri Aug 26 01:25:54 2022.

 ---------------------------------------------------------
 #P Geom=AllCheck Guess=TCheck SCRF=Check MP4=FrzG4/GTBas2
 ---------------------------------------------------------

 Structure from the checkpoint file:  "G4.Frag_1052.chk"
 ---------
 Frag_1052
 ---------
 Charge =  0 Multiplicity = 1

 SCF Done:  E(RHF) =  -420.916643098     A.U. after   12 cycles
 E2 =    -0.1223999558D+01 EUMP2 =    -0.42214064265549D+03
 Normal termination of Gaussian 09 at Fri Aug 26 01:29:07 2022.

 ---------------------------------------------------------
 #P Geom=AllCheck Guess=TCheck SCRF=Check MP4=FrzG4/GTBas3
 ---------------------------------------------------------

 Structure from the checkpoint file:  "G4.Frag_1052.chk"
 ---------
 Frag_1052
 ---------
 Charge =  0 Multiplicity = 1

 SCF Done:  E(RHF) =  -420.962364406     A.U. after   10 cycles
 E2 =    -0.1499408995D+01 EUMP2 =    -0.42246177340101D+03
 Normal termination of Gaussian 09 at Fri Aug 26 01:56:58 2022.

 -----------------------------------------------------------
 #P Geom=AllCheck Guess=TCheck SCRF=Check MP2=Full/GTLargeXP
 -----------------------------------------------------------

 Structure from the checkpoint file:  "G4.Frag_1052.chk"
 ---------
 Frag_1052
 ---------
 Charge =  0 Multiplicity = 1

 SCF Done:  E(RHF) =  -421.073315206     A.U. after   12 cycles
 E2 =    -0.1958076861D+01 EUMP2 =    -0.42303139206743D+03
 Normal termination of Gaussian 09 at Fri Aug 26 02:04:16 2022.
 SCF Done:  E(RHF) =  -421.106976517     A.U. after    8 cycles
 Normal termination of Gaussian 09 at Fri Aug 26 02:11:20 2022.

                         Standard orientation:
 ---------------------------------------------------------------------
 Center     Atomic      Atomic             Coordinates (Angstroms)
 Number     Number       Type             X           Y           Z
 ---------------------------------------------------------------------
      1          6           0        1.340338    1.234212    0.754277
      2          6           0        0.781386    0.067702   -0.060888
      3          6           0        1.469279   -1.244014    0.357325
      4          8           0        1.067516    0.347946   -1.428970
      5          6           0       -0.770993   -0.054227    0.072204
      6          6           0       -1.516639    1.229517   -0.281974
      7          8           0       -1.042159   -0.477005    1.388844
      8          8           0       -1.236692   -1.031467   -0.861607
      9          1           0        1.067602    1.131938    1.807170
     10          1           0        0.965217    2.188414    0.378359
     11          1           0        2.430779    1.250455    0.673152
     12          1           0        1.129347   -2.088277   -0.252964
     13          1           0        2.545875   -1.145810    0.196882
     14          1           0        1.283196   -1.480137    1.407276
     15          1           0        0.533439   -0.274388   -1.940209
     16          1           0       -1.349803    1.992236    0.480285
     17          1           0       -2.588117    1.015996   -0.347056
     18          1           0       -1.179607    1.610616   -1.247127
     19          1           0       -1.995492   -0.426353    1.522408
     20          1           0       -0.971979   -1.889628   -0.509975
 ---------------------------------------------------------------------

 SCF Done:  E(RHF) =  -421.114455973     A.U. after    8 cycles

 The electronic state is 1-A.
 Alpha  occ. eigenvalues --  -20.57429 -20.56983 -20.54628 -11.34546 -11.28838
 Alpha  occ. eigenvalues --  -11.22015 -11.21458 -11.21052  -1.42561  -1.35964
 Alpha  occ. eigenvalues --   -1.33952  -1.05736  -1.00301  -0.93652  -0.86884
 Alpha  occ. eigenvalues --   -0.76753  -0.74450  -0.69973  -0.64447  -0.63900
 Alpha  occ. eigenvalues --   -0.63438  -0.59690  -0.56324  -0.55389  -0.54530
 Alpha  occ. eigenvalues --   -0.53901  -0.53113  -0.52280  -0.51080  -0.50010
 Alpha  occ. eigenvalues --   -0.47754  -0.45933  -0.42287
 Alpha virt. eigenvalues --    0.03097   0.03855   0.04173   0.05020   0.06013
 Alpha virt. eigenvalues --    0.06413   0.06909   0.07142   0.07287   0.09118
 Alpha virt. eigenvalues --    0.09215   0.09428   0.10187   0.10814   0.11103

 Mulliken charges:
               1
     1  C   -0.600237
     2  C    0.446708
     3  C   -0.620341
     4  O   -0.641071
     5  C    0.474726
     6  C   -0.615577
     7  O   -0.618313
     8  O   -0.636535
     9  H    0.195142
    10  H    0.171823
    11  H    0.178389
    12  H    0.146504
    13  H    0.187236
    14  H    0.202136
    15  H    0.389363
    16  H    0.188653
    17  H    0.185579
    18  H    0.206027
    19  H    0.377962
    20  H    0.381825
 Sum of Mulliken charges =  -0.00000

 Dipole moment (field-independent basis, Debye):
    X=             -1.3714    Y=             -0.7498    Z=              1.1907  Tot=              1.9648
 Quadrupole moment (field-independent basis, Debye-Ang):
   XX=            -49.1740   YY=            -47.6115   ZZ=            -53.4089
   XY=             -1.7044   XZ=             -0.5988   YZ=              1.9496

 Normal termination of Gaussian 09 at Fri Aug 26 02:31:19 2022.
