 Gaussian 09, Revision E.01,
 Gaussian 09:  ES64L-G09RevE.01 30-Nov-2015

 -----
 #P G4
 -----

 --------
 Frag_615
 --------
 Symbolic Z-matrix:
 Charge =  0 Multiplicity = 1

 SCF Done:  E(RB3LYP) =  -195.297569490     A.U. after   13 cycles
 SCF Done:  E(RB3LYP) =  -195.299034976     A.U. after   11 cycles
 SCF Done:  E(RB3LYP) =  -195.297612986     A.U. after   13 cycles
 SCF Done:  E(RB3LYP) =  -195.299189899     A.U. after    9 cycles
 SCF Done:  E(RB3LYP) =  -195.298969052     A.U. after   10 cycles
 SCF Done:  E(RB3LYP) =  -195.299207343     A.U. after    7 cycles
 SCF Done:  E(RB3LYP) =  -195.299237842     A.U. after    9 cycles
 SCF Done:  E(RB3LYP) =  -195.299242978     A.U. after    8 cycles
 SCF Done:  E(RB3LYP) =  -195.299243532     A.U. after    8 cycles
 SCF Done:  E(RB3LYP) =  -195.299243637     A.U. after    7 cycles
 SCF Done:  E(RB3LYP) =  -195.299243794     A.U. after    7 cycles
 Optimization completed.
    -- Stationary point found.
 Normal termination of Gaussian 09 at Wed Aug 24 18:41:46 2022.

 ----------------------------------------------------------
 #P Geom=AllCheck Guess=TCheck SCRF=Check B3LYP/GTBas3 Freq
 ----------------------------------------------------------

 Structure from the checkpoint file:  "G4.Frag_615.chk"
 --------
 Frag_615
 --------
 Charge =  0 Multiplicity = 1

 SCF Done:  E(RB3LYP) =  -195.299243794     A.U. after    1 cycles

  Exact polarizability:  68.582   0.000  45.071  -3.401  -0.000  39.933
 Approx polarizability: 102.865   0.000  58.312  -8.954  -0.000  59.166

                      1                      2                      3
                      A                      A                      A
 Frequencies --    179.6229               211.9045               227.2839
 Red. masses --      3.1030                 1.7759                 1.0286
 Frc consts  --      0.0590                 0.0470                 0.0313
 IR Inten    --      0.2764                 0.6403                 0.0005

                      4                      5                      6
                      A                      A                      A
 Frequencies --    278.6031               349.7017               529.8977
 Red. masses --      1.3993                 2.2876                 3.3723
 Frc consts  --      0.0640                 0.1648                 0.5579
 IR Inten    --      0.4921                 0.5279                 0.7909

                      7                      8                      9
                      A                      A                      A
 Frequencies --    540.9597               624.2608               630.1893
 Red. masses --      4.6873                 1.2043                 1.2220
 Frc consts  --      0.8082                 0.2765                 0.2859
 IR Inten    --      4.1960                43.9082                43.8253

                     10                     11                     12
                      A                      A                      A
 Frequencies --    775.5051               931.3572               935.0763
 Red. masses --      2.8516                 1.1700                 2.2361
 Frc consts  --      1.0104                 0.5980                 1.1519
 IR Inten    --      0.1097                 1.0358                 0.6966

                     13                     14                     15
                      A                      A                      A
 Frequencies --    965.0392              1121.8636              1123.5334
 Red. masses --      1.5257                 2.3248                 1.5605
 Frc consts  --      0.8372                 1.7239                 1.1606
 IR Inten    --      0.0217                 3.2114                 2.8907

                     16                     17                     18
                      A                      A                      A
 Frequencies --   1190.7866              1323.8328              1346.9894
 Red. masses --      1.7804                 1.3226                 1.4775
 Frc consts  --      1.4874                 1.3657                 1.5794
 IR Inten    --      3.1023                 1.8045                15.5776

                     19                     20                     21
                      A                      A                      A
 Frequencies --   1395.4691              1417.1584              1485.4778
 Red. masses --      1.2115                 1.2157                 1.0429
 Frc consts  --      1.3900                 1.4386                 1.3559
 IR Inten    --      1.4169                 1.1840                 1.1944

                     22                     23                     24
                      A                      A                      A
 Frequencies --   1489.2121              1497.8614              1509.9644
 Red. masses --      1.0478                 1.0436                 1.0535
 Frc consts  --      1.3691                 1.3795                 1.4153
 IR Inten    --      1.1362                 5.2653                 4.4599

                     25                     26                     27
                      A                      A                      A
 Frequencies --   2233.7172              3007.8089              3036.7144
 Red. masses --      5.9332                 1.0817                 1.0344
 Frc consts  --     17.4419                 5.7659                 5.6200
 IR Inten    --      2.3569                13.5341                21.1183

                     28                     29                     30
                      A                      A                      A
 Frequencies --   3040.5008              3107.9297              3113.5035
 Red. masses --      1.0347                 1.1024                 1.1018
 Frc consts  --      5.6359                 6.2738                 6.2929
 IR Inten    --     25.0965                 0.5695                51.2318

                     31                     32                     33
                      A                      A                      A
 Frequencies --   3120.2041              3122.0718              3505.4655
 Red. masses --      1.1023                 1.1021                 1.1617
 Frc consts  --      6.3227                 6.3290                 8.4107
 IR Inten    --     18.3491                28.1429                62.1934

 - Thermochemistry -
 -------------------
 Temperature   298.150 Kelvin.  Pressure   1.00000 Atm.
 Atom     1 has atomic number  6 and mass  12.00000

 Molecular mass:    68.06260 amu.
 Principal axes and moments of inertia in atomic units:
                           1         2         3
     Eigenvalues --   227.62350 471.51394 638.61429
           X            1.00000  -0.00000  -0.00127
           Y            0.00000   1.00000   0.00000
           Z            0.00127  -0.00000   1.00000
 This molecule is an asymmetric top.
 Rotational symmetry number  1.
 Rotational temperatures (Kelvin)      0.38051     0.18369     0.13563
 Rotational constants (GHZ):           7.92862     3.82755     2.82603
 Zero-point vibrational energy     295295.0 (Joules/Mol)
                                   70.57719 (Kcal/Mol)
 Warning -- explicit consideration of   7 degrees of freedom as
           vibrations may cause significant error
 Vibrational temperatures:    258.44   304.88   327.01   400.85   503.14
          (Kelvin)            762.40   778.32   898.17   906.70  1115.78
                             1340.01  1345.36  1388.47  1614.11  1616.51
                             1713.27  1904.70  1938.01  2007.77  2038.97
                             2137.27  2142.64  2155.09  2172.50  3213.82
                             4327.56  4369.15  4374.60  4471.61  4479.63
                             4489.27  4491.96  5043.58

 Zero-point correction=                           0.112472 (Hartree/Particle)
 Thermal correction to Energy=                    0.118798
 Thermal correction to Enthalpy=                  0.119743
 Thermal correction to Gibbs Free Energy=         0.083585
 Sum of electronic and zero-point Energies=           -195.186772
 Sum of electronic and thermal Energies=              -195.180445
 Sum of electronic and thermal Enthalpies=            -195.179501
 Sum of electronic and thermal Free Energies=         -195.215659

                     E (Thermal)             CV                S
                      KCal/Mol        Cal/Mol-Kelvin    Cal/Mol-Kelvin
 Total                   74.547             22.568             76.100
 Electronic               0.000              0.000              0.000
 Translational            0.889              2.981             38.571
 Rotational               0.889              2.981             25.730
 Vibrational             72.770             16.607             11.798
 Vibration     1          0.629              1.867              2.332
 Vibration     2          0.643              1.823              2.027
 Vibration     3          0.651              1.799              1.900
 Vibration     4          0.679              1.713              1.542
 Vibration     5          0.727              1.576              1.168
 Vibration     6          0.885              1.184              0.587
 Vibration     7          0.896              1.160              0.563

 Optimization completed.
    -- Stationary point found.
 Normal termination of Gaussian 09 at Wed Aug 24 18:43:26 2022.

 -----------------------------------------------------------------
 #P Geom=AllCheck Guess=TCheck SCRF=Check CCSD(T,E4T,FrzG4)/GTBas1
 -----------------------------------------------------------------

 Structure from the checkpoint file:  "G4.Frag_615.chk"
 --------
 Frag_615
 --------
 Charge =  0 Multiplicity = 1

 SCF Done:  E(RHF) =  -193.933022060     A.U. after   13 cycles
 E2 =    -0.6420372586D+00 EUMP2 =    -0.19457505931870D+03
 CCSD(T)
 CCSD(T)= -0.19464853231D+03
 7\MP4SDTQ=-194.6480934\MP4SDQ=-194.6229129\CCSD=-194.6238677\CCSD(T)=-
 Normal termination of Gaussian 09 at Wed Aug 24 18:45:21 2022.

 ---------------------------------------------------------
 #P Geom=AllCheck Guess=TCheck SCRF=Check MP4=FrzG4/GTBas2
 ---------------------------------------------------------

 Structure from the checkpoint file:  "G4.Frag_615.chk"
 --------
 Frag_615
 --------
 Charge =  0 Multiplicity = 1

 SCF Done:  E(RHF) =  -193.938985657     A.U. after   13 cycles
 E2 =    -0.6470913682D+00 EUMP2 =    -0.19458607702543D+03
 Normal termination of Gaussian 09 at Wed Aug 24 18:47:05 2022.

 ---------------------------------------------------------
 #P Geom=AllCheck Guess=TCheck SCRF=Check MP4=FrzG4/GTBas3
 ---------------------------------------------------------

 Structure from the checkpoint file:  "G4.Frag_615.chk"
 --------
 Frag_615
 --------
 Charge =  0 Multiplicity = 1

 SCF Done:  E(RHF) =  -193.958294365     A.U. after   10 cycles
 E2 =    -0.7870458088D+00 EUMP2 =    -0.19474534017341D+03
 Normal termination of Gaussian 09 at Wed Aug 24 19:29:04 2022.

 -----------------------------------------------------------
 #P Geom=AllCheck Guess=TCheck SCRF=Check MP2=Full/GTLargeXP
 -----------------------------------------------------------

 Structure from the checkpoint file:  "G4.Frag_615.chk"
 --------
 Frag_615
 --------
 Charge =  0 Multiplicity = 1

 SCF Done:  E(RHF) =  -194.000302787     A.U. after   10 cycles
 E2 =    -0.1044497933D+01 EUMP2 =    -0.19504480072023D+03
 Normal termination of Gaussian 09 at Wed Aug 24 19:31:50 2022.
 SCF Done:  E(RHF) =  -194.015705112     A.U. after    8 cycles
 Normal termination of Gaussian 09 at Wed Aug 24 19:35:10 2022.

                         Standard orientation:
 ---------------------------------------------------------------------
 Center     Atomic      Atomic             Coordinates (Angstroms)
 Number     Number       Type             X           Y           Z
 ---------------------------------------------------------------------
      1          6           0       -2.224509   -0.000010    0.120621
      2          6           0       -1.047571   -0.000006   -0.125660
      3          6           0        0.388909    0.000001   -0.401051
      4          6           0        1.057264   -1.273841    0.153179
      5          6           0        1.057257    1.273846    0.153177
      6          1           0       -3.265832    0.000043    0.327625
      7          1           0        0.519110    0.000000   -1.492240
      8          1           0        0.597034   -2.173245   -0.263864
      9          1           0        2.122909   -1.281065   -0.096879
     10          1           0        0.959377   -1.316757    1.242252
     11          1           0        0.597028    2.173248   -0.263870
     12          1           0        2.122903    1.281073   -0.096875
     13          1           0        0.959365    1.316766    1.242250
 ---------------------------------------------------------------------

 SCF Done:  E(RHF) =  -194.018731555     A.U. after    7 cycles

 The electronic state is 1-A.
 Alpha  occ. eigenvalues --  -11.25727 -11.22778 -11.22270 -11.22268 -11.21572
 Alpha  occ. eigenvalues --   -1.09979  -1.00007  -0.93744  -0.84148  -0.71308
 Alpha  occ. eigenvalues --   -0.65550  -0.61522  -0.57323  -0.54392  -0.52248
 Alpha  occ. eigenvalues --   -0.49917  -0.49592  -0.38203  -0.38167
 Alpha virt. eigenvalues --    0.03685   0.04034   0.04417   0.04725   0.06518
 Alpha virt. eigenvalues --    0.07020   0.07350   0.07444   0.07752   0.09774
 Alpha virt. eigenvalues --    0.09797   0.10495   0.11330   0.11682   0.13350

 Mulliken charges:
               1
     1  C   -0.498048
     2  C    0.085660
     3  C    0.024968
     4  C   -0.524174
     5  C   -0.524174
     6  H    0.241343
     7  H    0.173099
     8  H    0.174438
     9  H    0.165468
    10  H    0.170758
    11  H    0.174437
    12  H    0.165468
    13  H    0.170758
 Sum of Mulliken charges =  -0.00000

 Dipole moment (field-independent basis, Debye):
    X=              0.7774    Y=              0.0001    Z=             -0.1162  Tot=              0.7861
 Quadrupole moment (field-independent basis, Debye-Ang):
   XX=            -28.8284   YY=            -33.3736   ZZ=            -32.9065
   XY=             -0.0002   XZ=             -1.3219   YZ=              0.0000

 Normal termination of Gaussian 09 at Wed Aug 24 21:02:30 2022.
