 Gaussian 09, Revision E.01,
 Gaussian 09:  ES64L-G09RevE.01 30-Nov-2015

 -----
 #P G4
 -----

 ---------
 Frag_1095
 ---------
 Symbolic Z-matrix:
 Charge =  0 Multiplicity = 1

 SCF Done:  E(RB3LYP) =  -340.888512043     A.U. after   14 cycles
 SCF Done:  E(RB3LYP) =  -340.898075649     A.U. after   12 cycles
 SCF Done:  E(RB3LYP) =  -340.900257103     A.U. after   13 cycles
 SCF Done:  E(RB3LYP) =  -340.901548675     A.U. after   11 cycles
 SCF Done:  E(RB3LYP) =  -340.902985307     A.U. after   11 cycles
 SCF Done:  E(RB3LYP) =  -340.905305775     A.U. after   12 cycles
 SCF Done:  E(RB3LYP) =  -340.903782594     A.U. after   14 cycles
 SCF Done:  E(RB3LYP) =  -340.907666059     A.U. after   12 cycles
 SCF Done:  E(RB3LYP) =  -340.909006473     A.U. after   12 cycles
 SCF Done:  E(RB3LYP) =  -340.909609469     A.U. after   12 cycles
 SCF Done:  E(RB3LYP) =  -340.910451266     A.U. after    8 cycles
 SCF Done:  E(RB3LYP) =  -340.910451538     A.U. after    7 cycles
 SCF Done:  E(RB3LYP) =  -340.910451563     A.U. after    6 cycles
 Optimization completed.
    -- Stationary point found.
 Normal termination of Gaussian 09 at Thu Aug 25 19:21:07 2022.

 ----------------------------------------------------------
 #P Geom=AllCheck Guess=TCheck SCRF=Check B3LYP/GTBas3 Freq
 ----------------------------------------------------------

 Structure from the checkpoint file:  "G4.Frag_1095.chk"
 ---------
 Frag_1095
 ---------
 Charge =  0 Multiplicity = 1

 SCF Done:  E(RB3LYP) =  -340.910451563     A.U. after    1 cycles

  Exact polarizability:  56.376  -1.210  47.007   0.853   2.146  42.391
 Approx polarizability:  77.980  -3.717  66.607   0.927   5.815  62.924

                      1                      2                      3
                      A                      A                      A
 Frequencies --    156.4441               232.0076               248.0460
 Red. masses --      2.9056                 1.0774                 1.0797
 Frc consts  --      0.0419                 0.0342                 0.0391
 IR Inten    --     18.9605                11.0576                 7.5693

                      4                      5                      6
                      A                      A                      A
 Frequencies --    313.1359               319.8210               363.9244
 Red. masses --      1.4540                 1.7099                 2.4969
 Frc consts  --      0.0840                 0.1030                 0.1948
 IR Inten    --     75.8649                22.4254                 8.4682

                      7                      8                      9
                      A                      A                      A
 Frequencies --    402.8871               423.9272               515.5162
 Red. masses --      3.1410                 1.3780                 3.0813
 Frc consts  --      0.3004                 0.1459                 0.4825
 IR Inten    --     22.9690                30.0191                17.1248

                     10                     11                     12
                      A                      A                      A
 Frequencies --    553.1700               590.9421               720.1186
 Red. masses --      4.9784                 4.0017                 5.8000
 Frc consts  --      0.8975                 0.8233                 1.7721
 IR Inten    --     33.6959                20.0805                32.1210

                     13                     14                     15
                      A                      A                      A
 Frequencies --    831.3793               900.8067               967.8734
 Red. masses --      4.5125                 2.7590                 1.7178
 Frc consts  --      1.8377                 1.3191                 0.9481
 IR Inten    --     67.6800                36.0605                32.4428

                     16                     17                     18
                      A                      A                      A
 Frequencies --   1018.9760              1087.6972              1098.6509
 Red. masses --      1.9069                 1.7236                 1.3214
 Frc consts  --      1.1665                 1.2014                 0.9397
 IR Inten    --    108.3455                84.2614               128.9055

                     19                     20                     21
                      A                      A                      A
 Frequencies --   1171.1272              1206.3716              1261.9491
 Red. masses --      1.7452                 1.6396                 2.6452
 Frc consts  --      1.4103                 1.4059                 2.4819
 IR Inten    --     13.7516                96.5788                67.8078

                     22                     23                     24
                      A                      A                      A
 Frequencies --   1378.5646              1410.7697              1458.8704
 Red. masses --      1.2573                 1.3443                 1.2962
 Frc consts  --      1.4078                 1.5764                 1.6254
 IR Inten    --     23.4467                17.9188               143.1013

                     25                     26                     27
                      A                      A                      A
 Frequencies --   1484.6981              1494.9311              1629.1865
 Red. masses --      1.1283                 1.0834                 1.0574
 Frc consts  --      1.4654                 1.4266                 1.6537
 IR Inten    --     68.2228                14.2484                12.2218

                     28                     29                     30
                      A                      A                      A
 Frequencies --   1665.7655              3023.3935              3082.4285
 Red. masses --      1.0547                 1.0381                 1.1007
 Frc consts  --      1.7243                 5.5911                 6.1618
 IR Inten    --     31.1277                21.5882                42.1143

                     31                     32                     33
                      A                      A                      A
 Frequencies --   3133.1806              3180.2595              3230.4163
 Red. masses --      1.0983                 1.0470                 1.0825
 Frc consts  --      6.3525                 6.2393                 6.6560
 IR Inten    --     15.8218               106.9439                59.5077

                     34                     35                     36
                      A                      A                      A
 Frequencies --   3506.2117              3751.5650              3819.2642
 Red. masses --      1.0794                 1.0637                 1.0660
 Frc consts  --      7.8179                 8.8206                 9.1619
 IR Inten    --     37.8062                25.3212                11.1669

 - Thermochemistry -
 -------------------
 Temperature   298.150 Kelvin.  Pressure   1.00000 Atm.
 Atom     1 has atomic number  6 and mass  12.00000

 Molecular mass:    92.05858 amu.
 Principal axes and moments of inertia in atomic units:
                           1         2         3
     Eigenvalues --   371.59099 619.57772 637.75516
           X            0.99957   0.02724  -0.01044
           Y           -0.02888   0.97428  -0.22349
           Z            0.00408   0.22370   0.97465
 This molecule is an asymmetric top.
 Rotational symmetry number  1.
 Rotational temperatures (Kelvin)      0.23309     0.13979     0.13581
 Rotational constants (GHZ):           4.85679     2.91286     2.82983
 Zero-point vibrational energy     308841.6 (Joules/Mol)
                                   73.81490 (Kcal/Mol)
 Warning -- explicit consideration of  11 degrees of freedom as
           vibrations may cause significant error
 Vibrational temperatures:    225.09   333.81   356.88   450.53   460.15
          (Kelvin)            523.61   579.66   609.94   741.71   795.89
                              850.23  1036.09  1196.17  1296.06  1392.55
                             1466.08  1564.95  1580.71  1684.99  1735.70
                             1815.66  1983.44  2029.78  2098.99  2136.15
                             2150.87  2344.03  2396.66  4349.98  4434.92
                             4507.94  4575.68  4647.84  5044.65  5397.66
                             5495.06

 Zero-point correction=                           0.117632 (Hartree/Particle)
 Thermal correction to Energy=                    0.124843
 Thermal correction to Enthalpy=                  0.125787
 Thermal correction to Gibbs Free Energy=         0.087535
 Sum of electronic and zero-point Energies=           -340.792820
 Sum of electronic and thermal Energies=              -340.785608
 Sum of electronic and thermal Enthalpies=            -340.784664
 Sum of electronic and thermal Free Energies=         -340.822917

                     E (Thermal)             CV                S
                      KCal/Mol        Cal/Mol-Kelvin    Cal/Mol-Kelvin
 Total                   78.340             26.900             80.509
 Electronic               0.000              0.000              0.000
 Translational            0.889              2.981             39.471
 Rotational               0.889              2.981             26.487
 Vibrational             76.563             20.939             14.550
 Vibration     1          0.620              1.895              2.592
 Vibration     2          0.653              1.792              1.863
 Vibration     3          0.662              1.766              1.744
 Vibration     4          0.701              1.649              1.346
 Vibration     5          0.706              1.636              1.311
 Vibration     6          0.737              1.547              1.105
 Vibration     7          0.768              1.464              0.952
 Vibration     8          0.786              1.418              0.879
 Vibration     9          0.871              1.216              0.620
 Vibration    10          0.909              1.133              0.538
 Vibration    11          0.948              1.051              0.465

 Optimization completed.
    -- Stationary point found.
 Normal termination of Gaussian 09 at Thu Aug 25 19:23:32 2022.

 -----------------------------------------------------------------
 #P Geom=AllCheck Guess=TCheck SCRF=Check CCSD(T,E4T,FrzG4)/GTBas1
 -----------------------------------------------------------------

 Structure from the checkpoint file:  "G4.Frag_1095.chk"
 ---------
 Frag_1095
 ---------
 Charge =  0 Multiplicity = 1

 SCF Done:  E(RHF) =  -338.898033503     A.U. after   13 cycles
 E2 =    -0.9564177079D+00 EUMP2 =    -0.33985445121112D+03
 CCSD(T)
 CCSD(T)= -0.33992610791D+03
 P4SDQ=-339.8987611\CCSD=-339.8989412\CCSD(T)=-339.9261079\RMSD=8.294e-
 Normal termination of Gaussian 09 at Thu Aug 25 19:30:04 2022.

 ---------------------------------------------------------
 #P Geom=AllCheck Guess=TCheck SCRF=Check MP4=FrzG4/GTBas2
 ---------------------------------------------------------

 Structure from the checkpoint file:  "G4.Frag_1095.chk"
 ---------
 Frag_1095
 ---------
 Charge =  0 Multiplicity = 1

 SCF Done:  E(RHF) =  -338.914242936     A.U. after   12 cycles
 E2 =    -0.9762528837D+00 EUMP2 =    -0.33989049582016D+03
 Normal termination of Gaussian 09 at Thu Aug 25 19:38:28 2022.

 ---------------------------------------------------------
 #P Geom=AllCheck Guess=TCheck SCRF=Check MP4=FrzG4/GTBas3
 ---------------------------------------------------------

 Structure from the checkpoint file:  "G4.Frag_1095.chk"
 ---------
 Frag_1095
 ---------
 Charge =  0 Multiplicity = 1

 SCF Done:  E(RHF) =  -338.947211043     A.U. after   11 cycles
 E2 =    -0.1180508088D+01 EUMP2 =    -0.34012771913181D+03
 Normal termination of Gaussian 09 at Thu Aug 25 21:21:17 2022.

 -----------------------------------------------------------
 #P Geom=AllCheck Guess=TCheck SCRF=Check MP2=Full/GTLargeXP
 -----------------------------------------------------------

 Structure from the checkpoint file:  "G4.Frag_1095.chk"
 ---------
 Frag_1095
 ---------
 Charge =  0 Multiplicity = 1

 SCF Done:  E(RHF) =  -339.046399580     A.U. after   12 cycles
 E2 =    -0.1534038758D+01 EUMP2 =    -0.34058043833820D+03
 Normal termination of Gaussian 09 at Thu Aug 25 21:27:10 2022.
 SCF Done:  E(RHF) =  -339.073631748     A.U. after    9 cycles
 Normal termination of Gaussian 09 at Thu Aug 25 21:33:08 2022.

                         Standard orientation:
 ---------------------------------------------------------------------
 Center     Atomic      Atomic             Coordinates (Angstroms)
 Number     Number       Type             X           Y           Z
 ---------------------------------------------------------------------
      1          6           0        0.885346    1.316049   -0.473346
      2          6           0        0.401381   -0.081636   -0.040852
      3          8           0        0.111674   -0.030981    1.405212
      4          8           0        1.447502   -0.964304   -0.294365
      5          7           0       -0.746351   -0.607129   -0.694075
      6          7           0       -1.891669    0.067400   -0.111546
      7          1           0        0.125651    2.077727   -0.262881
      8          1           0        1.806869    1.608333    0.043941
      9          1           0        1.084243    1.303716   -1.546542
     10          1           0        0.786859    0.506865    1.830560
     11          1           0        1.011055   -1.825030   -0.364130
     12          1           0       -2.698574   -0.544626   -0.217393
     13          1           0       -2.141663    0.976310   -0.540083
     14          1           0       -1.702065    0.230610    0.894291
 ---------------------------------------------------------------------

 SCF Done:  E(RHF) =  -339.079713381     A.U. after    8 cycles

 The electronic state is 1-A.
 Alpha  occ. eigenvalues --  -20.54679 -20.53593 -15.68310 -15.49704 -11.34120
 Alpha  occ. eigenvalues --  -11.20907  -1.39706  -1.32053  -1.29915  -1.05256
 Alpha  occ. eigenvalues --   -0.96258  -0.79283  -0.76064  -0.74336  -0.68531
 Alpha  occ. eigenvalues --   -0.66338  -0.61526  -0.59367  -0.53982  -0.53277
 Alpha  occ. eigenvalues --   -0.50566  -0.46695  -0.45421  -0.41418  -0.32152
 Alpha virt. eigenvalues --    0.02533   0.04172   0.05306   0.05851   0.07083
 Alpha virt. eigenvalues --    0.07512   0.07743   0.08121   0.09320   0.10908
 Alpha virt. eigenvalues --    0.13037   0.13613   0.14583   0.14966   0.16523

 Mulliken charges:
               1
     1  C   -0.528801
     2  C    0.650515
     3  O   -0.664643
     4  O   -0.605341
     5  N   -0.710358
     6  N   -0.472428
     7  H    0.131040
     8  H    0.167699
     9  H    0.192989
    10  H    0.370806
    11  H    0.384719
    12  H    0.360718
    13  H    0.335189
    14  H    0.387896
 Sum of Mulliken charges =  -0.00000

 Dipole moment (field-independent basis, Debye):
    X=             -4.1348    Y=              2.9483    Z=              1.5040  Tot=              5.2963
 Quadrupole moment (field-independent basis, Debye-Ang):
   XX=            -27.6267   YY=            -35.4909   ZZ=            -40.2996
   XY=             -0.6237   XZ=              1.0055   YZ=              0.0642

 Normal termination of Gaussian 09 at Fri Aug 26 00:16:30 2022.
