 Gaussian 09, Revision E.01,
 Gaussian 09:  ES64L-G09RevE.01 30-Nov-2015

 -----
 #P G4
 -----

 --------
 Frag_672
 --------
 Symbolic Z-matrix:
 Charge =  0 Multiplicity = 1

 SCF Done:  E(RB3LYP) =  -324.481998569     A.U. after   12 cycles
 SCF Done:  E(RB3LYP) =  -324.488567277     A.U. after   11 cycles
 SCF Done:  E(RB3LYP) =  -324.489372196     A.U. after   11 cycles
 SCF Done:  E(RB3LYP) =  -324.489725654     A.U. after   11 cycles
 SCF Done:  E(RB3LYP) =  -324.489838976     A.U. after   11 cycles
 SCF Done:  E(RB3LYP) =  -324.490080553     A.U. after   10 cycles
 SCF Done:  E(RB3LYP) =  -324.490225076     A.U. after   10 cycles
 SCF Done:  E(RB3LYP) =  -324.490293849     A.U. after   10 cycles
 SCF Done:  E(RB3LYP) =  -324.490407412     A.U. after   11 cycles
 SCF Done:  E(RB3LYP) =  -324.490479441     A.U. after   11 cycles
 SCF Done:  E(RB3LYP) =  -324.492036015     A.U. after    9 cycles
 SCF Done:  E(RB3LYP) =  -324.492042334     A.U. after    9 cycles
 SCF Done:  E(RB3LYP) =  -324.492043411     A.U. after    7 cycles
 Optimization completed.
    -- Stationary point found.
 Normal termination of Gaussian 09 at Fri Aug 19 12:24:14 2022.

 ----------------------------------------------------------
 #P Geom=AllCheck Guess=TCheck SCRF=Check B3LYP/GTBas3 Freq
 ----------------------------------------------------------

 Structure from the checkpoint file:  "G4.Frag_672.chk"
 --------
 Frag_672
 --------
 Charge =  0 Multiplicity = 1

 SCF Done:  E(RB3LYP) =  -324.492043411     A.U. after    1 cycles

  Exact polarizability:  73.230   1.276  68.082   0.144  -0.612  61.601
 Approx polarizability:  95.963   3.695  94.244   1.145  -1.367  92.181

                      1                      2                      3
                      A                      A                      A
 Frequencies --    110.8716               202.5497               231.4855
 Red. masses --      2.9217                 1.1606                 1.1716
 Frc consts  --      0.0212                 0.0281                 0.0370
 IR Inten    --      0.8957                57.3066                 8.2728

                      4                      5                      6
                      A                      A                      A
 Frequencies --    247.0851               272.3217               293.9440
 Red. masses --      1.1243                 1.6150                 1.5243
 Frc consts  --      0.0404                 0.0706                 0.0776
 IR Inten    --      0.4190                 2.7561                 2.1561

                      7                      8                      9
                      A                      A                      A
 Frequencies --    318.6463               367.2048               384.6524
 Red. masses --      1.6311                 1.7801                 2.3614
 Frc consts  --      0.0976                 0.1414                 0.2059
 IR Inten    --      3.5639                 2.1706                 2.5961

                     10                     11                     12
                      A                      A                      A
 Frequencies --    394.1972               406.9004               481.3012
 Red. masses --      1.4055                 2.2641                 2.2240
 Frc consts  --      0.1287                 0.2209                 0.3035
 IR Inten    --      6.7397                 1.1190                 3.1695

                     13                     14                     15
                      A                      A                      A
 Frequencies --    516.9430               573.7946               710.9609
 Red. masses --      3.0721                 3.1357                 3.7864
 Frc consts  --      0.4837                 0.6083                 1.1276
 IR Inten    --      5.3090                 4.0974                 3.8320

                     16                     17                     18
                      A                      A                      A
 Frequencies --    817.2373               901.1268               930.6834
 Red. masses --      2.7689                 2.1858                 1.4631
 Frc consts  --      1.0896                 1.0458                 0.7467
 IR Inten    --     71.2701                52.9192                27.2333

                     19                     20                     21
                      A                      A                      A
 Frequencies --    937.6994               958.6479              1014.4510
 Red. masses --      1.4519                 1.7494                 1.3639
 Frc consts  --      0.7521                 0.9472                 0.8270
 IR Inten    --     56.4435                 0.3450                12.6748

                     22                     23                     24
                      A                      A                      A
 Frequencies --   1055.0394              1086.4031              1126.1153
 Red. masses --      1.4866                 1.3783                 2.0856
 Frc consts  --      0.9750                 0.9585                 1.5583
 IR Inten    --     21.5837                12.9235                10.4382

                     25                     26                     27
                      A                      A                      A
 Frequencies --   1151.5098              1219.2493              1234.4305
 Red. masses --      1.7915                 2.5195                 2.2432
 Frc consts  --      1.3996                 2.2067                 2.0140
 IR Inten    --      2.8555                31.6492                49.7065

                     28                     29                     30
                      A                      A                      A
 Frequencies --   1275.7880              1320.7186              1349.2903
 Red. masses --      2.6411                 1.3095                 1.7074
 Frc consts  --      2.5328                 1.3458                 1.8314
 IR Inten    --     16.7040                11.2711                 6.0394

                     31                     32                     33
                      A                      A                      A
 Frequencies --   1390.2747              1411.1767              1441.4734
 Red. masses --      1.3438                 1.2865                 1.1786
 Frc consts  --      1.5303                 1.5095                 1.4429
 IR Inten    --     13.8817                13.4980                 2.2794

                     34                     35                     36
                      A                      A                      A
 Frequencies --   1477.5673              1481.8574              1493.8006
 Red. masses --      1.0666                 1.0469                 1.0500
 Frc consts  --      1.3720                 1.3545                 1.3805
 IR Inten    --      1.2494                 5.3624                 4.6108

                     37                     38                     39
                      A                      A                      A
 Frequencies --   1500.2212              1509.7245              1520.8131
 Red. masses --      1.0508                 1.0503                 1.0565
 Frc consts  --      1.3934                 1.4105                 1.4397
 IR Inten    --      0.2657                 4.6701                 0.9672

                     40                     41                     42
                      A                      A                      A
 Frequencies --   1638.2373              1665.6118              2971.8023
 Red. masses --      1.0929                 1.0842                 1.0522
 Frc consts  --      1.7282                 1.7722                 5.4751
 IR Inten    --     32.6587                15.7806                48.0027

                     43                     44                     45
                      A                      A                      A
 Frequencies --   3036.8034              3046.0258              3074.4264
 Red. masses --      1.0366                 1.0363                 1.0824
 Frc consts  --      5.6323                 5.6651                 6.0282
 IR Inten    --     20.1961                18.5236                32.6934

                     46                     47                     48
                      A                      A                      A
 Frequencies --   3103.4598              3110.1306              3118.2391
 Red. masses --      1.1015                 1.1010                 1.0987
 Frc consts  --      6.2508                 6.2747                 6.2941
 IR Inten    --     13.4985                43.7094                25.0998

                     49                     50                     51
                      A                      A                      A
 Frequencies --   3132.0921              3138.6571              3386.7418
 Red. masses --      1.1023                 1.0993                 1.0561
 Frc consts  --      6.3709                 6.3803                 7.1369
 IR Inten    --     19.6202                13.8812                11.3165

                     52                     53                     54
                      A                      A                      A
 Frequencies --   3488.3240              3531.8057              3567.5163
 Red. masses --      1.0490                 1.0845                 1.0921
 Frc consts  --      7.5207                 7.9699                 8.1890
 IR Inten    --      0.2925                 0.1835                 0.6012

 - Thermochemistry -
 -------------------
 Temperature   298.150 Kelvin.  Pressure   1.00000 Atm.
 Atom     1 has atomic number  6 and mass  12.00000

 Molecular mass:   103.11095 amu.
 Principal axes and moments of inertia in atomic units:
                           1         2         3
     Eigenvalues --   562.13314 759.12209 920.12895
           X            0.99937  -0.03087  -0.01753
           Y            0.03072   0.99949  -0.00828
           Z            0.01777   0.00774   0.99981
 This molecule is an asymmetric top.
 Rotational symmetry number  1.
 Warning -- assumption of classical behavior for rotation
           may cause significant error
 Rotational temperatures (Kelvin)      0.15408     0.11410     0.09413
 Rotational constants (GHZ):           3.21052     2.37741     1.96140
 Zero-point vibrational energy     479272.1 (Joules/Mol)
                                  114.54877 (Kcal/Mol)
 Warning -- explicit consideration of  14 degrees of freedom as
           vibrations may cause significant error
 Vibrational temperatures:    159.52   291.42   333.06   355.50   391.81
          (Kelvin)            422.92   458.46   528.33   553.43   567.16
                              585.44   692.48   743.76   825.56  1022.91
                             1175.82  1296.52  1339.04  1349.14  1379.28
                             1459.57  1517.96  1563.09  1620.23  1656.76
                             1754.23  1776.07  1835.57  1900.22  1941.33
                             2000.29  2030.37  2073.96  2125.89  2132.06
                             2149.24  2158.48  2172.15  2188.11  2357.06
                             2396.44  4275.76  4369.28  4382.55  4423.41
                             4465.18  4474.78  4486.44  4506.38  4515.82
                             4872.76  5018.91  5081.47  5132.85

 Zero-point correction=                           0.182545 (Hartree/Particle)
 Thermal correction to Energy=                    0.191469
 Thermal correction to Enthalpy=                  0.192413
 Thermal correction to Gibbs Free Energy=         0.150571
 Sum of electronic and zero-point Energies=           -324.309498
 Sum of electronic and thermal Energies=              -324.300575
 Sum of electronic and thermal Enthalpies=            -324.299630
 Sum of electronic and thermal Free Energies=         -324.341472

                     E (Thermal)             CV                S
                      KCal/Mol        Cal/Mol-Kelvin    Cal/Mol-Kelvin
 Total                  120.148             34.301             88.063
 Electronic               0.000              0.000              0.000
 Translational            0.889              2.981             39.809
 Rotational               0.889              2.981             27.465
 Vibrational            118.371             28.339             20.789
 Vibration     1          0.607              1.940              3.254
 Vibration     2          0.639              1.836              2.110
 Vibration     3          0.653              1.793              1.867
 Vibration     4          0.661              1.768              1.751
 Vibration     5          0.675              1.724              1.581
 Vibration     6          0.689              1.685              1.451
 Vibration     7          0.705              1.638              1.317
 Vibration     8          0.740              1.540              1.091
 Vibration     9          0.754              1.503              1.021
 Vibration    10          0.761              1.483              0.984
 Vibration    11          0.772              1.455              0.938
 Vibration    12          0.838              1.292              0.707
 Vibration    13          0.872              1.212              0.617
 Vibration    14          0.930              1.088              0.497

 Optimization completed.
    -- Stationary point found.
 Normal termination of Gaussian 09 at Fri Aug 19 12:33:05 2022.

 -----------------------------------------------------------------
 #P Geom=AllCheck Guess=TCheck SCRF=Check CCSD(T,E4T,FrzG4)/GTBas1
 -----------------------------------------------------------------

 Structure from the checkpoint file:  "G4.Frag_672.chk"
 --------
 Frag_672
 --------
 Charge =  0 Multiplicity = 1

 SCF Done:  E(RHF) =  -322.326859402     A.U. after   12 cycles
 E2 =    -0.1027797789D+01 EUMP2 =    -0.32335465719050D+03
 CCSD(T)
 CCSD(T)= -0.32345962857D+03
 CSD=-323.4273747\CCSD(T)=-323.4596286\RMSD=2.988e-09\PG=C01 [X(C4H13N3
 Normal termination of Gaussian 09 at Fri Aug 19 12:55:20 2022.

 ---------------------------------------------------------
 #P Geom=AllCheck Guess=TCheck SCRF=Check MP4=FrzG4/GTBas2
 ---------------------------------------------------------

 Structure from the checkpoint file:  "G4.Frag_672.chk"
 --------
 Frag_672
 --------
 Charge =  0 Multiplicity = 1

 SCF Done:  E(RHF) =  -322.336543724     A.U. after   12 cycles
 E2 =    -0.1044294496D+01 EUMP2 =    -0.32338083821972D+03
 Normal termination of Gaussian 09 at Fri Aug 19 13:23:55 2022.

 ---------------------------------------------------------
 #P Geom=AllCheck Guess=TCheck SCRF=Check MP4=FrzG4/GTBas3
 ---------------------------------------------------------

 Structure from the checkpoint file:  "G4.Frag_672.chk"
 --------
 Frag_672
 --------
 Charge =  0 Multiplicity = 1

 SCF Done:  E(RHF) =  -322.372727728     A.U. after   10 cycles
 E2 =    -0.1271636231D+01 EUMP2 =    -0.32364436395928D+03
 Normal termination of Gaussian 09 at Fri Aug 19 20:18:36 2022.

 -----------------------------------------------------------
 #P Geom=AllCheck Guess=TCheck SCRF=Check MP2=Full/GTLargeXP
 -----------------------------------------------------------

 Structure from the checkpoint file:  "G4.Frag_672.chk"
 --------
 Frag_672
 --------
 Charge =  0 Multiplicity = 1

 SCF Done:  E(RHF) =  -322.450320087     A.U. after   11 cycles
 E2 =    -0.1659792220D+01 EUMP2 =    -0.32411011230683D+03
 Normal termination of Gaussian 09 at Fri Aug 19 20:36:34 2022.
 SCF Done:  E(RHF) =  -322.475039072     A.U. after    9 cycles
 Normal termination of Gaussian 09 at Fri Aug 19 20:50:10 2022.

                         Standard orientation:
 ---------------------------------------------------------------------
 Center     Atomic      Atomic             Coordinates (Angstroms)
 Number     Number       Type             X           Y           Z
 ---------------------------------------------------------------------
      1          6           0       -1.608693    1.134061   -0.067842
      2          7           0       -0.799345   -0.014133   -0.468725
      3          7           0       -1.408143   -1.237446   -0.035334
      4          6           0        0.602447    0.006320    0.008943
      5          6           0        1.362123   -1.108404   -0.732069
      6          6           0        1.247220    1.359415   -0.317176
      7          7           0        0.626241   -0.170971    1.477211
      8          1           0       -1.221006    2.056913   -0.504982
      9          1           0       -2.622058    0.988842   -0.454487
     10          1           0       -1.661081    1.255889    1.026983
     11          1           0       -2.149664   -1.455498   -0.694014
     12          1           0       -1.851317   -1.097136    0.876460
     13          1           0        2.396967   -1.156809   -0.377459
     14          1           0        1.372011   -0.922119   -1.810502
     15          1           0        0.880146   -2.071624   -0.556736
     16          1           0        1.061079    1.631167   -1.359342
     17          1           0        2.330274    1.292951   -0.174266
     18          1           0        0.871490    2.153353    0.332329
     19          1           0        0.506880   -1.157672    1.689282
     20          1           0        1.536426    0.091235    1.843535
 ---------------------------------------------------------------------

 SCF Done:  E(RHF) =  -322.480460487     A.U. after    8 cycles

 The electronic state is 1-A.
 Alpha  occ. eigenvalues --  -15.56569 -15.56184 -15.53193 -11.28327 -11.23480
 Alpha  occ. eigenvalues --  -11.21153 -11.19911  -1.28572  -1.17093  -1.05571
 Alpha  occ. eigenvalues --   -0.99547  -0.93186  -0.88518  -0.74758  -0.68167
 Alpha  occ. eigenvalues --   -0.65636  -0.63949  -0.61573  -0.60405  -0.56457
 Alpha  occ. eigenvalues --   -0.54836  -0.53299  -0.52904  -0.51445  -0.49291
 Alpha  occ. eigenvalues --   -0.47113  -0.41043  -0.38967  -0.36970
 Alpha virt. eigenvalues --    0.03363   0.04057   0.04467   0.05220   0.06281
 Alpha virt. eigenvalues --    0.06865   0.06929   0.07363   0.07761   0.09513
 Alpha virt. eigenvalues --    0.09531   0.10228   0.10764   0.11013   0.11294

 Mulliken charges:
               1
     1  C   -0.525810
     2  N   -0.014521
     3  N   -0.731978
     4  C    0.537610
     5  C   -0.613230
     6  C   -0.628368
     7  N   -0.826694
     8  H    0.171399
     9  H    0.161821
    10  H    0.176115
    11  H    0.313205
    12  H    0.299123
    13  H    0.158439
    14  H    0.170550
    15  H    0.203245
    16  H    0.188896
    17  H    0.178385
    18  H    0.184369
    19  H    0.306282
    20  H    0.291164
 Sum of Mulliken charges =  -0.00000

 Dipole moment (field-independent basis, Debye):
    X=             -0.0507    Y=              0.2680    Z=              0.3605  Tot=              0.4521
 Quadrupole moment (field-independent basis, Debye-Ang):
   XX=            -40.3132   YY=            -46.5328   ZZ=            -47.7518
   XY=              1.1503   XZ=              1.4803   YZ=             -1.7512

 Normal termination of Gaussian 09 at Sat Aug 20 02:48:18 2022.
