 Gaussian 09, Revision E.01,
 Gaussian 09:  ES64L-G09RevE.01 30-Nov-2015

 -----
 #P G4
 -----

 ---------
 Frag_1116
 ---------
 Symbolic Z-matrix:
 Charge =  0 Multiplicity = 1

 SCF Done:  E(RB3LYP) =  -344.319817180     A.U. after   13 cycles
 SCF Done:  E(RB3LYP) =  -344.327167331     A.U. after   11 cycles
 SCF Done:  E(RB3LYP) =  -344.328433327     A.U. after   11 cycles
 SCF Done:  E(RB3LYP) =  -344.328802202     A.U. after   10 cycles
 SCF Done:  E(RB3LYP) =  -344.328864806     A.U. after   10 cycles
 SCF Done:  E(RB3LYP) =  -344.328872972     A.U. after    9 cycles
 SCF Done:  E(RB3LYP) =  -344.328877321     A.U. after    8 cycles
 SCF Done:  E(RB3LYP) =  -344.328879924     A.U. after    7 cycles
 SCF Done:  E(RB3LYP) =  -344.328880533     A.U. after    7 cycles
 SCF Done:  E(RB3LYP) =  -344.328880871     A.U. after    7 cycles
 SCF Done:  E(RB3LYP) =  -344.328880974     A.U. after    6 cycles
 Optimization completed.
    -- Stationary point found.
 Normal termination of Gaussian 09 at Thu Aug 25 05:14:12 2022.

 ----------------------------------------------------------
 #P Geom=AllCheck Guess=TCheck SCRF=Check B3LYP/GTBas3 Freq
 ----------------------------------------------------------

 Structure from the checkpoint file:  "G4.Frag_1116.chk"
 ---------
 Frag_1116
 ---------
 Charge =  0 Multiplicity = 1

 SCF Done:  E(RB3LYP) =  -344.328880974     A.U. after    1 cycles

  Exact polarizability:  68.302  -0.622  66.081  -0.252  -1.390  60.019
 Approx polarizability:  91.644   0.901  94.712  -0.617  -1.338  86.689

                      1                      2                      3
                      A                      A                      A
 Frequencies --    103.9526               186.3389               236.5826
 Red. masses --      2.8573                 1.1594                 1.0272
 Frc consts  --      0.0182                 0.0237                 0.0339
 IR Inten    --      0.3386                 0.2710                10.1414

                      4                      5                      6
                      A                      A                      A
 Frequencies --    247.3064               273.4964               281.1733
 Red. masses --      1.1415                 1.3782                 2.4191
 Frc consts  --      0.0411                 0.0607                 0.1127
 IR Inten    --      1.0845                68.6092                 3.3671

                      7                      8                      9
                      A                      A                      A
 Frequencies --    297.5870               356.3517               358.5365
 Red. masses --      1.7468                 2.6875                 1.4606
 Frc consts  --      0.0911                 0.2011                 0.1106
 IR Inten    --     19.4960                 2.5473                16.8218

                     10                     11                     12
                      A                      A                      A
 Frequencies --    381.8125               402.6267               502.8658
 Red. masses --      2.0985                 1.9007                 2.5152
 Frc consts  --      0.1802                 0.1815                 0.3747
 IR Inten    --      3.7596                 9.0824                13.2100

                     13                     14                     15
                      A                      A                      A
 Frequencies --    507.4008               561.6063               713.9518
 Red. masses --      3.2039                 3.0534                 4.0712
 Frc consts  --      0.4860                 0.5674                 1.2227
 IR Inten    --     17.2169                14.3242                 5.6092

                     16                     17                     18
                      A                      A                      A
 Frequencies --    819.3000               893.9906               899.8303
 Red. masses --      3.3762                 4.5030                 2.1570
 Frc consts  --      1.3352                 2.1204                 1.0290
 IR Inten    --      7.3818                61.5785                82.2379

                     19                     20                     21
                      A                      A                      A
 Frequencies --    925.4168               932.6842               960.3344
 Red. masses --      1.6610                 1.6770                 1.2005
 Frc consts  --      0.8381                 0.8595                 0.6523
 IR Inten    --      0.1987                 0.6938                 0.1143

                     22                     23                     24
                      A                      A                      A
 Frequencies --   1042.3375              1049.4552              1194.9992
 Red. masses --      1.4159                 1.4268                 2.1015
 Frc consts  --      0.9064                 0.9259                 1.7681
 IR Inten    --      1.0687                 6.2147                19.5826

                     25                     26                     27
                      A                      A                      A
 Frequencies --   1251.6317              1254.4430              1271.6944
 Red. masses --      2.4432                 2.4537                 2.9348
 Frc consts  --      2.2551                 2.2750                 2.7964
 IR Inten    --      7.6375                26.7055                15.7400

                     28                     29                     30
                      A                      A                      A
 Frequencies --   1300.1511              1369.0420              1388.9582
 Red. masses --      1.2230                 1.2950                 1.2831
 Frc consts  --      1.2180                 1.4300                 1.4585
 IR Inten    --     33.7100                13.8381                14.0956

                     31                     32                     33
                      A                      A                      A
 Frequencies --   1392.3467              1420.9152              1470.0440
 Red. masses --      1.2716                 1.2359                 1.0497
 Frc consts  --      1.4524                 1.4702                 1.3365
 IR Inten    --      8.3977                 6.9377                 0.3556

                     34                     35                     36
                      A                      A                      A
 Frequencies --   1489.1765              1492.4779              1499.0305
 Red. masses --      1.0508                 1.0456                 1.0544
 Frc consts  --      1.3729                 1.3722                 1.3960
 IR Inten    --      1.5627                 0.2146                 1.1189

                     37                     38                     39
                      A                      A                      A
 Frequencies --   1500.6986              1526.7078              1681.6047
 Red. masses --      1.0556                 1.0582                 1.0765
 Frc consts  --      1.4007                 1.4532                 1.7935
 IR Inten    --      3.4405                 6.8059                16.1541

                     40                     41                     42
                      A                      A                      A
 Frequencies --   3039.7948              3040.7917              3047.9432
 Red. masses --      1.0359                 1.0357                 1.0372
 Frc consts  --      5.6398                 5.6424                 5.6769
 IR Inten    --     22.5004                16.9101                16.8527

                     43                     44                     45
                      A                      A                      A
 Frequencies --   3105.1981              3106.3004              3113.4009
 Red. masses --      1.1015                 1.1011                 1.1007
 Frc consts  --      6.2575                 6.2600                 6.2863
 IR Inten    --      9.9227                 5.4903                54.9426

                     46                     47                     48
                      A                      A                      A
 Frequencies --   3125.2440              3135.4790              3142.8524
 Red. masses --      1.1016                 1.0999                 1.0994
 Frc consts  --      6.3393                 6.3710                 6.3982
 IR Inten    --     11.1369                22.8900                17.3722

                     49                     50                     51
                      A                      A                      A
 Frequencies --   3414.3094              3543.3549              3807.8008
 Red. masses --      1.0543                 1.0858                 1.0681
 Frc consts  --      7.2415                 8.0325                 9.1243
 IR Inten    --      4.9680                 0.8467                35.9812

 - Thermochemistry -
 -------------------
 Temperature   298.150 Kelvin.  Pressure   1.00000 Atm.
 Atom     1 has atomic number  6 and mass  12.00000

 Molecular mass:   104.09496 amu.
 Principal axes and moments of inertia in atomic units:
                           1         2         3
     Eigenvalues --   568.47293 760.01622 909.22279
           X            0.99952  -0.03030   0.00584
           Y            0.03048   0.99901  -0.03233
           Z           -0.00486   0.03249   0.99946
 This molecule is an asymmetric top.
 Rotational symmetry number  1.
 Warning -- assumption of classical behavior for rotation
           may cause significant error
 Rotational temperatures (Kelvin)      0.15236     0.11396     0.09526
 Rotational constants (GHZ):           3.17472     2.37461     1.98493
 Zero-point vibrational energy     442985.1 (Joules/Mol)
                                  105.87598 (Kcal/Mol)
 Warning -- explicit consideration of  14 degrees of freedom as
           vibrations may cause significant error
 Vibrational temperatures:    149.56   268.10   340.39   355.82   393.50
          (Kelvin)            404.55   428.16   512.71   515.85   549.34
                              579.29   723.51   730.04   808.03  1027.22
                             1178.79  1286.25  1294.65  1331.47  1341.92
                             1381.71  1499.69  1509.93  1719.34  1800.82
                             1804.86  1829.68  1870.63  1969.74  1998.40
                             2003.27  2044.38  2115.06  2142.59  2147.34
                             2156.77  2159.17  2196.59  2419.45  4373.58
                             4375.02  4385.31  4467.68  4469.27  4479.48
                             4496.52  4511.25  4521.86  4912.42  5098.09
                             5478.57

 Zero-point correction=                           0.168724 (Hartree/Particle)
 Thermal correction to Energy=                    0.177769
 Thermal correction to Enthalpy=                  0.178713
 Thermal correction to Gibbs Free Energy=         0.136562
 Sum of electronic and zero-point Energies=           -344.160157
 Sum of electronic and thermal Energies=              -344.151112
 Sum of electronic and thermal Enthalpies=            -344.150168
 Sum of electronic and thermal Free Energies=         -344.192319

                     E (Thermal)             CV                S
                      KCal/Mol        Cal/Mol-Kelvin    Cal/Mol-Kelvin
 Total                  111.552             34.343             88.715
 Electronic               0.000              0.000              0.000
 Translational            0.889              2.981             39.838
 Rotational               0.889              2.981             27.465
 Vibrational            109.774             28.381             21.412
 Vibration     1          0.605              1.946              3.379
 Vibration     2          0.632              1.859              2.264
 Vibration     3          0.655              1.785              1.828
 Vibration     4          0.661              1.767              1.750
 Vibration     5          0.676              1.722              1.574
 Vibration     6          0.681              1.708              1.527
 Vibration     7          0.691              1.678              1.430
 Vibration     8          0.732              1.562              1.138
 Vibration     9          0.733              1.558              1.128
 Vibration    10          0.751              1.509              1.032
 Vibration    11          0.768              1.464              0.953
 Vibration    12          0.858              1.244              0.651
 Vibration    13          0.863              1.234              0.640
 Vibration    14          0.917              1.114              0.521

 Optimization completed.
    -- Stationary point found.
 Normal termination of Gaussian 09 at Thu Aug 25 05:22:11 2022.

 -----------------------------------------------------------------
 #P Geom=AllCheck Guess=TCheck SCRF=Check CCSD(T,E4T,FrzG4)/GTBas1
 -----------------------------------------------------------------

 Structure from the checkpoint file:  "G4.Frag_1116.chk"
 ---------
 Frag_1116
 ---------
 Charge =  0 Multiplicity = 1

 SCF Done:  E(RHF) =  -342.118276972     A.U. after   13 cycles
 E2 =    -0.1046875601D+01 EUMP2 =    -0.34316515257347D+03
 CCSD(T)
 CCSD(T)= -0.34326598447D+03
 343.2650403\MP4SDQ=-343.2319522\CCSD=-343.2329539\CCSD(T)=-343.2659845
 Normal termination of Gaussian 09 at Thu Aug 25 05:40:41 2022.

 ---------------------------------------------------------
 #P Geom=AllCheck Guess=TCheck SCRF=Check MP4=FrzG4/GTBas2
 ---------------------------------------------------------

 Structure from the checkpoint file:  "G4.Frag_1116.chk"
 ---------
 Frag_1116
 ---------
 Charge =  0 Multiplicity = 1

 SCF Done:  E(RHF) =  -342.127592924     A.U. after   13 cycles
 E2 =    -0.1063850747D+01 EUMP2 =    -0.34319144367140D+03
 Normal termination of Gaussian 09 at Thu Aug 25 06:07:02 2022.

 ---------------------------------------------------------
 #P Geom=AllCheck Guess=TCheck SCRF=Check MP4=FrzG4/GTBas3
 ---------------------------------------------------------

 Structure from the checkpoint file:  "G4.Frag_1116.chk"
 ---------
 Frag_1116
 ---------
 Charge =  0 Multiplicity = 1

 SCF Done:  E(RHF) =  -342.164252593     A.U. after   12 cycles
 E2 =    -0.1296105546D+01 EUMP2 =    -0.34346035813984D+03
 Normal termination of Gaussian 09 at Thu Aug 25 12:23:22 2022.

 -----------------------------------------------------------
 #P Geom=AllCheck Guess=TCheck SCRF=Check MP2=Full/GTLargeXP
 -----------------------------------------------------------

 Structure from the checkpoint file:  "G4.Frag_1116.chk"
 ---------
 Frag_1116
 ---------
 Charge =  0 Multiplicity = 1

 SCF Done:  E(RHF) =  -342.249121705     A.U. after   12 cycles
 E2 =    -0.1689967673D+01 EUMP2 =    -0.34393908937763D+03
 Normal termination of Gaussian 09 at Thu Aug 25 12:40:38 2022.
 SCF Done:  E(RHF) =  -342.276364991     A.U. after    9 cycles
 Normal termination of Gaussian 09 at Thu Aug 25 12:53:11 2022.

                         Standard orientation:
 ---------------------------------------------------------------------
 Center     Atomic      Atomic             Coordinates (Angstroms)
 Number     Number       Type             X           Y           Z
 ---------------------------------------------------------------------
      1          6           0       -0.663147   -0.097567    1.541654
      2          6           0       -0.598896   -0.016024    0.005658
      3          6           0       -1.260265    1.279595   -0.485346
      4          6           0       -1.303282   -1.221774   -0.633754
      5          7           0        0.804832   -0.012698   -0.512520
      6          7           0        1.499053   -1.156383   -0.085322
      7          8           0        1.469245    1.155744    0.064069
      8          1           0       -0.275945   -1.052502    1.909701
      9          1           0       -1.700932   -0.015613    1.878499
     10          1           0       -0.091831    0.715301    1.996983
     11          1           0       -0.806227    2.155969   -0.019755
     12          1           0       -1.160065    1.370863   -1.571625
     13          1           0       -2.326573    1.270402   -0.240659
     14          1           0       -0.856277   -2.160390   -0.303901
     15          1           0       -2.362879   -1.218029   -0.359673
     16          1           0       -1.229319   -1.173497   -1.724320
     17          1           0        1.779935   -1.051869    0.891829
     18          1           0        2.350695   -1.209039   -0.635150
     19          1           0        1.751798    1.640643   -0.718867
 ---------------------------------------------------------------------

 SCF Done:  E(RHF) =  -342.282234767     A.U. after    8 cycles

 The electronic state is 1-A.
 Alpha  occ. eigenvalues --  -20.57660 -15.63414 -15.57219 -11.26294 -11.20815
 Alpha  occ. eigenvalues --  -11.20680 -11.20414  -1.40506  -1.22908  -1.09931
 Alpha  occ. eigenvalues --   -0.95604  -0.93042  -0.92693  -0.74556  -0.71205
 Alpha  occ. eigenvalues --   -0.66944  -0.65018  -0.61747  -0.59338  -0.57995
 Alpha  occ. eigenvalues --   -0.54135  -0.53292  -0.52725  -0.51014  -0.48172
 Alpha  occ. eigenvalues --   -0.46712  -0.46341  -0.42180  -0.39266
 Alpha virt. eigenvalues --    0.03463   0.04312   0.04568   0.04928   0.06778
 Alpha virt. eigenvalues --    0.07017   0.07277   0.07393   0.07644   0.09870
 Alpha virt. eigenvalues --    0.10108   0.10464   0.10524   0.11819   0.12383

 Mulliken charges:
               1
     1  C   -0.627509
     2  C    0.521891
     3  C   -0.647978
     4  C   -0.615143
     5  N   -0.015159
     6  N   -0.641027
     7  O   -0.583867
     8  H    0.168642
     9  H    0.172950
    10  H    0.198529
    11  H    0.185217
    12  H    0.177919
    13  H    0.168135
    14  H    0.197835
    15  H    0.167664
    16  H    0.169312
    17  H    0.301393
    18  H    0.301423
    19  H    0.399771
 Sum of Mulliken charges =  -0.00000

 Dipole moment (field-independent basis, Debye):
    X=              0.4821    Y=              0.3525    Z=             -0.1944  Tot=              0.6281
 Quadrupole moment (field-independent basis, Debye-Ang):
   XX=            -41.0340   YY=            -46.3748   ZZ=            -44.9459
   XY=             -0.5273   XZ=             -1.9665   YZ=             -2.8353

 Normal termination of Gaussian 09 at Thu Aug 25 18:25:45 2022.
