 Gaussian 09, Revision E.01,
 Gaussian 09:  ES64L-G09RevE.01 30-Nov-2015

 -----
 #P G4
 -----

 --------
 Frag_875
 --------
 Symbolic Z-matrix:
 Charge =  0 Multiplicity = 1

 SCF Done:  E(RB3LYP) =  -343.598886398     A.U. after   14 cycles
 SCF Done:  E(RB3LYP) =  -343.604013970     A.U. after   12 cycles
 SCF Done:  E(RB3LYP) =  -343.604630057     A.U. after   12 cycles
 SCF Done:  E(RB3LYP) =  -343.605220587     A.U. after   13 cycles
 SCF Done:  E(RB3LYP) =  -343.606241333     A.U. after   13 cycles
 SCF Done:  E(RB3LYP) =  -343.607316203     A.U. after   13 cycles
 SCF Done:  E(RB3LYP) =  -343.607882205     A.U. after   12 cycles
 SCF Done:  E(RB3LYP) =  -343.608438882     A.U. after   13 cycles
 SCF Done:  E(RB3LYP) =  -343.608666508     A.U. after   12 cycles
 SCF Done:  E(RB3LYP) =  -343.608874182     A.U. after   12 cycles
 SCF Done:  E(RB3LYP) =  -343.618650841     A.U. after    8 cycles
 SCF Done:  E(RB3LYP) =  -343.618651076     A.U. after    8 cycles
 SCF Done:  E(RB3LYP) =  -343.618651096     A.U. after    6 cycles
 Optimization completed.
    -- Stationary point found.
 Normal termination of Gaussian 09 at Fri Aug 26 14:21:10 2022.

 ----------------------------------------------------------
 #P Geom=AllCheck Guess=TCheck SCRF=Check B3LYP/GTBas3 Freq
 ----------------------------------------------------------

 Structure from the checkpoint file:  "G4.Frag_875.chk"
 --------
 Frag_875
 --------
 Charge =  0 Multiplicity = 1

 SCF Done:  E(RB3LYP) =  -343.618651096     A.U. after    1 cycles

  Exact polarizability:  45.901   1.806  45.373   1.043   2.842  36.870
 Approx polarizability:  58.197   0.569  72.718   0.956   6.805  55.480

                      1                      2                      3
                      A                      A                      A
 Frequencies --     68.7107               127.2377               240.7795
 Red. masses --      4.0790                 1.1180                 2.5075
 Frc consts  --      0.0113                 0.0107                 0.0857
 IR Inten    --      1.5397                 0.1830                 0.7898

                      4                      5                      6
                      A                      A                      A
 Frequencies --    268.7803               308.0249               396.8248
 Red. masses --      1.3516                 3.8701                 4.5815
 Frc consts  --      0.0575                 0.2163                 0.4251
 IR Inten    --     94.1930                 7.2972                 9.7216

                      7                      8                      9
                      A                      A                      A
 Frequencies --    510.3411               560.2537               600.4813
 Red. masses --      2.9451                 1.5246                 2.5224
 Frc consts  --      0.4519                 0.2819                 0.5359
 IR Inten    --     65.7039                19.8792                20.1039

                     10                     11                     12
                      A                      A                      A
 Frequencies --    657.6426               803.1234               972.5938
 Red. masses --      2.6425                 2.6064                 2.0940
 Frc consts  --      0.6734                 0.9905                 1.1670
 IR Inten    --      3.0903                10.3585                10.9653

                     13                     14                     15
                      A                      A                      A
 Frequencies --   1024.5548              1042.3386              1125.6100
 Red. masses --      4.4656                 1.8782                 3.8217
 Frc consts  --      2.7619                 1.2023                 2.8529
 IR Inten    --    134.5504                 3.6573               133.9569

                     16                     17                     18
                      A                      A                      A
 Frequencies --   1207.3741              1279.0257              1308.7774
 Red. masses --      2.1808                 1.2164                 1.5651
 Frc consts  --      1.8731                 1.1724                 1.5795
 IR Inten    --     35.5334                53.4133                28.4939

                     19                     20                     21
                      A                      A                      A
 Frequencies --   1380.2441              1424.8149              1456.2246
 Red. masses --      1.3285                 1.2369                 1.1701
 Frc consts  --      1.4911                 1.4795                 1.4619
 IR Inten    --     51.9599                48.1636                60.3984

                     22                     23                     24
                      A                      A                      A
 Frequencies --   1469.2979              1471.0920              1804.4930
 Red. masses --      1.1225                 1.1250                10.5551
 Frc consts  --      1.4278                 1.4344                20.2499
 IR Inten    --     32.1046                35.6263               120.8303

                     25                     26                     27
                      A                      A                      A
 Frequencies --   3028.9936              3042.5522              3111.3728
 Red. masses --      1.0822                 1.0415                 1.0924
 Frc consts  --      5.8502                 5.6807                 6.2307
 IR Inten    --     32.2463                 5.2165                 2.9005

                     28                     29                     30
                      A                      A                      A
 Frequencies --   3160.8646              3629.3136              3788.8007
 Red. masses --      1.1043                 1.0642                 1.0654
 Frc consts  --      6.5004                 8.2589                 9.0111
 IR Inten    --      5.7006                93.5173                32.4057

 - Thermochemistry -
 -------------------
 Temperature   298.150 Kelvin.  Pressure   1.00000 Atm.
 Atom     1 has atomic number  6 and mass  12.00000

 Molecular mass:    90.03169 amu.
 Principal axes and moments of inertia in atomic units:
                           1         2         3
     Eigenvalues --   353.18042 556.14255 798.46422
           X            0.99610   0.08615   0.01918
           Y           -0.08632   0.99623   0.00844
           Z           -0.01838  -0.01007   0.99978
 This molecule is an asymmetric top.
 Rotational symmetry number  1.
 Rotational temperatures (Kelvin)      0.24524     0.15574     0.10848
 Rotational constants (GHZ):           5.10997     3.24511     2.26027
 Zero-point vibrational energy     246852.6 (Joules/Mol)
                                   58.99920 (Kcal/Mol)
 Warning -- explicit consideration of   9 degrees of freedom as
           vibrations may cause significant error
 Vibrational temperatures:     98.86   183.07   346.43   386.71   443.18
          (Kelvin)            570.94   734.27   806.08   863.96   946.20
                             1155.51  1399.34  1474.10  1499.69  1619.50
                             1737.14  1840.23  1883.04  1985.86  2049.99
                             2095.18  2113.99  2116.57  2596.26  4358.04
                             4377.55  4476.57  4547.77  5221.77  5451.23

 Zero-point correction=                           0.094021 (Hartree/Particle)
 Thermal correction to Energy=                    0.100985
 Thermal correction to Enthalpy=                  0.101929
 Thermal correction to Gibbs Free Energy=         0.063180
 Sum of electronic and zero-point Energies=           -343.524630
 Sum of electronic and thermal Energies=              -343.517666
 Sum of electronic and thermal Enthalpies=            -343.516722
 Sum of electronic and thermal Free Energies=         -343.555471

                     E (Thermal)             CV                S
                      KCal/Mol        Cal/Mol-Kelvin    Cal/Mol-Kelvin
 Total                   63.369             23.777             81.554
 Electronic               0.000              0.000              0.000
 Translational            0.889              2.981             39.405
 Rotational               0.889              2.981             26.553
 Vibrational             61.592             17.815             15.596
 Vibration     1          0.598              1.969              4.190
 Vibration     2          0.611              1.926              2.987
 Vibration     3          0.658              1.778              1.797
 Vibration     4          0.673              1.731              1.604
 Vibration     5          0.698              1.658              1.373
 Vibration     6          0.763              1.477              0.974
 Vibration     7          0.865              1.227              0.633
 Vibration     8          0.916              1.117              0.523
 Vibration     9          0.959              1.031              0.449

 Optimization completed.
    -- Stationary point found.
 Normal termination of Gaussian 09 at Fri Aug 26 14:21:36 2022.

 -----------------------------------------------------------------
 #P Geom=AllCheck Guess=TCheck SCRF=Check CCSD(T,E4T,FrzG4)/GTBas1
 -----------------------------------------------------------------

 Structure from the checkpoint file:  "G4.Frag_875.chk"
 --------
 Frag_875
 --------
 Charge =  0 Multiplicity = 1

 SCF Done:  E(RHF) =  -341.668973309     A.U. after   14 cycles
 E2 =    -0.9184546786D+00 EUMP2 =    -0.34258742798745D+03
 CCSD(T)
 CCSD(T)= -0.34265091411D+03
 =-342.6235496\CCSD(T)=-342.6509141\RMSD=2.658e-09\PG=C01 [X(C3H6O3)]\\
 Normal termination of Gaussian 09 at Fri Aug 26 14:23:28 2022.

 ---------------------------------------------------------
 #P Geom=AllCheck Guess=TCheck SCRF=Check MP4=FrzG4/GTBas2
 ---------------------------------------------------------

 Structure from the checkpoint file:  "G4.Frag_875.chk"
 --------
 Frag_875
 --------
 Charge =  0 Multiplicity = 1

 SCF Done:  E(RHF) =  -341.680515241     A.U. after   14 cycles
 E2 =    -0.9340007305D+00 EUMP2 =    -0.34261451597124D+03
 Normal termination of Gaussian 09 at Fri Aug 26 14:24:04 2022.

 ---------------------------------------------------------
 #P Geom=AllCheck Guess=TCheck SCRF=Check MP4=FrzG4/GTBas3
 ---------------------------------------------------------

 Structure from the checkpoint file:  "G4.Frag_875.chk"
 --------
 Frag_875
 --------
 Charge =  0 Multiplicity = 1

 SCF Done:  E(RHF) =  -341.712761024     A.U. after   13 cycles
 E2 =    -0.1133292880D+01 EUMP2 =    -0.34284605390376D+03
 Normal termination of Gaussian 09 at Fri Aug 26 14:26:54 2022.

 -----------------------------------------------------------
 #P Geom=AllCheck Guess=TCheck SCRF=Check MP2=Full/GTLargeXP
 -----------------------------------------------------------

 Structure from the checkpoint file:  "G4.Frag_875.chk"
 --------
 Frag_875
 --------
 Charge =  0 Multiplicity = 1

 SCF Done:  E(RHF) =  -341.808688225     A.U. after   12 cycles
 E2 =    -0.1481355191D+01 EUMP2 =    -0.34329004341605D+03
 Normal termination of Gaussian 09 at Fri Aug 26 14:28:35 2022.
 SCF Done:  E(RHF) =  -341.836371910     A.U. after    9 cycles
 Normal termination of Gaussian 09 at Fri Aug 26 14:30:10 2022.

                         Standard orientation:
 ---------------------------------------------------------------------
 Center     Atomic      Atomic             Coordinates (Angstroms)
 Number     Number       Type             X           Y           Z
 ---------------------------------------------------------------------
      1          6           0        1.878498    0.630080    0.205114
      2          6           0        0.701573   -0.289235    0.028266
      3          8           0        0.778118   -1.409380   -0.430701
      4          6           0       -0.696242    0.262494    0.405060
      5          8           0       -1.632449   -0.749047    0.299135
      6          8           0       -0.977890    1.359730   -0.449603
      7          1           0        2.041171    0.808042    1.275112
      8          1           0        1.657202    1.600099   -0.248251
      9          1           0        2.776423    0.191273   -0.230700
     10          1           0       -0.691984    0.685496    1.418258
     11          1           0       -1.156398   -1.494898   -0.108576
     12          1           0       -1.271617    0.979532   -1.287119
 ---------------------------------------------------------------------

 SCF Done:  E(RHF) =  -341.842396887     A.U. after    8 cycles

 The electronic state is 1-A.
 Alpha  occ. eigenvalues --  -20.58051 -20.57657 -20.57326 -11.35666 -11.35292
 Alpha  occ. eigenvalues --  -11.24955  -1.44437  -1.40370  -1.35012  -1.04222
 Alpha  occ. eigenvalues --   -0.93889  -0.80003  -0.73491  -0.71230  -0.67812
 Alpha  occ. eigenvalues --   -0.64706  -0.61308  -0.59688  -0.56761  -0.55212
 Alpha  occ. eigenvalues --   -0.52639  -0.52300  -0.48717  -0.42891
 Alpha virt. eigenvalues --    0.03323   0.04554   0.05052   0.05229   0.06952
 Alpha virt. eigenvalues --    0.07167   0.07359   0.07920   0.08608   0.09935
 Alpha virt. eigenvalues --    0.11834   0.12838   0.14024   0.14512   0.15706

 Mulliken charges:
               1
     1  C   -0.564375
     2  C    0.463361
     3  O   -0.553543
     4  C    0.207956
     5  O   -0.604193
     6  O   -0.553468
     7  H    0.196021
     8  H    0.229314
     9  H    0.213038
    10  H    0.178575
    11  H    0.412088
    12  H    0.375228
 Sum of Mulliken charges =  -0.00000

 Dipole moment (field-independent basis, Debye):
    X=              1.7661    Y=              1.2204    Z=              0.1721  Tot=              2.1536
 Quadrupole moment (field-independent basis, Debye-Ang):
   XX=            -37.7566   YY=            -40.6471   ZZ=            -32.1541
   XY=              3.3478   XZ=              3.5422   YZ=             -0.2277

 Normal termination of Gaussian 09 at Fri Aug 26 14:36:05 2022.
