 Gaussian 09, Revision E.01,
 Gaussian 09:  ES64L-G09RevE.01 30-Nov-2015

 -----
 #P G4
 -----

 --------
 Frag_765
 --------
 Symbolic Z-matrix:
 Charge =  0 Multiplicity = 1

 SCF Done:  E(RB3LYP) =  -303.821773155     A.U. after   14 cycles
 SCF Done:  E(RB3LYP) =  -303.844809825     A.U. after   12 cycles
 SCF Done:  E(RB3LYP) =  -303.850725618     A.U. after   11 cycles
 SCF Done:  E(RB3LYP) =  -303.854726125     A.U. after   12 cycles
 SCF Done:  E(RB3LYP) =  -303.857296112     A.U. after   10 cycles
 SCF Done:  E(RB3LYP) =  -303.859469814     A.U. after   12 cycles
 SCF Done:  E(RB3LYP) =  -303.860446980     A.U. after   11 cycles
 SCF Done:  E(RB3LYP) =  -303.861303350     A.U. after   11 cycles
 SCF Done:  E(RB3LYP) =  -303.862019448     A.U. after   11 cycles
 SCF Done:  E(RB3LYP) =  -303.863166722     A.U. after   12 cycles
 SCF Done:  E(RB3LYP) =  -303.864347064     A.U. after    7 cycles
 SCF Done:  E(RB3LYP) =  -303.864347247     A.U. after    7 cycles
 SCF Done:  E(RB3LYP) =  -303.864347258     A.U. after    6 cycles
 Optimization completed.
    -- Stationary point found.
 Normal termination of Gaussian 09 at Fri Aug 26 12:15:59 2022.

 ----------------------------------------------------------
 #P Geom=AllCheck Guess=TCheck SCRF=Check B3LYP/GTBas3 Freq
 ----------------------------------------------------------

 Structure from the checkpoint file:  "G4.Frag_765.chk"
 --------
 Frag_765
 --------
 Charge =  0 Multiplicity = 1

 SCF Done:  E(RB3LYP) =  -303.864347258     A.U. after    1 cycles

  Exact polarizability:  70.895   1.859  54.621   0.719  -0.521  35.204
 Approx polarizability: 105.363  -0.599  74.584  -0.465  -1.387  53.018

                      1                      2                      3
                      A                      A                      A
 Frequencies --    116.1010               170.2398               246.7186
 Red. masses --      1.2953                 1.6018                 1.2744
 Frc consts  --      0.0103                 0.0274                 0.0457
 IR Inten    --      7.8517                 1.7566                13.6439

                      4                      5                      6
                      A                      A                      A
 Frequencies --    279.9023               332.9957               345.9175
 Red. masses --      3.1844                 1.6650                 1.6293
 Frc consts  --      0.1470                 0.1088                 0.1149
 IR Inten    --      2.7845                26.3620                60.4821

                      7                      8                      9
                      A                      A                      A
 Frequencies --    379.4948               418.4701               504.8284
 Red. masses --      2.5191                 1.1863                 2.4964
 Frc consts  --      0.2137                 0.1224                 0.3748
 IR Inten    --      4.1143                75.0085                 7.0975

                     10                     11                     12
                      A                      A                      A
 Frequencies --    549.6886               637.7859               745.7576
 Red. masses --      4.1494                 2.8370                 4.5871
 Frc consts  --      0.7387                 0.6799                 1.5031
 IR Inten    --      8.9284                49.2145                32.8194

                     13                     14                     15
                      A                      A                      A
 Frequencies --    786.5699               873.7319               974.3651
 Red. masses --      1.7631                 1.3915                 1.7089
 Frc consts  --      0.6427                 0.6259                 0.9559
 IR Inten    --    205.2501               157.6899                 1.6118

                     16                     17                     18
                      A                      A                      A
 Frequencies --   1037.7884              1073.1085              1171.0258
 Red. masses --      1.2986                 1.8623                 1.5641
 Frc consts  --      0.8241                 1.2635                 1.2637
 IR Inten    --      0.2556                42.0052               107.9058

                     19                     20                     21
                      A                      A                      A
 Frequencies --   1211.8579              1239.3508              1305.5173
 Red. masses --      1.4167                 3.1859                 1.8825
 Frc consts  --      1.2258                 2.8832                 1.8904
 IR Inten    --      1.9444                 6.6672               126.8689

                     22                     23                     24
                      A                      A                      A
 Frequencies --   1409.1978              1437.7870              1468.4419
 Red. masses --      1.7920                 1.7067                 1.0469
 Frc consts  --      2.0967                 2.0787                 1.3301
 IR Inten    --     14.9754                16.1934                 6.0451

                     25                     26                     27
                      A                      A                      A
 Frequencies --   1501.0955              1607.6405              1645.2775
 Red. masses --      1.0658                 1.2185                 1.1719
 Frc consts  --      1.4150                 1.8555                 1.8691
 IR Inten    --      4.1303                65.6738                13.2644

                     28                     29                     30
                      A                      A                      A
 Frequencies --   1780.2876              2983.9253              3019.4845
 Red. masses --      4.2051                 1.0384                 1.0999
 Frc consts  --      7.8525                 5.4473                 5.9086
 IR Inten    --    208.5077                67.4804                39.7271

                     31                     32                     33
                      A                      A                      A
 Frequencies --   3059.7588              3449.2367              3504.8108
 Red. masses --      1.0953                 1.0480                 1.0919
 Frc consts  --      6.0416                 7.3459                 7.9023
 IR Inten    --     50.7670                 6.5118                 0.0697

                     34                     35                     36
                      A                      A                      A
 Frequencies --   3529.0640              3637.4769              3846.4122
 Red. masses --      1.0460                 1.0974                 1.0648
 Frc consts  --      7.6754                 8.5552                 9.2822
 IR Inten    --     13.4645                24.6364                31.0812

 - Thermochemistry -
 -------------------
 Temperature   298.150 Kelvin.  Pressure   1.00000 Atm.
 Atom     1 has atomic number  6 and mass  12.00000

 Molecular mass:    88.06366 amu.
 Principal axes and moments of inertia in atomic units:
                           1         2         3
     Eigenvalues --   369.85503 555.55896 901.47223
           X            0.99650   0.08302   0.00923
           Y           -0.08305   0.99654   0.00235
           Z           -0.00901  -0.00311   0.99995
 This molecule is an asymmetric top.
 Rotational symmetry number  1.
 Rotational temperatures (Kelvin)      0.23418     0.15590     0.09608
 Rotational constants (GHZ):           4.87959     3.24851     2.00199
 Zero-point vibrational energy     312710.5 (Joules/Mol)
                                   74.73960 (Kcal/Mol)
 Warning -- explicit consideration of  10 degrees of freedom as
           vibrations may cause significant error
 Vibrational temperatures:    167.04   244.94   354.97   402.72   479.11
          (Kelvin)            497.70   546.01   602.08   726.33   790.88
                              917.63  1072.98  1131.70  1257.10  1401.89
                             1493.14  1543.96  1684.84  1743.59  1783.15
                             1878.35  2027.52  2068.65  2112.76  2159.74
                             2313.03  2367.18  2561.43  4293.20  4344.36
                             4402.30  4962.68  5042.63  5077.53  5233.51
                             5534.12

 Zero-point correction=                           0.119105 (Hartree/Particle)
 Thermal correction to Energy=                    0.126536
 Thermal correction to Enthalpy=                  0.127480
 Thermal correction to Gibbs Free Energy=         0.088520
 Sum of electronic and zero-point Energies=           -303.745242
 Sum of electronic and thermal Energies=              -303.737812
 Sum of electronic and thermal Enthalpies=            -303.736867
 Sum of electronic and thermal Free Energies=         -303.775827

                     E (Thermal)             CV                S
                      KCal/Mol        Cal/Mol-Kelvin    Cal/Mol-Kelvin
 Total                   79.402             26.953             81.998
 Electronic               0.000              0.000              0.000
 Translational            0.889              2.981             39.339
 Rotational               0.889              2.981             26.718
 Vibrational             77.625             20.991             15.940
 Vibration     1          0.608              1.936              3.164
 Vibration     2          0.625              1.879              2.433
 Vibration     3          0.661              1.768              1.754
 Vibration     4          0.680              1.711              1.534
 Vibration     5          0.715              1.610              1.246
 Vibration     6          0.724              1.584              1.185
 Vibration     7          0.749              1.514              1.041
 Vibration     8          0.781              1.430              0.897
 Vibration     9          0.860              1.239              0.646
 Vibration    10          0.905              1.140              0.545

 Optimization completed.
    -- Stationary point found.
 Normal termination of Gaussian 09 at Fri Aug 26 12:16:31 2022.

 -----------------------------------------------------------------
 #P Geom=AllCheck Guess=TCheck SCRF=Check CCSD(T,E4T,FrzG4)/GTBas1
 -----------------------------------------------------------------

 Structure from the checkpoint file:  "G4.Frag_765.chk"
 --------
 Frag_765
 --------
 Charge =  0 Multiplicity = 1

 SCF Done:  E(RHF) =  -301.982014960     A.U. after   12 cycles
 E2 =    -0.8921095791D+00 EUMP2 =    -0.30287412453877D+03
 CCSD(T)
 CCSD(T)= -0.30294901169D+03
 Q=-302.9209181\CCSD=-302.9212872\CCSD(T)=-302.9490117\RMSD=6.105e-09\P
 Normal termination of Gaussian 09 at Fri Aug 26 12:18:28 2022.

 ---------------------------------------------------------
 #P Geom=AllCheck Guess=TCheck SCRF=Check MP4=FrzG4/GTBas2
 ---------------------------------------------------------

 Structure from the checkpoint file:  "G4.Frag_765.chk"
 --------
 Frag_765
 --------
 Charge =  0 Multiplicity = 1

 SCF Done:  E(RHF) =  -301.993191039     A.U. after   12 cycles
 E2 =    -0.9069848396D+00 EUMP2 =    -0.30290017587861D+03
 Normal termination of Gaussian 09 at Fri Aug 26 12:19:05 2022.

 ---------------------------------------------------------
 #P Geom=AllCheck Guess=TCheck SCRF=Check MP4=FrzG4/GTBas3
 ---------------------------------------------------------

 Structure from the checkpoint file:  "G4.Frag_765.chk"
 --------
 Frag_765
 --------
 Charge =  0 Multiplicity = 1

 SCF Done:  E(RHF) =  -302.028876397     A.U. after   11 cycles
 E2 =    -0.1094524011D+01 EUMP2 =    -0.30312340040806D+03
 Normal termination of Gaussian 09 at Fri Aug 26 12:22:27 2022.

 -----------------------------------------------------------
 #P Geom=AllCheck Guess=TCheck SCRF=Check MP2=Full/GTLargeXP
 -----------------------------------------------------------

 Structure from the checkpoint file:  "G4.Frag_765.chk"
 --------
 Frag_765
 --------
 Charge =  0 Multiplicity = 1

 SCF Done:  E(RHF) =  -302.109322982     A.U. after   12 cycles
 E2 =    -0.1433642874D+01 EUMP2 =    -0.30354296585587D+03
 Normal termination of Gaussian 09 at Fri Aug 26 12:24:27 2022.
 SCF Done:  E(RHF) =  -302.133597774     A.U. after    9 cycles
 Normal termination of Gaussian 09 at Fri Aug 26 12:26:24 2022.

                         Standard orientation:
 ---------------------------------------------------------------------
 Center     Atomic      Atomic             Coordinates (Angstroms)
 Number     Number       Type             X           Y           Z
 ---------------------------------------------------------------------
      1          6           0       -1.620290   -1.073206   -0.032835
      2          6           0       -0.636740    0.063494    0.017882
      3          7           0       -1.142058    1.413422    0.050569
      4          6           0        0.705354   -0.074133   -0.007709
      5          7           0        1.591760    0.985829   -0.118475
      6          8           0        1.379420   -1.259399    0.009563
      7          1           0       -1.153847   -2.060081   -0.142703
      8          1           0       -2.247656   -1.118467    0.869937
      9          1           0       -2.307923   -0.967658   -0.884902
     10          1           0       -1.640075    1.643143   -0.807515
     11          1           0       -1.817250    1.529163    0.803126
     12          1           0        2.425928    0.861777    0.440442
     13          1           0        1.114751    1.860574    0.062134
     14          1           0        0.752852   -1.964944    0.194282
 ---------------------------------------------------------------------

 SCF Done:  E(RHF) =  -302.138783319     A.U. after    8 cycles

 The electronic state is 1-A.
 Alpha  occ. eigenvalues --  -20.58516 -15.54947 -15.54525 -11.31866 -11.22797
 Alpha  occ. eigenvalues --  -11.22643  -1.41054  -1.20924  -1.16627  -1.00310
 Alpha  occ. eigenvalues --   -0.91022  -0.80092  -0.68842  -0.67138  -0.65248
 Alpha  occ. eigenvalues --   -0.62495  -0.59435  -0.57210  -0.56085  -0.55450
 Alpha  occ. eigenvalues --   -0.53507  -0.45103  -0.40808  -0.29489
 Alpha virt. eigenvalues --    0.03579   0.04705   0.04733   0.05808   0.06535
 Alpha virt. eigenvalues --    0.07380   0.07856   0.08807   0.09011   0.10243
 Alpha virt. eigenvalues --    0.11738   0.12559   0.13246   0.13476   0.13618

 Mulliken charges:
               1
     1  C   -0.498230
     2  C    0.042317
     3  N   -0.756125
     4  C    0.383808
     5  N   -0.697543
     6  O   -0.573001
     7  H    0.138569
     8  H    0.168637
     9  H    0.165329
    10  H    0.294050
    11  H    0.289343
    12  H    0.314132
    13  H    0.344282
    14  H    0.384430
 Sum of Mulliken charges =  -0.00000

 Dipole moment (field-independent basis, Debye):
    X=             -1.8671    Y=             -0.4244    Z=              1.1446  Tot=              2.2308
 Quadrupole moment (field-independent basis, Debye-Ang):
   XX=            -35.6886   YY=            -34.3176   ZZ=            -38.1441
   XY=              0.6937   XZ=              3.0135   YZ=              0.1348

 Normal termination of Gaussian 09 at Fri Aug 26 12:33:23 2022.
