 Gaussian 09, Revision E.01,
 Gaussian 09:  ES64L-G09RevE.01 30-Nov-2015

 -----
 #P G4
 -----

 --------
 Frag_942
 --------
 Symbolic Z-matrix:
 Charge =  0 Multiplicity = 1

 SCF Done:  E(RB3LYP) =  -383.711053209     A.U. after   12 cycles
 SCF Done:  E(RB3LYP) =  -383.720174827     A.U. after   11 cycles
 SCF Done:  E(RB3LYP) =  -383.721065630     A.U. after   10 cycles
 SCF Done:  E(RB3LYP) =  -383.721268607     A.U. after   10 cycles
 SCF Done:  E(RB3LYP) =  -383.721346516     A.U. after   10 cycles
 SCF Done:  E(RB3LYP) =  -383.721426776     A.U. after   10 cycles
 SCF Done:  E(RB3LYP) =  -383.721504317     A.U. after   10 cycles
 SCF Done:  E(RB3LYP) =  -383.721524817     A.U. after    9 cycles
 SCF Done:  E(RB3LYP) =  -383.721530281     A.U. after    7 cycles
 SCF Done:  E(RB3LYP) =  -383.721531159     A.U. after    7 cycles
 SCF Done:  E(RB3LYP) =  -383.721531316     A.U. after    6 cycles
 SCF Done:  E(RB3LYP) =  -383.721531420     A.U. after    6 cycles
 Optimization completed.
    -- Stationary point found.
 Normal termination of Gaussian 09 at Fri Aug 26 05:25:40 2022.

 ----------------------------------------------------------
 #P Geom=AllCheck Guess=TCheck SCRF=Check B3LYP/GTBas3 Freq
 ----------------------------------------------------------

 Structure from the checkpoint file:  "G4.Frag_942.chk"
 --------
 Frag_942
 --------
 Charge =  0 Multiplicity = 1

 SCF Done:  E(RB3LYP) =  -383.721531420     A.U. after    1 cycles

  Exact polarizability:  77.333  -0.368  71.127   0.656  -0.502  71.604
 Approx polarizability: 104.756  -0.290 101.397  -1.830  -0.561 104.522

                      1                      2                      3
                      A                      A                      A
 Frequencies --     73.0399               192.4556               212.8317
 Red. masses --      2.7573                 1.0799                 1.1068
 Frc consts  --      0.0087                 0.0236                 0.0295
 IR Inten    --      0.7443                16.5477                 4.1041

                      4                      5                      6
                      A                      A                      A
 Frequencies --    224.7845               256.7042               269.5174
 Red. masses --      1.1145                 1.1537                 1.7260
 Frc consts  --      0.0332                 0.0448                 0.0739
 IR Inten    --     18.6708                 4.4922                 3.7772

                      7                      8                      9
                      A                      A                      A
 Frequencies --    276.4886               280.6750               336.9454
 Red. masses --      1.6074                 2.0150                 2.1933
 Frc consts  --      0.0724                 0.0935                 0.1467
 IR Inten    --      3.3619                 4.3860                13.2337

                     10                     11                     12
                      A                      A                      A
 Frequencies --    355.7230               363.4069               398.5838
 Red. masses --      2.6070                 2.6073                 1.5465
 Frc consts  --      0.1944                 0.2029                 0.1448
 IR Inten    --      0.7628                 0.3370                49.1213

                     13                     14                     15
                      A                      A                      A
 Frequencies --    418.4385               465.2153               525.0715
 Red. masses --      2.5707                 1.8537                 3.0062
 Frc consts  --      0.2652                 0.2364                 0.4883
 IR Inten    --      5.5052                43.1283                 0.6514

                     16                     17                     18
                      A                      A                      A
 Frequencies --    535.8636               553.1772               691.6924
 Red. masses --      2.6778                 3.2705                 3.3117
 Frc consts  --      0.4530                 0.5896                 0.9335
 IR Inten    --     10.8330                29.2665                 8.6323

                     19                     20                     21
                      A                      A                      A
 Frequencies --    830.4315               838.1356               871.7313
 Red. masses --      1.4072                 2.3273                 1.8249
 Frc consts  --      0.5718                 0.9633                 0.8171
 IR Inten    --    243.1429                35.6516                25.3263

                     22                     23                     24
                      A                      A                      A
 Frequencies --    936.3095               940.9915               959.9705
 Red. masses --      1.6319                 1.6725                 2.0492
 Frc consts  --      0.8429                 0.8725                 1.1127
 IR Inten    --      1.5274                 2.4301                48.1699

                     25                     26                     27
                      A                      A                      A
 Frequencies --    961.6758              1009.6544              1036.3799
 Red. masses --      1.3444                 1.9636                 1.4408
 Frc consts  --      0.7326                 1.1794                 0.9118
 IR Inten    --      7.7699                19.8092                 6.5445

                     28                     29                     30
                      A                      A                      A
 Frequencies --   1063.1829              1109.7164              1212.1668
 Red. masses --      1.6882                 1.5014                 1.9779
 Frc consts  --      1.1243                 1.0893                 1.7123
 IR Inten    --     41.8432                44.0297                47.7823

                     31                     32                     33
                      A                      A                      A
 Frequencies --   1238.4007              1252.3205              1276.7979
 Red. masses --      2.4491                 2.6577                 2.7437
 Frc consts  --      2.2129                 2.4557                 2.6353
 IR Inten    --     10.4176                 2.7609                17.0761

                     34                     35                     36
                      A                      A                      A
 Frequencies --   1357.3254              1374.5863              1394.3679
 Red. masses --      1.5549                 1.7255                 1.3061
 Frc consts  --      1.6878                 1.9210                 1.4962
 IR Inten    --     56.3248                44.4491                 2.3793

                     37                     38                     39
                      A                      A                      A
 Frequencies --   1397.2543              1430.9420              1474.8251
 Red. masses --      1.2506                 1.2664                 1.0493
 Frc consts  --      1.4386                 1.5278                 1.3448
 IR Inten    --      8.7472                19.1576                 0.0625

                     40                     41                     42
                      A                      A                      A
 Frequencies --   1488.3226              1492.2246              1501.2142
 Red. masses --      1.0480                 1.0470                 1.0520
 Frc consts  --      1.3678                 1.3736                 1.3969
 IR Inten    --      0.3234                 0.7896                 3.0082

                     43                     44                     45
                      A                      A                      A
 Frequencies --   1509.9601              1526.6367              1631.5207
 Red. masses --      1.0535                 1.0636                 1.1096
 Frc consts  --      1.4152                 1.4605                 1.7402
 IR Inten    --      2.0291                15.8843                25.6885

                     46                     47                     48
                      A                      A                      A
 Frequencies --   1642.9348              3025.2662              3035.2946
 Red. masses --      1.0990                 1.0370                 1.0366
 Frc consts  --      1.7477                 5.5920                 5.6269
 IR Inten    --     51.0945                31.4918                19.2256

                     49                     50                     51
                      A                      A                      A
 Frequencies --   3044.4684              3086.4530              3095.6667
 Red. masses --      1.0397                 1.0978                 1.1004
 Frc consts  --      5.6781                 6.1618                 6.2134
 IR Inten    --     25.8329                27.8784                27.8732

                     52                     53                     54
                      A                      A                      A
 Frequencies --   3105.6467              3116.8962              3120.5635
 Red. masses --      1.1008                 1.0961                 1.1002
 Frc consts  --      6.2557                 6.2740                 6.3122
 IR Inten    --     18.0785                31.5812                25.8629

                     55                     56                     57
                      A                      A                      A
 Frequencies --   3139.8931              3491.9319              3503.6835
 Red. masses --      1.1015                 1.0500                 1.0490
 Frc consts  --      6.3983                 7.5431                 7.5870
 IR Inten    --     16.2989                 0.2167                 1.0373

                     58                     59                     60
                      A                      A                      A
 Frequencies --   3579.7388              3594.6897              3824.3859
 Red. masses --      1.0913                 1.0925                 1.0651
 Frc consts  --      8.2392                 8.3179                 9.1785
 IR Inten    --      0.6816                 1.7250                32.5880

 - Thermochemistry -
 -------------------
 Temperature   298.150 Kelvin.  Pressure   1.00000 Atm.
 Atom     1 has atomic number  6 and mass  12.00000

 Molecular mass:   118.11061 amu.
 Principal axes and moments of inertia in atomic units:
                           1         2         3
     Eigenvalues --   740.250521032.270451048.26893
           X            0.99927   0.00235   0.03802
           Y            0.00588   0.97665  -0.21475
           Z           -0.03764   0.21482   0.97593
 This molecule is an asymmetric top.
 Rotational symmetry number  1.
 Warning -- assumption of classical behavior for rotation
           may cause significant error
 Rotational temperatures (Kelvin)      0.11701     0.08391     0.08263
 Rotational constants (GHZ):           2.43801     1.74832     1.72164
 Zero-point vibrational energy     520107.4 (Joules/Mol)
                                  124.30866 (Kcal/Mol)
 Warning -- explicit consideration of  17 degrees of freedom as
           vibrations may cause significant error
 Vibrational temperatures:    105.09   276.90   306.22   323.41   369.34
          (Kelvin)            387.77   397.80   403.83   484.79   511.81
                              522.86   573.47   602.04   669.34   755.46
                              770.99   795.90   995.19  1194.80  1205.89
                             1254.23  1347.14  1353.88  1381.18  1383.64
                             1452.67  1491.12  1529.68  1596.63  1744.04
                             1781.78  1801.81  1837.03  1952.89  1977.72
                             2006.18  2010.33  2058.80  2121.94  2141.36
                             2146.98  2159.91  2172.49  2196.49  2347.39
                             2363.81  4352.68  4367.11  4380.31  4440.71
                             4453.97  4468.33  4484.51  4489.79  4517.60
                             5024.10  5041.01  5150.44  5171.95  5502.43

 Zero-point correction=                           0.198098 (Hartree/Particle)
 Thermal correction to Energy=                    0.208455
 Thermal correction to Enthalpy=                  0.209399
 Thermal correction to Gibbs Free Energy=         0.164412
 Sum of electronic and zero-point Energies=           -383.523433
 Sum of electronic and thermal Energies=              -383.513076
 Sum of electronic and thermal Enthalpies=            -383.512132
 Sum of electronic and thermal Free Energies=         -383.557119

                     E (Thermal)             CV                S
                      KCal/Mol        Cal/Mol-Kelvin    Cal/Mol-Kelvin
 Total                  130.807             40.166             94.682
 Electronic               0.000              0.000              0.000
 Translational            0.889              2.981             40.214
 Rotational               0.889              2.981             28.173
 Vibrational            129.030             34.204             26.295
 Vibration     1          0.599              1.967              4.070
 Vibration     2          0.634              1.850              2.204
 Vibration     3          0.644              1.821              2.019
 Vibration     4          0.649              1.803              1.920
 Vibration     5          0.666              1.751              1.684
 Vibration     6          0.674              1.729              1.599
 Vibration     7          0.678              1.717              1.555
 Vibration     8          0.680              1.709              1.530
 Vibration     9          0.718              1.602              1.227
 Vibration    10          0.731              1.564              1.141
 Vibration    11          0.737              1.548              1.107
 Vibration    12          0.765              1.473              0.968
 Vibration    13          0.781              1.430              0.897
 Vibration    14          0.823              1.327              0.751
 Vibration    15          0.880              1.194              0.598
 Vibration    16          0.891              1.171              0.574
 Vibration    17          0.909              1.133              0.538

 Normal termination of Gaussian 09 at Fri Aug 26 05:27:10 2022.

 -----------------------------------------------------------------
 #P Geom=AllCheck Guess=TCheck SCRF=Check CCSD(T,E4T,FrzG4)/GTBas1
 -----------------------------------------------------------------

 Structure from the checkpoint file:  "G4.Frag_942.chk"
 --------
 Frag_942
 --------
 Charge =  0 Multiplicity = 1

 SCF Done:  E(RHF) =  -381.234658108     A.U. after   12 cycles
 E2 =    -0.1176973806D+01 EUMP2 =    -0.38241163191439D+03
 CCSD(T)
 CCSD(T)= -0.38252392207D+03
 \MP4SDQ=-382.4869679\CCSD=-382.4879553\CCSD(T)=-382.5239221\RMSD=3.117
 Normal termination of Gaussian 09 at Fri Aug 26 05:37:20 2022.

 ---------------------------------------------------------
 #P Geom=AllCheck Guess=TCheck SCRF=Check MP4=FrzG4/GTBas2
 ---------------------------------------------------------

 Structure from the checkpoint file:  "G4.Frag_942.chk"
 --------
 Frag_942
 --------
 Charge =  0 Multiplicity = 1

 SCF Done:  E(RHF) =  -381.245905241     A.U. after   12 cycles
 E2 =    -0.1196734484D+01 EUMP2 =    -0.38244263972524D+03
 Normal termination of Gaussian 09 at Fri Aug 26 05:40:54 2022.

 ---------------------------------------------------------
 #P Geom=AllCheck Guess=TCheck SCRF=Check MP4=FrzG4/GTBas3
 ---------------------------------------------------------

 Structure from the checkpoint file:  "G4.Frag_942.chk"
 --------
 Frag_942
 --------
 Charge =  0 Multiplicity = 1

 SCF Done:  E(RHF) =  -381.291119048     A.U. after   10 cycles
 E2 =    -0.1461573009D+01 EUMP2 =    -0.38275269205766D+03
 Normal termination of Gaussian 09 at Fri Aug 26 06:13:26 2022.

 -----------------------------------------------------------
 #P Geom=AllCheck Guess=TCheck SCRF=Check MP2=Full/GTLargeXP
 -----------------------------------------------------------

 Structure from the checkpoint file:  "G4.Frag_942.chk"
 --------
 Frag_942
 --------
 Charge =  0 Multiplicity = 1

 SCF Done:  E(RHF) =  -381.385019030     A.U. after   11 cycles
 E2 =    -0.1909024946D+01 EUMP2 =    -0.38329404397579D+03
 Normal termination of Gaussian 09 at Fri Aug 26 06:21:59 2022.
 SCF Done:  E(RHF) =  -381.414688522     A.U. after    8 cycles
 Normal termination of Gaussian 09 at Fri Aug 26 06:24:58 2022.

                         Standard orientation:
 ---------------------------------------------------------------------
 Center     Atomic      Atomic             Coordinates (Angstroms)
 Number     Number       Type             X           Y           Z
 ---------------------------------------------------------------------
      1          6           0        1.318059    0.461354   -1.376577
      2          6           0        0.780613    0.006859   -0.004576
      3          6           0        1.280515    0.987694    1.072174
      4          6           0        1.320347   -1.401194    0.312162
      5          6           0       -0.790685    0.001888    0.007920
      6          7           0       -1.298464   -1.054559   -0.876418
      7          7           0       -1.293989    1.351250   -0.256212
      8          8           0       -1.291044   -0.291922    1.301239
      9          1           0        2.412088    0.498681   -1.352188
     10          1           0        1.046567   -0.222855   -2.189116
     11          1           0        0.965368    1.464677   -1.633356
     12          1           0        0.902819    0.704000    2.056979
     13          1           0        2.375301    0.980289    1.105293
     14          1           0        0.941021    2.003649    0.862529
     15          1           0        2.415157   -1.385721    0.332452
     16          1           0        0.983570   -1.740973    1.296959
     17          1           0        1.001721   -2.140785   -0.426231
     18          1           0       -0.877075   -0.997279   -1.797559
     19          1           0       -2.298930   -0.921142   -0.997462
     20          1           0       -2.250201    1.400101    0.082420
     21          1           0       -1.309527    1.529087   -1.254043
     22          1           0       -1.285458   -1.252801    1.365206
 ---------------------------------------------------------------------

 SCF Done:  E(RHF) =  -381.421245087     A.U. after    8 cycles

 The electronic state is 1-A.
 Alpha  occ. eigenvalues --  -20.55256 -15.54861 -15.53849 -11.34083 -11.23374
 Alpha  occ. eigenvalues --  -11.21623 -11.20673 -11.19428  -1.38317  -1.20363
 Alpha  occ. eigenvalues --   -1.13487  -1.08094  -0.93092  -0.91920  -0.86180
 Alpha  occ. eigenvalues --   -0.75213  -0.69928  -0.68134  -0.64821  -0.62435
 Alpha  occ. eigenvalues --   -0.59867  -0.58095  -0.58037  -0.55372  -0.53395
 Alpha  occ. eigenvalues --   -0.52463  -0.50899  -0.50290  -0.47233  -0.45806
 Alpha  occ. eigenvalues --   -0.45593  -0.42434  -0.38502
 Alpha virt. eigenvalues --    0.02895   0.04000   0.04175   0.04620   0.06293
 Alpha virt. eigenvalues --    0.06363   0.06428   0.07219   0.07467   0.09379
 Alpha virt. eigenvalues --    0.09590   0.09823   0.10130   0.11073   0.11337

 Mulliken charges:
               1
     1  C   -0.631347
     2  C    0.439539
     3  C   -0.627991
     4  C   -0.624548
     5  C    0.499160
     6  N   -0.787619
     7  N   -0.779332
     8  O   -0.639496
     9  H    0.176583
    10  H    0.152938
    11  H    0.175782
    12  H    0.186999
    13  H    0.161443
    14  H    0.192902
    15  H    0.170822
    16  H    0.158860
    17  H    0.181327
    18  H    0.303111
    19  H    0.298416
    20  H    0.305975
    21  H    0.293018
    22  H    0.393458
 Sum of Mulliken charges =  -0.00000

 Dipole moment (field-independent basis, Debye):
    X=             -0.6116    Y=             -0.7078    Z=             -2.3530  Tot=              2.5322
 Quadrupole moment (field-independent basis, Debye-Ang):
   XX=            -48.4656   YY=            -55.1677   ZZ=            -50.9181
   XY=             -0.2076   XZ=              3.1487   YZ=             -3.0036

 CCSD(T)/G3Bas1=-382.5239221\MP2/GTBas2=-382.4426397\MP4/GTBas2=-382.55
 Normal termination of Gaussian 09 at Fri Aug 26 06:47:53 2022.
