 Gaussian 09, Revision E.01,
 Gaussian 09:  ES64L-G09RevE.01 30-Nov-2015

 -----
 #P G4
 -----

 --------
 Frag_908
 --------
 Symbolic Z-matrix:
 Charge =  0 Multiplicity = 1

 SCF Done:  E(RB3LYP) =  -231.194688998     A.U. after   12 cycles
 SCF Done:  E(RB3LYP) =  -231.196556240     A.U. after   12 cycles
 SCF Done:  E(RB3LYP) =  -231.191391001     A.U. after   14 cycles
 SCF Done:  E(RB3LYP) =  -231.196926232     A.U. after   10 cycles
 SCF Done:  E(RB3LYP) =  -231.196369753     A.U. after   11 cycles
 SCF Done:  E(RB3LYP) =  -231.197067550     A.U. after    9 cycles
 SCF Done:  E(RB3LYP) =  -231.197202598     A.U. after    9 cycles
 SCF Done:  E(RB3LYP) =  -231.197178610     A.U. after   10 cycles
 SCF Done:  E(RB3LYP) =  -231.197248384     A.U. after   10 cycles
 SCF Done:  E(RB3LYP) =  -231.197267225     A.U. after   10 cycles
 SCF Done:  E(RB3LYP) =  -231.197273580     A.U. after    9 cycles
 SCF Done:  E(RB3LYP) =  -231.197276033     A.U. after    8 cycles
 SCF Done:  E(RB3LYP) =  -231.197276655     A.U. after    7 cycles
 Optimization completed.
    -- Stationary point found.
 Normal termination of Gaussian 09 at Fri Aug 26 09:07:38 2022.

 ----------------------------------------------------------
 #P Geom=AllCheck Guess=TCheck SCRF=Check B3LYP/GTBas3 Freq
 ----------------------------------------------------------

 Structure from the checkpoint file:  "G4.Frag_908.chk"
 --------
 Frag_908
 --------
 Charge =  0 Multiplicity = 1

 SCF Done:  E(RB3LYP) =  -231.197276655     A.U. after    1 cycles

  Exact polarizability:  60.136   0.647  36.778  -3.285   0.935  35.184
 Approx polarizability:  91.738   5.047  50.456  -8.904   1.270  52.005

                      1                      2                      3
                      A                      A                      A
 Frequencies --    182.9733               209.6221               258.0851
 Red. masses --      3.1038                 1.8364                 1.1466
 Frc consts  --      0.0612                 0.0475                 0.0450
 IR Inten    --      2.3218                 8.5621                14.7010

                      4                      5                      6
                      A                      A                      A
 Frequencies --    292.2461               391.7942               546.6217
 Red. masses --      1.3770                 3.3839                 4.1874
 Frc consts  --      0.0693                 0.3060                 0.7372
 IR Inten    --     78.3586                10.0675                11.3220

                      7                      8                      9
                      A                      A                      A
 Frequencies --    573.5942               632.2661               671.9831
 Red. masses --      4.5046                 1.2229                 1.2497
 Frc consts  --      0.8732                 0.2880                 0.3325
 IR Inten    --      8.8094                45.9328                36.5398

                     10                     11                     12
                      A                      A                      A
 Frequencies --    800.6145               930.0744              1037.9803
 Red. masses --      2.8734                 2.0863                 1.7624
 Frc consts  --      1.0851                 1.0633                 1.1188
 IR Inten    --      7.9002                 9.1259                63.2936

                     13                     14                     15
                      A                      A                      A
 Frequencies --   1090.5262              1126.9999              1283.1920
 Red. masses --      2.9256                 1.8890                 1.3535
 Frc consts  --      2.0499                 1.4136                 1.3131
 IR Inten    --     18.1028                69.6672                 7.6914

                     16                     17                     18
                      A                      A                      A
 Frequencies --   1336.8692              1399.2716              1417.6294
 Red. masses --      1.3415                 1.2375                 1.1837
 Frc consts  --      1.4126                 1.4276                 1.4016
 IR Inten    --     13.6683                 4.7477                59.2230

                     19                     20                     21
                      A                      A                      A
 Frequencies --   1487.9655              1490.8169              2231.7217
 Red. masses --      1.0511                 1.0553                 5.9015
 Frc consts  --      1.3711                 1.3818                17.3177
 IR Inten    --      7.1286                 0.0996                 1.0321

                     22                     23                     24
                      A                      A                      A
 Frequencies --   3038.7754              3042.5945              3115.5920
 Red. masses --      1.0510                 1.0655                 1.1015
 Frc consts  --      5.7182                 5.8117                 6.2998
 IR Inten    --      8.8430                17.3076                24.4798

                     25                     26                     27
                      A                      A                      A
 Frequencies --   3128.6647              3503.3050              3804.2026
 Red. masses --      1.1031                 1.1625                 1.0661
 Frc consts  --      6.3621                 8.4060                 9.0904
 IR Inten    --     18.9716                59.0739                19.9576

 - Thermochemistry -
 -------------------
 Temperature   298.150 Kelvin.  Pressure   1.00000 Atm.
 Atom     1 has atomic number  6 and mass  12.00000

 Molecular mass:    70.04186 amu.
 Principal axes and moments of inertia in atomic units:
                           1         2         3
     Eigenvalues --   210.84989 462.83502 618.35987
           X            0.99861  -0.05274  -0.00210
           Y            0.05276   0.99859   0.00645
           Z            0.00176  -0.00656   0.99998
 This molecule is an asymmetric top.
 Rotational symmetry number  1.
 Rotational temperatures (Kelvin)      0.41078     0.18714     0.14007
 Rotational constants (GHZ):           8.55937     3.89932     2.91859
 Zero-point vibrational energy     233427.2 (Joules/Mol)
                                   55.79044 (Kcal/Mol)
 Warning -- explicit consideration of   7 degrees of freedom as
           vibrations may cause significant error
 Vibrational temperatures:    263.26   301.60   371.33   420.48   563.70
          (Kelvin)            786.47   825.27   909.69   966.83  1151.90
                             1338.17  1493.42  1569.02  1621.50  1846.22
                             1923.45  2013.24  2039.65  2140.85  2144.95
                             3210.95  4372.11  4377.61  4482.64  4501.45
                             5040.47  5473.39

 Zero-point correction=                           0.088908 (Hartree/Particle)
 Thermal correction to Energy=                    0.094984
 Thermal correction to Enthalpy=                  0.095928
 Thermal correction to Gibbs Free Energy=         0.060215
 Sum of electronic and zero-point Energies=           -231.108369
 Sum of electronic and thermal Energies=              -231.102293
 Sum of electronic and thermal Enthalpies=            -231.101348
 Sum of electronic and thermal Free Energies=         -231.137062

                     E (Thermal)             CV                S
                      KCal/Mol        Cal/Mol-Kelvin    Cal/Mol-Kelvin
 Total                   59.603             21.307             75.165
 Electronic               0.000              0.000              0.000
 Translational            0.889              2.981             38.657
 Rotational               0.889              2.981             25.604
 Vibrational             57.826             15.345             10.905
 Vibration     1          0.630              1.863              2.298
 Vibration     2          0.642              1.826              2.047
 Vibration     3          0.667              1.749              1.675
 Vibration     4          0.688              1.688              1.461
 Vibration     5          0.759              1.488              0.993
 Vibration     6          0.902              1.147              0.551
 Vibration     7          0.930              1.088              0.497

 Optimization completed.
    -- Stationary point found.
 Normal termination of Gaussian 09 at Fri Aug 26 09:07:57 2022.

 -----------------------------------------------------------------
 #P Geom=AllCheck Guess=TCheck SCRF=Check CCSD(T,E4T,FrzG4)/GTBas1
 -----------------------------------------------------------------

 Structure from the checkpoint file:  "G4.Frag_908.chk"
 --------
 Frag_908
 --------
 Charge =  0 Multiplicity = 1

 SCF Done:  E(RHF) =  -229.744405834     A.U. after   13 cycles
 E2 =    -0.6870740511D+00 EUMP2 =    -0.23043147988498D+03
 CCSD(T)
 CCSD(T)= -0.23049413270D+03
 7953\MP4SDQ=-230.4694938\CCSD=-230.4698516\CCSD(T)=-230.4941327\RMSD=6
 Normal termination of Gaussian 09 at Fri Aug 26 09:08:42 2022.

 ---------------------------------------------------------
 #P Geom=AllCheck Guess=TCheck SCRF=Check MP4=FrzG4/GTBas2
 ---------------------------------------------------------

 Structure from the checkpoint file:  "G4.Frag_908.chk"
 --------
 Frag_908
 --------
 Charge =  0 Multiplicity = 1

 SCF Done:  E(RHF) =  -229.753803474     A.U. after   13 cycles
 E2 =    -0.6954435300D+00 EUMP2 =    -0.23044924700363D+03
 Normal termination of Gaussian 09 at Fri Aug 26 09:08:56 2022.

 ---------------------------------------------------------
 #P Geom=AllCheck Guess=TCheck SCRF=Check MP4=FrzG4/GTBas3
 ---------------------------------------------------------

 Structure from the checkpoint file:  "G4.Frag_908.chk"
 --------
 Frag_908
 --------
 Charge =  0 Multiplicity = 1

 SCF Done:  E(RHF) =  -229.775622449     A.U. after   12 cycles
 E2 =    -0.8396736199D+00 EUMP2 =    -0.23061529606849D+03
 Normal termination of Gaussian 09 at Fri Aug 26 09:10:05 2022.

 -----------------------------------------------------------
 #P Geom=AllCheck Guess=TCheck SCRF=Check MP2=Full/GTLargeXP
 -----------------------------------------------------------

 Structure from the checkpoint file:  "G4.Frag_908.chk"
 --------
 Frag_908
 --------
 Charge =  0 Multiplicity = 1

 SCF Done:  E(RHF) =  -229.834750444     A.U. after   13 cycles
 E2 =    -0.1109217808D+01 EUMP2 =    -0.23094396825154D+03
 Normal termination of Gaussian 09 at Fri Aug 26 09:10:50 2022.
 SCF Done:  E(RHF) =  -229.853308538     A.U. after    9 cycles
 Normal termination of Gaussian 09 at Fri Aug 26 09:11:45 2022.

                         Standard orientation:
 ---------------------------------------------------------------------
 Center     Atomic      Atomic             Coordinates (Angstroms)
 Number     Number       Type             X           Y           Z
 ---------------------------------------------------------------------
      1          6           0        2.195149    0.113004   -0.115001
      2          6           0        1.023095    0.032296    0.140477
      3          6           0       -0.418482   -0.069155    0.395389
      4          6           0       -1.173575    1.145925   -0.161521
      5          8           0       -0.953267   -1.294388   -0.098152
      6          1           0        3.235036    0.177525   -0.321318
      7          1           0       -0.580667   -0.117815    1.478901
      8          1           0       -0.815872    2.071796    0.298147
      9          1           0       -1.026871    1.224641   -1.243520
     10          1           0       -2.241408    1.033059    0.042537
     11          1           0       -0.701202   -1.366520   -1.025587
 ---------------------------------------------------------------------

 SCF Done:  E(RHF) =  -229.857091309     A.U. after    8 cycles

 The electronic state is 1-A.
 Alpha  occ. eigenvalues --  -20.56573 -11.31418 -11.23836 -11.23230 -11.22924
 Alpha  occ. eigenvalues --   -1.37348  -1.06815  -1.00093  -0.87817  -0.75185
 Alpha  occ. eigenvalues --   -0.69813  -0.64594  -0.62116  -0.56926  -0.54198
 Alpha  occ. eigenvalues --   -0.51672  -0.47140  -0.40278  -0.39482
 Alpha virt. eigenvalues --    0.03581   0.04035   0.04896   0.05516   0.06552
 Alpha virt. eigenvalues --    0.07103   0.07394   0.08098   0.08739   0.09773
 Alpha virt. eigenvalues --    0.10451   0.10865   0.13378   0.13956   0.14645

 Mulliken charges:
               1
     1  C   -0.468888
     2  C    0.115345
     3  C    0.086387
     4  C   -0.514930
     5  O   -0.554179
     6  H    0.246158
     7  H    0.191019
     8  H    0.179980
     9  H    0.168630
    10  H    0.187748
    11  H    0.362729
 Sum of Mulliken charges =  -0.00000

 Dipole moment (field-independent basis, Debye):
    X=              0.4790    Y=              1.3066    Z=             -0.8292  Tot=              1.6199
 Quadrupole moment (field-independent basis, Debye-Ang):
   XX=            -27.8073   YY=            -33.7127   ZZ=            -28.8709
   XY=             -1.7728   XZ=             -0.7668   YZ=              2.0279

 Normal termination of Gaussian 09 at Fri Aug 26 09:17:00 2022.
