 Gaussian 09, Revision E.01,
 Gaussian 09:  ES64L-G09RevE.01 30-Nov-2015

 -----
 #P G4
 -----

 --------
 Frag_684
 --------
 Symbolic Z-matrix:
 Charge =  0 Multiplicity = 1

 SCF Done:  E(RB3LYP) =  -228.468618762     A.U. after   14 cycles
 SCF Done:  E(RB3LYP) =  -228.541429995     A.U. after   13 cycles
 SCF Done:  E(RB3LYP) =  -228.573406320     A.U. after   13 cycles
 SCF Done:  E(RB3LYP) =  -228.578127600     A.U. after   12 cycles
 SCF Done:  E(RB3LYP) =  -228.579030713     A.U. after   12 cycles
 SCF Done:  E(RB3LYP) =  -228.579185484     A.U. after   11 cycles
 SCF Done:  E(RB3LYP) =  -228.579197459     A.U. after    8 cycles
 SCF Done:  E(RB3LYP) =  -228.579202222     A.U. after    7 cycles
 SCF Done:  E(RB3LYP) =  -228.579164945     A.U. after   12 cycles
 SCF Done:  E(RB3LYP) =  -228.579267113     A.U. after   10 cycles
 SCF Done:  E(RB3LYP) =  -228.580371208     A.U. after    9 cycles
 SCF Done:  E(RB3LYP) =  -228.580371730     A.U. after    8 cycles
 SCF Done:  E(RB3LYP) =  -228.580371755     A.U. after    7 cycles
 Optimization completed.
    -- Stationary point found.
 Normal termination of Gaussian 09 at Tue Aug 30 11:28:12 2022.

 ----------------------------------------------------------
 #P Geom=AllCheck Guess=TCheck SCRF=Check B3LYP/GTBas3 Freq
 ----------------------------------------------------------

 Structure from the checkpoint file:  "G4.Frag_684.chk"
 --------
 Frag_684
 --------
 Charge =  0 Multiplicity = 1

 SCF Done:  E(RB3LYP) =  -228.580371755     A.U. after    1 cycles

  Exact polarizability:  64.199   6.252  57.137   0.001  -0.000  33.165
 Approx polarizability:  92.635  27.942 109.534   0.003   0.002  48.823

                      1                      2                      3
                      A                      A                      A
 Frequencies --     78.1027               169.8206               223.2846
 Red. masses --      1.1020                 1.2961                 1.6226
 Frc consts  --      0.0040                 0.0220                 0.0477
 IR Inten    --      2.0724                 1.4982                 1.5262

                      4                      5                      6
                      A                      A                      A
 Frequencies --    289.5053               468.0021               546.3726
 Red. masses --      2.7908                 2.9586                 1.3454
 Frc consts  --      0.1378                 0.3818                 0.2366
 IR Inten    --      3.6020                 8.4081                39.1862

                      7                      8                      9
                      A                      A                      A
 Frequencies --    564.5053               606.6031               712.5912
 Red. masses --      1.6933                 3.1218                 1.4641
 Frc consts  --      0.3179                 0.6768                 0.4380
 IR Inten    --     20.7831                17.0560                23.2474

                     10                     11                     12
                      A                      A                      A
 Frequencies --    869.7796              1039.6688              1044.9979
 Red. masses --      2.2784                 1.3918                 2.4916
 Frc consts  --      1.0155                 0.8864                 1.6031
 IR Inten    --      0.2773                 0.0000                 5.8086

                     13                     14                     15
                      A                      A                      A
 Frequencies --   1115.0224              1143.6142              1151.9814
 Red. masses --      1.5268                 2.1898                 1.3893
 Frc consts  --      1.1184                 1.6873                 1.0863
 IR Inten    --      6.9850                15.9785                 0.1723

                     16                     17                     18
                      A                      A                      A
 Frequencies --   1204.4788              1391.4746              1416.1973
 Red. masses --      2.0586                 1.2714                 1.3652
 Frc consts  --      1.7596                 1.4504                 1.6133
 IR Inten    --     70.9340                36.6483                 3.7586

                     19                     20                     21
                      A                      A                      A
 Frequencies --   1451.0831              1464.2638              1469.4079
 Red. masses --      1.2170                 1.0423                 1.0421
 Frc consts  --      1.5098                 1.3167                 1.3257
 IR Inten    --      9.8558                 9.1913                 5.8939

                     22                     23                     24
                      A                      A                      A
 Frequencies --   1477.8322              1500.6470              1521.7419
 Red. masses --      1.2298                 1.0756                 1.5688
 Frc consts  --      1.5825                 1.4271                 2.1405
 IR Inten    --     12.5519                12.4297                14.7005

                     25                     26                     27
                      A                      A                      A
 Frequencies --   1623.6806              2979.3360              3011.7591
 Red. masses --      4.0828                 1.0424                 1.0986
 Frc consts  --      6.3417                 5.4514                 5.8711
 IR Inten    --    106.4815                28.8489                28.3193

                     28                     29                     30
                      A                      A                      A
 Frequencies --   3075.2080              3123.6046              3157.0730
 Red. masses --      1.0310                 1.0928                 1.1041
 Frc consts  --      5.7447                 6.2819                 6.4841
 IR Inten    --     17.6081                11.7744                 5.4056

                     31                     32                     33
                      A                      A                      A
 Frequencies --   3173.7143              3245.5067              3443.6113
 Red. masses --      1.1061                 1.0904                 1.0722
 Frc consts  --      6.5640                 6.7673                 7.4916
 IR Inten    --      8.0147                 5.2598                11.6209

 - Thermochemistry -
 -------------------
 Temperature   298.150 Kelvin.  Pressure   1.00000 Atm.
 Atom     1 has atomic number  6 and mass  12.00000

 Molecular mass:    72.06875 amu.
 Principal axes and moments of inertia in atomic units:
                           1         2         3
     Eigenvalues --   178.99342 466.95608 623.43483
           X            0.99912  -0.04200  -0.00000
           Y            0.04200   0.99912  -0.00001
           Z            0.00000   0.00001   1.00000
 This molecule is an asymmetric top.
 Rotational symmetry number  1.
 Rotational temperatures (Kelvin)      0.48389     0.18549     0.13893
 Rotational constants (GHZ):          10.08272     3.86491     2.89484
 Zero-point vibrational energy     297597.8 (Joules/Mol)
                                   71.12759 (Kcal/Mol)
 Warning -- explicit consideration of   8 degrees of freedom as
           vibrations may cause significant error
 Vibrational temperatures:    112.37   244.33   321.26   416.53   673.35
          (Kelvin)            786.11   812.20   872.77  1025.26  1251.42
                             1495.85  1503.52  1604.27  1645.40  1657.44
                             1732.97  2002.02  2037.59  2087.78  2106.75
                             2114.15  2126.27  2159.09  2189.44  2336.11
                             4286.59  4333.24  4424.53  4494.16  4542.32
                             4566.26  4669.55  4954.58

 Zero-point correction=                           0.113349 (Hartree/Particle)
 Thermal correction to Energy=                    0.119667
 Thermal correction to Enthalpy=                  0.120611
 Thermal correction to Gibbs Free Energy=         0.083949
 Sum of electronic and zero-point Energies=           -228.467023
 Sum of electronic and thermal Energies=              -228.460705
 Sum of electronic and thermal Enthalpies=            -228.459761
 Sum of electronic and thermal Free Energies=         -228.496422

                     E (Thermal)             CV                S
                      KCal/Mol        Cal/Mol-Kelvin    Cal/Mol-Kelvin
 Total                   75.092             21.606             77.160
 Electronic               0.000              0.000              0.000
 Translational            0.889              2.981             38.742
 Rotational               0.889              2.981             25.458
 Vibrational             73.314             15.644             12.961
 Vibration     1          0.599              1.964              3.938
 Vibration     2          0.625              1.880              2.437
 Vibration     3          0.649              1.806              1.932
 Vibration     4          0.686              1.693              1.477
 Vibration     5          0.825              1.321              0.743
 Vibration     6          0.902              1.148              0.552
 Vibration     7          0.920              1.108              0.515
 Vibration     8          0.965              1.018              0.438

 Optimization completed.
    -- Stationary point found.
 Normal termination of Gaussian 09 at Tue Aug 30 11:28:35 2022.

 -----------------------------------------------------------------
 #P Geom=AllCheck Guess=TCheck SCRF=Check CCSD(T,E4T,FrzG4)/GTBas1
 -----------------------------------------------------------------

 Structure from the checkpoint file:  "G4.Frag_684.chk"
 --------
 Frag_684
 --------
 Charge =  0 Multiplicity = 1

 SCF Done:  E(RHF) =  -227.046981341     A.U. after   13 cycles
 E2 =    -0.7400454064D+00 EUMP2 =    -0.22778702674750D+03
 CCSD(T)
 CCSD(T)= -0.22785636623D+03
 Q=-227.8578587\MP4SDQ=-227.8271057\CCSD=-227.8269325\CCSD(T)=-227.8563
 Normal termination of Gaussian 09 at Tue Aug 30 11:29:40 2022.

 ---------------------------------------------------------
 #P Geom=AllCheck Guess=TCheck SCRF=Check MP4=FrzG4/GTBas2
 ---------------------------------------------------------

 Structure from the checkpoint file:  "G4.Frag_684.chk"
 --------
 Frag_684
 --------
 Charge =  0 Multiplicity = 1

 SCF Done:  E(RHF) =  -227.056593278     A.U. after   13 cycles
 E2 =    -0.7489572210D+00 EUMP2 =    -0.22780555049857D+03
 Normal termination of Gaussian 09 at Tue Aug 30 11:29:57 2022.

 ---------------------------------------------------------
 #P Geom=AllCheck Guess=TCheck SCRF=Check MP4=FrzG4/GTBas3
 ---------------------------------------------------------

 Structure from the checkpoint file:  "G4.Frag_684.chk"
 --------
 Frag_684
 --------
 Charge =  0 Multiplicity = 1

 SCF Done:  E(RHF) =  -227.077651624     A.U. after   12 cycles
 E2 =    -0.9013337017D+00 EUMP2 =    -0.22797898532588D+03
 Normal termination of Gaussian 09 at Tue Aug 30 11:31:28 2022.

 -----------------------------------------------------------
 #P Geom=AllCheck Guess=TCheck SCRF=Check MP2=Full/GTLargeXP
 -----------------------------------------------------------

 Structure from the checkpoint file:  "G4.Frag_684.chk"
 --------
 Frag_684
 --------
 Charge =  0 Multiplicity = 1

 SCF Done:  E(RHF) =  -227.135832712     A.U. after   13 cycles
 E2 =    -0.1173804263D+01 EUMP2 =    -0.22830963697473D+03
 Normal termination of Gaussian 09 at Tue Aug 30 11:32:31 2022.
 SCF Done:  E(RHF) =  -227.153672407     A.U. after   10 cycles
 Normal termination of Gaussian 09 at Tue Aug 30 11:33:49 2022.

                         Standard orientation:
 ---------------------------------------------------------------------
 Center     Atomic      Atomic             Coordinates (Angstroms)
 Number     Number       Type             X           Y           Z
 ---------------------------------------------------------------------
      1          6           0       -1.991433   -0.116353    0.000006
      2          6           0       -0.625541   -0.704311   -0.000048
      3          7           0        0.440639    0.075004    0.000056
      4          6           0        1.770627   -0.555340   -0.000010
      5          7           0        0.524672    1.385555    0.000019
      6          1           0       -2.167421    0.518827   -0.881972
      7          1           0       -2.745384   -0.906113    0.000154
      8          1           0       -2.167170    0.518984    0.881922
      9          1           0       -0.456264   -1.769716    0.000023
     10          1           0        2.307578   -0.214694    0.885990
     11          1           0        1.676400   -1.640270    0.001170
     12          1           0        2.306721   -0.216568   -0.887275
     13          1           0       -0.433552    1.741659   -0.000227
 ---------------------------------------------------------------------

 SCF Done:  E(RHF) =  -227.157460902     A.U. after    8 cycles

 The electronic state is 1-A.
 Alpha  occ. eigenvalues --  -15.69354 -15.52327 -11.27210 -11.26690 -11.23765
 Alpha  occ. eigenvalues --   -1.35861  -1.07666  -1.03111  -0.93593  -0.77829
 Alpha  occ. eigenvalues --   -0.70632  -0.65578  -0.64810  -0.57749  -0.57747
 Alpha  occ. eigenvalues --   -0.55458  -0.53209  -0.49674  -0.42913  -0.27978
 Alpha virt. eigenvalues --    0.03401   0.03615   0.04871   0.04976   0.06715
 Alpha virt. eigenvalues --    0.07029   0.07171   0.08873   0.09278   0.10050
 Alpha virt. eigenvalues --    0.10598   0.12074   0.13948   0.14222   0.14442

 Mulliken charges:
               1
     1  C   -0.531413
     2  C   -0.217590
     3  N    0.276995
     4  C   -0.436436
     5  N   -0.750143
     6  H    0.191659
     7  H    0.182711
     8  H    0.191687
     9  H    0.213911
    10  H    0.214609
    11  H    0.187709
    12  H    0.214490
    13  H    0.261813
 Sum of Mulliken charges =  -0.00000

 Dipole moment (field-independent basis, Debye):
    X=             -1.0309    Y=             -3.2676    Z=             -0.0002  Tot=              3.4264
 Quadrupole moment (field-independent basis, Debye-Ang):
   XX=            -28.2878   YY=            -35.0143   ZZ=            -34.0186
   XY=             -4.5925   XZ=              0.0004   YZ=             -0.0008

 Normal termination of Gaussian 09 at Tue Aug 30 11:38:34 2022.
