 Gaussian 09, Revision E.01,
 Gaussian 09:  ES64L-G09RevE.01 30-Nov-2015

 -----
 #P G4
 -----

 --------
 Frag_861
 --------
 Symbolic Z-matrix:
 Charge =  0 Multiplicity = 1

 SCF Done:  E(RB3LYP) =  -319.798593226     A.U. after   14 cycles
 SCF Done:  E(RB3LYP) =  -319.816858888     A.U. after   13 cycles
 SCF Done:  E(RB3LYP) =  -319.823605830     A.U. after   12 cycles
 SCF Done:  E(RB3LYP) =  -319.830476937     A.U. after   13 cycles
 SCF Done:  E(RB3LYP) =  -319.835283603     A.U. after   13 cycles
 SCF Done:  E(RB3LYP) =  -319.838724516     A.U. after   13 cycles
 SCF Done:  E(RB3LYP) =  -319.840191514     A.U. after   12 cycles
 SCF Done:  E(RB3LYP) =  -319.840669799     A.U. after   11 cycles
 SCF Done:  E(RB3LYP) =  -319.840740190     A.U. after   10 cycles
 SCF Done:  E(RB3LYP) =  -319.840765559     A.U. after   10 cycles
 SCF Done:  E(RB3LYP) =  -319.840786957     A.U. after    7 cycles
 SCF Done:  E(RB3LYP) =  -319.840787132     A.U. after    7 cycles
 SCF Done:  E(RB3LYP) =  -319.840787181     A.U. after    7 cycles
 Optimization completed.
    -- Stationary point found.
 Normal termination of Gaussian 09 at Fri Aug 26 12:28:22 2022.

 ----------------------------------------------------------
 #P Geom=AllCheck Guess=TCheck SCRF=Check B3LYP/GTBas3 Freq
 ----------------------------------------------------------

 Structure from the checkpoint file:  "G4.Frag_861.chk"
 --------
 Frag_861
 --------
 Charge =  0 Multiplicity = 1

 SCF Done:  E(RB3LYP) =  -319.840787181     A.U. after    1 cycles

  Exact polarizability:  57.932  -5.066  56.572   0.532  -1.158  33.711
 Approx polarizability:  79.910 -10.082  87.709   3.774  -4.086  51.994

                      1                      2                      3
                      A                      A                      A
 Frequencies --    119.4250               128.5140               270.9198
 Red. masses --      1.0935                 3.6554                 2.7601
 Frc consts  --      0.0092                 0.0356                 0.1194
 IR Inten    --      0.4620                 3.9841                19.8996

                      4                      5                      6
                      A                      A                      A
 Frequencies --    317.1151               415.7966               426.8220
 Red. masses --      3.1116                 1.2660                 3.5229
 Frc consts  --      0.1844                 0.1290                 0.3781
 IR Inten    --     29.7902                10.3857                15.0386

                      7                      8                      9
                      A                      A                      A
 Frequencies --    461.7816               507.0977               601.4634
 Red. masses --      1.5935                 1.8176                 3.8467
 Frc consts  --      0.2002                 0.2754                 0.8199
 IR Inten    --     61.4047                32.8404                10.7273

                     10                     11                     12
                      A                      A                      A
 Frequencies --    610.9361               755.0651               820.0585
 Red. masses --      2.7246                 5.2000                 1.1689
 Frc consts  --      0.5992                 1.7467                 0.4631
 IR Inten    --     30.8218                22.6325                32.6591

                     13                     14                     15
                      A                      A                      A
 Frequencies --    949.4775               972.3609              1061.8927
 Red. masses --      1.7609                 2.9390                 1.7255
 Frc consts  --      0.9353                 1.6372                 1.1464
 IR Inten    --     92.0560                28.1907                22.6285

                     16                     17                     18
                      A                      A                      A
 Frequencies --   1070.1997              1092.5198              1233.3262
 Red. masses --      2.0395                 1.8256                 1.9688
 Frc consts  --      1.3763                 1.2838                 1.7644
 IR Inten    --     19.6856               113.3421                17.3822

                     19                     20                     21
                      A                      A                      A
 Frequencies --   1341.5227              1399.4937              1428.7091
 Red. masses --      1.1953                 1.2640                 2.1630
 Frc consts  --      1.2674                 1.4586                 2.6014
 IR Inten    --     22.1305                 3.3986                75.0814

                     22                     23                     24
                      A                      A                      A
 Frequencies --   1470.2708              1478.6451              1520.5367
 Red. masses --      1.1156                 1.0988                 1.3679
 Frc consts  --      1.4209                 1.4155                 1.8634
 IR Inten    --     17.9210                20.9068               119.8096

                     25                     26                     27
                      A                      A                      A
 Frequencies --   1691.1994              1708.7607              3055.2024
 Red. masses --      2.6941                 1.4844                 1.0359
 Frc consts  --      4.5400                 2.5537                 5.6971
 IR Inten    --     85.7298                70.1804                 6.4106

                     28                     29                     30
                      A                      A                      A
 Frequencies --   3123.1303              3144.5765              3407.1662
 Red. masses --      1.0993                 1.1028                 1.0554
 Frc consts  --      6.3178                 6.4247                 7.2187
 IR Inten    --      8.4210                10.7155                 7.1146

                     31                     32                     33
                      A                      A                      A
 Frequencies --   3450.4411              3538.5194              3538.9542
 Red. masses --      1.0646                 1.0805                 1.0806
 Frc consts  --      7.4680                 7.9711                 7.9739
 IR Inten    --    115.7254                 0.4860                10.2330

 - Thermochemistry -
 -------------------
 Temperature   298.150 Kelvin.  Pressure   1.00000 Atm.
 Atom     1 has atomic number  6 and mass  12.00000

 Molecular mass:    89.05891 amu.
 Principal axes and moments of inertia in atomic units:
                           1         2         3
     Eigenvalues --   356.69221 497.40133 812.55734
           X            0.99997   0.00280  -0.00745
           Y           -0.00281   0.99999  -0.00209
           Z            0.00744   0.00212   0.99997
 This molecule is an asymmetric top.
 Rotational symmetry number  1.
 Rotational temperatures (Kelvin)      0.24283     0.17413     0.10659
 Rotational constants (GHZ):           5.05966     3.62834     2.22106
 Zero-point vibrational energy     281791.7 (Joules/Mol)
                                   67.34984 (Kcal/Mol)
 Warning -- explicit consideration of  10 degrees of freedom as
           vibrations may cause significant error
 Vibrational temperatures:    171.83   184.90   389.79   456.26   598.24
          (Kelvin)            614.10   664.40   729.60   865.37   879.00
                             1086.37  1179.88  1366.08  1399.01  1527.82
                             1539.78  1571.89  1774.48  1930.15  2013.56
                             2055.59  2115.39  2127.44  2187.71  2433.26
                             2458.52  4395.75  4493.48  4524.34  4902.15
                             4964.41  5091.13  5091.76

 Zero-point correction=                           0.107329 (Hartree/Particle)
 Thermal correction to Energy=                    0.114154
 Thermal correction to Enthalpy=                  0.115098
 Thermal correction to Gibbs Free Energy=         0.077137
 Sum of electronic and zero-point Energies=           -319.733458
 Sum of electronic and thermal Energies=              -319.726633
 Sum of electronic and thermal Enthalpies=            -319.725689
 Sum of electronic and thermal Free Energies=         -319.763650

                     E (Thermal)             CV                S
                      KCal/Mol        Cal/Mol-Kelvin    Cal/Mol-Kelvin
 Total                   71.633             24.561             79.896
 Electronic               0.000              0.000              0.000
 Translational            0.889              2.981             39.373
 Rotational               0.889              2.981             26.469
 Vibrational             69.855             18.599             14.054
 Vibration     1          0.609              1.933              3.110
 Vibration     2          0.611              1.925              2.968
 Vibration     3          0.675              1.727              1.590
 Vibration     4          0.704              1.641              1.325
 Vibration     5          0.779              1.436              0.906
 Vibration     6          0.788              1.412              0.869
 Vibration     7          0.820              1.335              0.761
 Vibration     8          0.862              1.234              0.641
 Vibration     9          0.960              1.029              0.447
 Vibration    10          0.970              1.009              0.431

 Optimization completed.
    -- Stationary point found.
 Normal termination of Gaussian 09 at Fri Aug 26 12:28:52 2022.

 -----------------------------------------------------------------
 #P Geom=AllCheck Guess=TCheck SCRF=Check CCSD(T,E4T,FrzG4)/GTBas1
 -----------------------------------------------------------------

 Structure from the checkpoint file:  "G4.Frag_861.chk"
 --------
 Frag_861
 --------
 Charge =  0 Multiplicity = 1

 SCF Done:  E(RHF) =  -317.907688973     A.U. after   13 cycles
 E2 =    -0.9306708837D+00 EUMP2 =    -0.31883835985676D+03
 CCSD(T)
 CCSD(T)= -0.31891146835D+03
 4\MP4SDTQ=-318.9126623\MP4SDQ=-318.8805034\CCSD=-318.8804724\CCSD(T)=-
 Normal termination of Gaussian 09 at Fri Aug 26 12:30:55 2022.

 ---------------------------------------------------------
 #P Geom=AllCheck Guess=TCheck SCRF=Check MP4=FrzG4/GTBas2
 ---------------------------------------------------------

 Structure from the checkpoint file:  "G4.Frag_861.chk"
 --------
 Frag_861
 --------
 Charge =  0 Multiplicity = 1

 SCF Done:  E(RHF) =  -317.919446208     A.U. after   12 cycles
 E2 =    -0.9460182889D+00 EUMP2 =    -0.31886546449713D+03
 Normal termination of Gaussian 09 at Fri Aug 26 12:31:31 2022.

 ---------------------------------------------------------
 #P Geom=AllCheck Guess=TCheck SCRF=Check MP4=FrzG4/GTBas3
 ---------------------------------------------------------

 Structure from the checkpoint file:  "G4.Frag_861.chk"
 --------
 Frag_861
 --------
 Charge =  0 Multiplicity = 1

 SCF Done:  E(RHF) =  -317.951829365     A.U. after   12 cycles
 E2 =    -0.1132124033D+01 EUMP2 =    -0.31908395339859D+03
 Normal termination of Gaussian 09 at Fri Aug 26 12:34:54 2022.

 -----------------------------------------------------------
 #P Geom=AllCheck Guess=TCheck SCRF=Check MP2=Full/GTLargeXP
 -----------------------------------------------------------

 Structure from the checkpoint file:  "G4.Frag_861.chk"
 --------
 Frag_861
 --------
 Charge =  0 Multiplicity = 1

 SCF Done:  E(RHF) =  -318.038007765     A.U. after   12 cycles
 E2 =    -0.1474885746D+01 EUMP2 =    -0.31951289351146D+03
 Normal termination of Gaussian 09 at Fri Aug 26 12:36:49 2022.
 SCF Done:  E(RHF) =  -318.063798925     A.U. after    9 cycles
 Normal termination of Gaussian 09 at Fri Aug 26 12:38:33 2022.

                         Standard orientation:
 ---------------------------------------------------------------------
 Center     Atomic      Atomic             Coordinates (Angstroms)
 Number     Number       Type             X           Y           Z
 ---------------------------------------------------------------------
      1          6           0        1.667995    0.947033   -0.070682
      2          6           0        0.694753   -0.201300   -0.043028
      3          7           0        0.950369   -1.438656    0.163121
      4          7           0       -0.631211    0.120531   -0.332349
      5          7           0       -1.100305    1.318842    0.207038
      6          8           0       -1.519583   -0.958140   -0.076140
      7          1           0        2.686938    0.566247   -0.168620
      8          1           0        1.596306    1.532675    0.850451
      9          1           0        1.450704    1.625056   -0.898022
     10          1           0        1.943846   -1.612434    0.279596
     11          1           0       -1.445635    1.140222    1.153255
     12          1           0       -1.898155    1.606847   -0.351472
     13          1           0       -0.885792   -1.672908    0.161524
 ---------------------------------------------------------------------

 SCF Done:  E(RHF) =  -318.069155325     A.U. after    8 cycles

 The electronic state is 1-A.
 Alpha  occ. eigenvalues --  -20.57923 -15.65179 -15.59574 -15.54376 -11.33040
 Alpha  occ. eigenvalues --  -11.24456  -1.43505  -1.25027  -1.21778  -1.03966
 Alpha  occ. eigenvalues --   -0.98195  -0.79744  -0.71003  -0.70466  -0.67898
 Alpha  occ. eigenvalues --   -0.64191  -0.59564  -0.59044  -0.56357  -0.53651
 Alpha  occ. eigenvalues --   -0.46513  -0.45742  -0.43413  -0.37181
 Alpha virt. eigenvalues --    0.03310   0.04766   0.05104   0.05556   0.07420
 Alpha virt. eigenvalues --    0.07751   0.07974   0.08671   0.08873   0.11679
 Alpha virt. eigenvalues --    0.11970   0.12808   0.13483   0.14121   0.14248

 Mulliken charges:
               1
     1  C   -0.497083
     2  C    0.381811
     3  N   -0.752811
     4  N    0.073894
     5  N   -0.590471
     6  O   -0.540433
     7  H    0.179961
     8  H    0.197609
     9  H    0.209670
    10  H    0.298093
    11  H    0.296944
    12  H    0.322841
    13  H    0.419975
 Sum of Mulliken charges =  -0.00000

 Dipole moment (field-independent basis, Debye):
    X=              1.6293    Y=              2.1050    Z=              0.9479  Tot=              2.8257
 Quadrupole moment (field-independent basis, Debye-Ang):
   XX=            -32.1561   YY=            -38.3556   ZZ=            -36.7556
   XY=             -3.3189   XZ=             -1.0288   YZ=             -0.4363

 Normal termination of Gaussian 09 at Fri Aug 26 12:45:13 2022.
