 Gaussian 09, Revision E.01,
 Gaussian 09:  ES64L-G09RevE.01 30-Nov-2015

 -----
 #P G4
 -----

 --------
 Frag_826
 --------
 Symbolic Z-matrix:
 Charge =  0 Multiplicity = 1

 SCF Done:  E(RB3LYP) =  -245.076826808     A.U. after   14 cycles
 SCF Done:  E(RB3LYP) =  -245.109197683     A.U. after   11 cycles
 SCF Done:  E(RB3LYP) =  -245.111975207     A.U. after   12 cycles
 SCF Done:  E(RB3LYP) =  -245.113615087     A.U. after   11 cycles
 SCF Done:  E(RB3LYP) =  -245.113705220     A.U. after   10 cycles
 SCF Done:  E(RB3LYP) =  -245.113742247     A.U. after   10 cycles
 SCF Done:  E(RB3LYP) =  -245.113761091     A.U. after    8 cycles
 SCF Done:  E(RB3LYP) =  -245.113770147     A.U. after    9 cycles
 SCF Done:  E(RB3LYP) =  -245.113773698     A.U. after    8 cycles
 SCF Done:  E(RB3LYP) =  -245.113774303     A.U. after    8 cycles
 SCF Done:  E(RB3LYP) =  -245.113774496     A.U. after    7 cycles
 Optimization completed.
    -- Stationary point found.
 Normal termination of Gaussian 09 at Tue Aug 30 12:29:49 2022.

 ----------------------------------------------------------
 #P Geom=AllCheck Guess=TCheck SCRF=Check B3LYP/GTBas3 Freq
 ----------------------------------------------------------

 Structure from the checkpoint file:  "G4.Frag_826.chk"
 --------
 Frag_826
 --------
 Charge =  0 Multiplicity = 1

 SCF Done:  E(RB3LYP) =  -245.113774496     A.U. after    1 cycles

  Exact polarizability:  35.660   2.058  24.764  -0.202   0.489  16.082
 Approx polarizability:  54.378   5.167  36.369   0.123  -0.165  23.493

                      1                      2                      3
                      A                      A                      A
 Frequencies --    287.5076               429.6765               541.0498
 Red. masses --      1.1654                 1.1945                 2.8370
 Frc consts  --      0.0568                 0.1299                 0.4893
 IR Inten    --    167.8113                91.2988                 8.1546

                      4                      5                      6
                      A                      A                      A
 Frequencies --    563.9106               689.8501               855.4497
 Red. masses --      3.7788                 4.8519                 1.1702
 Frc consts  --      0.7080                 1.3604                 0.5045
 IR Inten    --      5.2897                17.4140                74.1768

                      7                      8                      9
                      A                      A                      A
 Frequencies --    948.2091              1088.0019              1200.3662
 Red. masses --      8.8085                 1.8066                 1.2262
 Frc consts  --      4.6662                 1.2600                 1.0410
 IR Inten    --     64.9661               108.0666                59.4965

                     10                     11                     12
                      A                      A                      A
 Frequencies --   1256.6612              1375.0704              1820.4764
 Red. masses --      1.3074                 2.9906                 6.9429
 Frc consts  --      1.2164                 3.3316                13.5570
 IR Inten    --     79.0204               353.8934               273.7097

                     13                     14                     15
                      A                      A                      A
 Frequencies --   3528.4759              3787.4969              3809.1678
 Red. masses --      1.0747                 1.0659                 1.0652
 Frc consts  --      7.8830                 9.0090                 9.1062
 IR Inten    --      9.5710                28.6341                56.6619

 - Thermochemistry -
 -------------------
 Temperature   298.150 Kelvin.  Pressure   1.00000 Atm.
 Atom     1 has atomic number  7 and mass  14.00307

 Molecular mass:    61.01638 amu.
 Principal axes and moments of inertia in atomic units:
                           1         2         3
     Eigenvalues --   160.73753 167.10788 324.74317
           X            0.99985  -0.01517  -0.00862
           Y            0.01533   0.99971   0.01869
           Z            0.00833  -0.01882   0.99979
 This molecule is an asymmetric top.
 Rotational symmetry number  1.
 Rotational temperatures (Kelvin)      0.53885     0.51831     0.26671
 Rotational constants (GHZ):          11.22788    10.79986     5.55744
 Zero-point vibrational energy     132674.1 (Joules/Mol)
                                   31.70986 (Kcal/Mol)
 Warning -- explicit consideration of   4 degrees of freedom as
           vibrations may cause significant error
 Vibrational temperatures:    413.66   618.21   778.45   811.34   992.54
          (Kelvin)           1230.80  1364.26  1565.39  1727.06  1808.05
                             1978.42  2619.26  5076.68  5449.36  5480.54

 Zero-point correction=                           0.050533 (Hartree/Particle)
 Thermal correction to Energy=                    0.054751
 Thermal correction to Enthalpy=                  0.055695
 Thermal correction to Gibbs Free Energy=         0.024280
 Sum of electronic and zero-point Energies=           -245.063242
 Sum of electronic and thermal Energies=              -245.059024
 Sum of electronic and thermal Enthalpies=            -245.058080
 Sum of electronic and thermal Free Energies=         -245.089494

                     E (Thermal)             CV                S
                      KCal/Mol        Cal/Mol-Kelvin    Cal/Mol-Kelvin
 Total                   34.357             13.987             66.118
 Electronic               0.000              0.000              0.000
 Translational            0.889              2.981             38.245
 Rotational               0.889              2.981             23.682
 Vibrational             32.579              8.025              4.190
 Vibration     1          0.685              1.697              1.489
 Vibration     2          0.791              1.406              0.860
 Vibration     3          0.896              1.159              0.563
 Vibration     4          0.920              1.109              0.516

 Optimization completed.
    -- Stationary point found.
 Normal termination of Gaussian 09 at Tue Aug 30 12:30:04 2022.

 -----------------------------------------------------------------
 #P Geom=AllCheck Guess=TCheck SCRF=Check CCSD(T,E4T,FrzG4)/GTBas1
 -----------------------------------------------------------------

 Structure from the checkpoint file:  "G4.Frag_826.chk"
 --------
 Frag_826
 --------
 Charge =  0 Multiplicity = 1

 SCF Done:  E(RHF) =  -243.763611082     A.U. after   13 cycles
 E2 =    -0.6413888813D+00 EUMP2 =    -0.24440499996357D+03
 CCSD(T)
 CCSD(T)= -0.24444223908D+03
 \CCSD(T)=-244.4422391\RMSD=5.207e-09\PG=C01 [X(C1H3N1O2)]\\@
 Normal termination of Gaussian 09 at Tue Aug 30 12:30:24 2022.

 ---------------------------------------------------------
 #P Geom=AllCheck Guess=TCheck SCRF=Check MP4=FrzG4/GTBas2
 ---------------------------------------------------------

 Structure from the checkpoint file:  "G4.Frag_826.chk"
 --------
 Frag_826
 --------
 Charge =  0 Multiplicity = 1

 SCF Done:  E(RHF) =  -243.772532863     A.U. after   11 cycles
 E2 =    -0.6527354261D+00 EUMP2 =    -0.24442526828918D+03
 Normal termination of Gaussian 09 at Tue Aug 30 12:30:30 2022.

 ---------------------------------------------------------
 #P Geom=AllCheck Guess=TCheck SCRF=Check MP4=FrzG4/GTBas3
 ---------------------------------------------------------

 Structure from the checkpoint file:  "G4.Frag_826.chk"
 --------
 Frag_826
 --------
 Charge =  0 Multiplicity = 1

 SCF Done:  E(RHF) =  -243.801791275     A.U. after   11 cycles
 E2 =    -0.7845878217D+00 EUMP2 =    -0.24458637909623D+03
 Normal termination of Gaussian 09 at Tue Aug 30 12:30:52 2022.

 -----------------------------------------------------------
 #P Geom=AllCheck Guess=TCheck SCRF=Check MP2=Full/GTLargeXP
 -----------------------------------------------------------

 Structure from the checkpoint file:  "G4.Frag_826.chk"
 --------
 Frag_826
 --------
 Charge =  0 Multiplicity = 1

 SCF Done:  E(RHF) =  -243.873870606     A.U. after   12 cycles
 E2 =    -0.1022619667D+01 EUMP2 =    -0.24489649027312D+03
 Normal termination of Gaussian 09 at Tue Aug 30 12:31:06 2022.
 SCF Done:  E(RHF) =  -243.894062904     A.U. after    8 cycles
 Normal termination of Gaussian 09 at Tue Aug 30 12:31:22 2022.

                         Standard orientation:
 ---------------------------------------------------------------------
 Center     Atomic      Atomic             Coordinates (Angstroms)
 Number     Number       Type             X           Y           Z
 ---------------------------------------------------------------------
      1          7           0       -1.312028   -0.483870   -0.009877
      2          6           0       -0.128527   -0.062110   -0.001334
      3          8           0        0.232035    1.256018   -0.046566
      4          8           0        0.915639   -0.925475    0.053694
      5          1           0       -1.957242    0.300847    0.053054
      6          1           0        1.073136    1.377789    0.410595
      7          1           0        1.658073   -0.563237   -0.443532
 ---------------------------------------------------------------------

 SCF Done:  E(RHF) =  -243.898505378     A.U. after    8 cycles

 The electronic state is 1-A.
 Alpha  occ. eigenvalues --  -20.62376 -20.61803 -15.53737 -11.40424  -1.48696
 Alpha  occ. eigenvalues --   -1.39496  -1.20241  -0.85551  -0.80525  -0.70394
 Alpha  occ. eigenvalues --   -0.67592  -0.65039  -0.56236  -0.55650  -0.45851
 Alpha  occ. eigenvalues --   -0.41620
 Alpha virt. eigenvalues --    0.02908   0.05010   0.05452   0.06210   0.10624
 Alpha virt. eigenvalues --    0.10805   0.12104   0.12994   0.13328   0.14514
 Alpha virt. eigenvalues --    0.14736   0.15689   0.17118   0.19384   0.20634

 Mulliken charges:
               1
     1  N   -0.626249
     2  C    0.586577
     3  O   -0.532321
     4  O   -0.484829
     5  H    0.301524
     6  H    0.379830
     7  H    0.375468
 Sum of Mulliken charges =  -0.00000

 Dipole moment (field-independent basis, Debye):
    X=              3.2016    Y=              2.5410    Z=              0.0327  Tot=              4.0876
 Quadrupole moment (field-independent basis, Debye-Ang):
   XX=            -18.2476   YY=            -27.2513   ZZ=            -23.2472
   XY=             -0.8793   XZ=             -0.9143   YZ=              1.8764

 Normal termination of Gaussian 09 at Tue Aug 30 12:33:03 2022.
