 Gaussian 09, Revision E.01,
 Gaussian 09:  ES64L-G09RevE.01 30-Nov-2015

 -----
 #P G4
 -----

 --------
 Frag_770
 --------
 Symbolic Z-matrix:
 Charge =  0 Multiplicity = 1

 SCF Done:  E(RB3LYP) =  -343.179892941     A.U. after   13 cycles
 SCF Done:  E(RB3LYP) =  -343.187404210     A.U. after   13 cycles
 SCF Done:  E(RB3LYP) =  -343.188162912     A.U. after   12 cycles
 SCF Done:  E(RB3LYP) =  -343.188522183     A.U. after   12 cycles
 SCF Done:  E(RB3LYP) =  -343.188189875     A.U. after   13 cycles
 SCF Done:  E(RB3LYP) =  -343.188755738     A.U. after   10 cycles
 SCF Done:  E(RB3LYP) =  -343.189123642     A.U. after   10 cycles
 SCF Done:  E(RB3LYP) =  -343.185164470     A.U. after   14 cycles
 SCF Done:  E(RB3LYP) =  -343.190706395     A.U. after   13 cycles
 SCF Done:  E(RB3LYP) =  -343.191866856     A.U. after   13 cycles
 SCF Done:  E(RB3LYP) =  -343.195990364     A.U. after    7 cycles
 SCF Done:  E(RB3LYP) =  -343.195990669     A.U. after    7 cycles
 SCF Done:  E(RB3LYP) =  -343.195990747     A.U. after    6 cycles
 Optimization completed.
    -- Stationary point found.
 Normal termination of Gaussian 09 at Fri Aug 26 12:21:58 2022.

 ----------------------------------------------------------
 #P Geom=AllCheck Guess=TCheck SCRF=Check B3LYP/GTBas3 Freq
 ----------------------------------------------------------

 Structure from the checkpoint file:  "G4.Frag_770.chk"
 --------
 Frag_770
 --------
 Charge =  0 Multiplicity = 1

 SCF Done:  E(RB3LYP) =  -343.195990747     A.U. after    1 cycles

  Exact polarizability:  65.606   0.336  62.798  -0.578  -0.275  52.765
 Approx polarizability:  87.131  -4.527  97.508  -0.664  -0.180  75.538

                      1                      2                      3
                      A                      A                      A
 Frequencies --     63.3183               137.2045               222.5137
 Red. masses --      3.9938                 1.0290                 1.5839
 Frc consts  --      0.0094                 0.0114                 0.0462
 IR Inten    --      4.4096                 0.2173                 8.4313

                      4                      5                      6
                      A                      A                      A
 Frequencies --    236.2366               274.2809               283.3713
 Red. masses --      1.4520                 1.1964                 1.4978
 Frc consts  --      0.0477                 0.0530                 0.0709
 IR Inten    --      1.3990                34.8810                 4.6571

                      7                      8                      9
                      A                      A                      A
 Frequencies --    290.7224               355.7648               390.1697
 Red. masses --      1.6712                 2.5162                 4.0003
 Frc consts  --      0.0832                 0.1876                 0.3588
 IR Inten    --     27.3412                 1.3296                 1.6705

                     10                     11                     12
                      A                      A                      A
 Frequencies --    451.0117               491.9352               572.8029
 Red. masses --      2.5253                 2.9223                 3.7170
 Frc consts  --      0.3026                 0.4167                 0.7185
 IR Inten    --     19.3629                 8.9068                12.8761

                     13                     14                     15
                      A                      A                      A
 Frequencies --    613.0822               689.1695               844.3783
 Red. masses --      2.3649                 3.1226                 2.7142
 Frc consts  --      0.5237                 0.8738                 1.1401
 IR Inten    --      2.8441                10.0247                28.4490

                     16                     17                     18
                      A                      A                      A
 Frequencies --    887.8549               913.5909               971.8792
 Red. masses --      1.7506                 1.4036                 1.8450
 Frc consts  --      0.8131                 0.6903                 1.0267
 IR Inten    --    182.1192                65.5089                 8.5427

                     19                     20                     21
                      A                      A                      A
 Frequencies --    984.8778              1021.6865              1029.2507
 Red. masses --      1.5397                 1.4575                 1.7740
 Frc consts  --      0.8799                 0.8964                 1.1073
 IR Inten    --      9.4145                 4.4384                16.3405

                     22                     23                     24
                      A                      A                      A
 Frequencies --   1113.1874              1193.6483              1242.7525
 Red. masses --      1.8424                 2.1865                 3.5191
 Frc consts  --      1.3452                 1.8355                 3.2022
 IR Inten    --     26.4302                60.8385                39.9230

                     25                     26                     27
                      A                      A                      A
 Frequencies --   1264.2903              1375.6395              1385.6694
 Red. masses --      1.6862                 1.6800                 1.4012
 Frc consts  --      1.5881                 1.8732                 1.5852
 IR Inten    --     15.3535                 3.0889                25.1608

                     28                     29                     30
                      A                      A                      A
 Frequencies --   1395.4888              1449.9844              1464.5621
 Red. masses --      1.2455                 1.0571                 1.0562
 Frc consts  --      1.4291                 1.3095                 1.3348
 IR Inten    --      5.2245                16.4649                 7.3233

                     31                     32                     33
                      A                      A                      A
 Frequencies --   1486.6491              1497.7181              1629.2602
 Red. masses --      1.0507                 1.0795                 1.1149
 Frc consts  --      1.3682                 1.4266                 1.7436
 IR Inten    --      2.7054                 3.5096                65.2310

                     34                     35                     36
                      A                      A                      A
 Frequencies --   1668.2854              1805.9047              3026.4225
 Red. masses --      1.0923                 9.7123                 1.0390
 Frc consts  --      1.7911                18.6621                 5.6069
 IR Inten    --     28.2198               119.6953                17.7441

                     37                     38                     39
                      A                      A                      A
 Frequencies --   3052.9885              3097.5128              3117.3184
 Red. masses --      1.0359                 1.0963                 1.0953
 Frc consts  --      5.6886                 6.1971                 6.2708
 IR Inten    --      0.9603                22.2804                 6.7397

                     40                     41                     42
                      A                      A                      A
 Frequencies --   3128.5817              3156.8076              3479.2208
 Red. masses --      1.1023                 1.1055                 1.0492
 Frc consts  --      6.3569                 6.4910                 7.4831
 IR Inten    --     15.6829                12.9133                 4.8608

                     43                     44                     45
                      A                      A                      A
 Frequencies --   3481.2262              3553.8344              3566.5519
 Red. masses --      1.0483                 1.0915                 1.0927
 Frc consts  --      7.4855                 8.1224                 8.1892
 IR Inten    --      7.5324                 2.0806                 7.1801

 - Thermochemistry -
 -------------------
 Temperature   298.150 Kelvin.  Pressure   1.00000 Atm.
 Atom     1 has atomic number  6 and mass  12.00000

 Molecular mass:   102.07931 amu.
 Principal axes and moments of inertia in atomic units:
                           1         2         3
     Eigenvalues --   547.86326 758.72201 918.82839
           X            0.99497   0.09770  -0.02203
           Y           -0.09782   0.99520  -0.00412
           Z            0.02153   0.00625   0.99975
 This molecule is an asymmetric top.
 Rotational symmetry number  1.
 Warning -- assumption of classical behavior for rotation
           may cause significant error
 Rotational temperatures (Kelvin)      0.15809     0.11416     0.09427
 Rotational constants (GHZ):           3.29415     2.37866     1.96418
 Zero-point vibrational energy     384950.0 (Joules/Mol)
                                   92.00525 (Kcal/Mol)
 Warning -- explicit consideration of  13 degrees of freedom as
           vibrations may cause significant error
 Vibrational temperatures:     91.10   197.41   320.15   339.89   394.63
          (Kelvin)            407.71   418.28   511.87   561.37   648.90
                              707.78   824.13   882.09   991.56  1214.87
                             1277.42  1314.45  1398.32  1417.02  1469.98
                             1480.86  1601.63  1717.39  1788.04  1819.03
                             1979.24  1993.67  2007.79  2086.20  2107.18
                             2138.95  2154.88  2344.14  2400.29  2598.29
                             4354.34  4392.56  4456.62  4485.12  4501.33
                             4541.94  5005.82  5008.70  5113.17  5131.47

 Zero-point correction=                           0.146620 (Hartree/Particle)
 Thermal correction to Energy=                    0.155338
 Thermal correction to Enthalpy=                  0.156283
 Thermal correction to Gibbs Free Energy=         0.114134
 Sum of electronic and zero-point Energies=           -343.049371
 Sum of electronic and thermal Energies=              -343.040652
 Sum of electronic and thermal Enthalpies=            -343.039708
 Sum of electronic and thermal Free Energies=         -343.081856

                     E (Thermal)             CV                S
                      KCal/Mol        Cal/Mol-Kelvin    Cal/Mol-Kelvin
 Total                   97.476             31.864             88.708
 Electronic               0.000              0.000              0.000
 Translational            0.889              2.981             39.779
 Rotational               0.889              2.981             27.437
 Vibrational             95.699             25.903             21.492
 Vibration     1          0.597              1.972              4.351
 Vibration     2          0.614              1.916              2.842
 Vibration     3          0.648              1.807              1.939
 Vibration     4          0.655              1.785              1.831
 Vibration     5          0.677              1.721              1.569
 Vibration     6          0.682              1.704              1.513
 Vibration     7          0.687              1.691              1.470
 Vibration     8          0.731              1.563              1.141
 Vibration     9          0.758              1.491              0.999
 Vibration    10          0.810              1.359              0.793
 Vibration    11          0.848              1.268              0.679
 Vibration    12          0.929              1.090              0.499
 Vibration    13          0.972              1.004              0.428

 Optimization completed.
    -- Stationary point found.
 Normal termination of Gaussian 09 at Fri Aug 26 12:22:50 2022.

 -----------------------------------------------------------------
 #P Geom=AllCheck Guess=TCheck SCRF=Check CCSD(T,E4T,FrzG4)/GTBas1
 -----------------------------------------------------------------

 Structure from the checkpoint file:  "G4.Frag_770.chk"
 --------
 Frag_770
 --------
 Charge =  0 Multiplicity = 1

 SCF Done:  E(RHF) =  -341.042895052     A.U. after   12 cycles
 E2 =    -0.1026151915D+01 EUMP2 =    -0.34206904696752D+03
 CCSD(T)
 CCSD(T)= -0.34216002945D+03
 2.1276084\CCSD=-342.1267506\CCSD(T)=-342.1600294\RMSD=8.234e-09\PG=C01
 Normal termination of Gaussian 09 at Fri Aug 26 12:27:12 2022.

 ---------------------------------------------------------
 #P Geom=AllCheck Guess=TCheck SCRF=Check MP4=FrzG4/GTBas2
 ---------------------------------------------------------

 Structure from the checkpoint file:  "G4.Frag_770.chk"
 --------
 Frag_770
 --------
 Charge =  0 Multiplicity = 1

 SCF Done:  E(RHF) =  -341.054099588     A.U. after   13 cycles
 E2 =    -0.1042288373D+01 EUMP2 =    -0.34209638796170D+03
 Normal termination of Gaussian 09 at Fri Aug 26 12:28:34 2022.

 ---------------------------------------------------------
 #P Geom=AllCheck Guess=TCheck SCRF=Check MP4=FrzG4/GTBas3
 ---------------------------------------------------------

 Structure from the checkpoint file:  "G4.Frag_770.chk"
 --------
 Frag_770
 --------
 Charge =  0 Multiplicity = 1

 SCF Done:  E(RHF) =  -341.088287937     A.U. after   11 cycles
 E2 =    -0.1260620475D+01 EUMP2 =    -0.34234890841197D+03
 Normal termination of Gaussian 09 at Fri Aug 26 12:40:13 2022.

 -----------------------------------------------------------
 #P Geom=AllCheck Guess=TCheck SCRF=Check MP2=Full/GTLargeXP
 -----------------------------------------------------------

 Structure from the checkpoint file:  "G4.Frag_770.chk"
 --------
 Frag_770
 --------
 Charge =  0 Multiplicity = 1

 SCF Done:  E(RHF) =  -341.174968545     A.U. after   13 cycles
 E2 =    -0.1650033164D+01 EUMP2 =    -0.34282500170908D+03
 Normal termination of Gaussian 09 at Fri Aug 26 12:44:13 2022.
 SCF Done:  E(RHF) =  -341.201233693     A.U. after    9 cycles
 Normal termination of Gaussian 09 at Fri Aug 26 12:47:57 2022.

                         Standard orientation:
 ---------------------------------------------------------------------
 Center     Atomic      Atomic             Coordinates (Angstroms)
 Number     Number       Type             X           Y           Z
 ---------------------------------------------------------------------
      1          6           0        1.889424    0.883066    0.003256
      2          6           0        0.914712   -0.272206   -0.017667
      3          8           0        1.282187   -1.425071    0.023251
      4          6           0       -0.603081    0.057152   -0.055550
      5          6           0       -1.043213    0.253047    1.412560
      6          7           0       -0.811612    1.319454   -0.767641
      7          7           0       -1.266125   -1.069105   -0.712162
      8          1           0        1.929503    1.338889   -0.991501
      9          1           0        2.879286    0.515956    0.277746
     10          1           0        1.561282    1.674736    0.680767
     11          1           0       -2.123267    0.442163    1.443742
     12          1           0       -0.836648   -0.648656    1.994172
     13          1           0       -0.540968    1.102953    1.883525
     14          1           0       -1.738820    1.676968   -0.553443
     15          1           0       -0.820883    1.112434   -1.763577
     16          1           0       -2.215548   -1.174909   -0.368140
     17          1           0       -0.754327   -1.918756   -0.486278
 ---------------------------------------------------------------------

 SCF Done:  E(RHF) =  -341.206887742     A.U. after    8 cycles

 The electronic state is 1-A.
 Alpha  occ. eigenvalues --  -20.54691 -15.54912 -15.54030 -11.32995 -11.30525
 Alpha  occ. eigenvalues --  -11.23389 -11.22800  -1.39432  -1.23598  -1.13403
 Alpha  occ. eigenvalues --   -1.01707  -0.98379  -0.86358  -0.72628  -0.69610
 Alpha  occ. eigenvalues --   -0.66609  -0.65351  -0.61798  -0.59992  -0.59067
 Alpha  occ. eigenvalues --   -0.56787  -0.55690  -0.53420  -0.52632  -0.49294
 Alpha  occ. eigenvalues --   -0.44137  -0.41491  -0.38875
 Alpha virt. eigenvalues --    0.03101   0.04013   0.04577   0.05253   0.06263
 Alpha virt. eigenvalues --    0.06719   0.06993   0.07274   0.07698   0.09573
 Alpha virt. eigenvalues --    0.09713   0.10187   0.10504   0.11547   0.12994

 Mulliken charges:
               1
     1  C   -0.539948
     2  C    0.467162
     3  O   -0.570835
     4  C    0.376154
     5  C   -0.583682
     6  N   -0.768485
     7  N   -0.743225
     8  H    0.190805
     9  H    0.210680
    10  H    0.187939
    11  H    0.165754
    12  H    0.198764
    13  H    0.179939
    14  H    0.288339
    15  H    0.323517
    16  H    0.282934
    17  H    0.334188
 Sum of Mulliken charges =  -0.00000

 Dipole moment (field-independent basis, Debye):
    X=             -1.9980    Y=              2.0168    Z=              0.9767  Tot=              3.0022
 Quadrupole moment (field-independent basis, Debye-Ang):
   XX=            -40.6931   YY=            -48.1079   ZZ=            -43.6766
   XY=              3.3595   XZ=             -1.4532   YZ=             -1.3004

 Normal termination of Gaussian 09 at Fri Aug 26 13:00:34 2022.
