 Gaussian 09, Revision E.01,
 Gaussian 09:  ES64L-G09RevE.01 30-Nov-2015

 -----
 #P G4
 -----

 ---------
 Frag_1020
 ---------
 Symbolic Z-matrix:
 Charge =  0 Multiplicity = 1

 SCF Done:  E(RB3LYP) =  -305.061626301     A.U. after   13 cycles
 SCF Done:  E(RB3LYP) =  -305.067833398     A.U. after   11 cycles
 SCF Done:  E(RB3LYP) =  -305.068857794     A.U. after   11 cycles
 SCF Done:  E(RB3LYP) =  -305.069107312     A.U. after   10 cycles
 SCF Done:  E(RB3LYP) =  -305.069163439     A.U. after   10 cycles
 SCF Done:  E(RB3LYP) =  -305.069182522     A.U. after    8 cycles
 SCF Done:  E(RB3LYP) =  -305.069199597     A.U. after   10 cycles
 SCF Done:  E(RB3LYP) =  -305.069204797     A.U. after    9 cycles
 SCF Done:  E(RB3LYP) =  -305.069206624     A.U. after    7 cycles
 SCF Done:  E(RB3LYP) =  -305.069207081     A.U. after    7 cycles
 SCF Done:  E(RB3LYP) =  -305.069207215     A.U. after    6 cycles
 SCF Done:  E(RB3LYP) =  -305.069207288     A.U. after    6 cycles
 Optimization completed.
    -- Stationary point found.
 Normal termination of Gaussian 09 at Sun Aug 21 00:36:28 2022.

 ----------------------------------------------------------
 #P Geom=AllCheck Guess=TCheck SCRF=Check B3LYP/GTBas3 Freq
 ----------------------------------------------------------

 Structure from the checkpoint file:  "G4.Frag_1020.chk"
 ---------
 Frag_1020
 ---------
 Charge =  0 Multiplicity = 1

 SCF Done:  E(RB3LYP) =  -305.069207288     A.U. after    1 cycles

  Exact polarizability:  60.274   0.648  53.097   0.688   2.522  46.615
 Approx polarizability:  76.564   1.517  72.437   1.111   1.833  69.076

                      1                      2                      3
                      A                      A                      A
 Frequencies --    100.2191               198.1206               238.7922
 Red. masses --      3.1910                 1.2342                 1.2509
 Frc consts  --      0.0189                 0.0285                 0.0420
 IR Inten    --      0.6126                21.5297                 6.2893

                      4                      5                      6
                      A                      A                      A
 Frequencies --    247.7955               263.4118               287.1782
 Red. masses --      1.7211                 1.2289                 1.0875
 Frc consts  --      0.0623                 0.0502                 0.0528
 IR Inten    --     11.9879                21.8093                92.8893

                      7                      8                      9
                      A                      A                      A
 Frequencies --    316.7896               390.5693               473.2150
 Red. masses --      2.2284                 2.3735                 2.5326
 Frc consts  --      0.1318                 0.2133                 0.3341
 IR Inten    --      8.2669                 8.1186                27.9153

                     10                     11                     12
                      A                      A                      A
 Frequencies --    533.1405               630.9183               810.5070
 Red. masses --      4.0576                 3.4222                 2.1196
 Frc consts  --      0.6795                 0.8026                 0.8204
 IR Inten    --      1.9112                 4.5983                32.2728

                     13                     14                     15
                      A                      A                      A
 Frequencies --    827.4555               947.3945              1021.4243
 Red. masses --      2.2905                 4.2675                 2.3818
 Frc consts  --      0.9240                 2.2568                 1.4641
 IR Inten    --     56.6874               224.1684                58.0298

                     16                     17                     18
                      A                      A                      A
 Frequencies --   1072.9241              1095.6188              1118.7736
 Red. masses --      1.5173                 1.5975                 1.2435
 Frc consts  --      1.0291                 1.1298                 0.9171
 IR Inten    --     20.3430                53.1779                 8.1994

                     19                     20                     21
                      A                      A                      A
 Frequencies --   1181.4943              1185.7577              1240.4431
 Red. masses --      1.5421                 1.8338                 1.4106
 Frc consts  --      1.2683                 1.5191                 1.2789
 IR Inten    --      6.4747                24.0471                53.2743

                     22                     23                     24
                      A                      A                      A
 Frequencies --   1304.1670              1346.5020              1374.4493
 Red. masses --      2.2580                 2.0776                 1.2310
 Frc consts  --      2.2628                 2.2194                 1.3701
 IR Inten    --     17.5520                41.9696                 6.5212

                     25                     26                     27
                      A                      A                      A
 Frequencies --   1435.9955              1445.0090              1479.4628
 Red. masses --      1.1525                 1.2916                 1.0691
 Frc consts  --      1.4002                 1.5890                 1.3788
 IR Inten    --      0.5612                34.5422                12.8784

                     28                     29                     30
                      A                      A                      A
 Frequencies --   1487.8121              1503.2274              1506.0332
 Red. masses --      1.1878                 1.1225                 1.0512
 Frc consts  --      1.5492                 1.4945                 1.4048
 IR Inten    --     18.6658                13.3504                 3.7526

                     31                     32                     33
                      A                      A                      A
 Frequencies --   1521.5681              1660.7720              2966.9911
 Red. masses --      1.0731                 1.0946                 1.0543
 Frc consts  --      1.4638                 1.7787                 5.4681
 IR Inten    --     17.3937                25.4625                58.7387

                     34                     35                     36
                      A                      A                      A
 Frequencies --   2980.4470              2994.4801              3056.6818
 Red. masses --      1.0509                 1.0844                 1.0836
 Frc consts  --      5.5002                 5.7289                 5.9649
 IR Inten    --     74.9927                50.1017                38.7069

                     37                     38                     39
                      A                      A                      A
 Frequencies --   3070.3565              3094.1523              3115.5803
 Red. masses --      1.0789                 1.1024                 1.1000
 Frc consts  --      5.9925                 6.2182                 6.2909
 IR Inten    --     31.1154                34.5699                21.0586

                     40                     41                     42
                      A                      A                      A
 Frequencies --   3506.1278              3589.5558              3806.4381
 Red. masses --      1.0495                 1.0920                 1.0660
 Frc consts  --      7.6016                 8.2896                 9.0998
 IR Inten    --      0.8314                 1.8882                 7.2057

 - Thermochemistry -
 -------------------
 Temperature   298.150 Kelvin.  Pressure   1.00000 Atm.
 Atom     1 has atomic number  6 and mass  12.00000

 Molecular mass:    90.07931 amu.
 Principal axes and moments of inertia in atomic units:
                           1         2         3
     Eigenvalues --   375.98160 602.89431 748.28077
           X            0.99995  -0.00702   0.00720
           Y            0.00625   0.99482   0.10148
           Z           -0.00788  -0.10143   0.99481
 This molecule is an asymmetric top.
 Rotational symmetry number  1.
 Rotational temperatures (Kelvin)      0.23037     0.14366     0.11575
 Rotational constants (GHZ):           4.80008     2.99346     2.41185
 Zero-point vibrational energy     373400.9 (Joules/Mol)
                                   89.24495 (Kcal/Mol)
 Warning -- explicit consideration of  10 degrees of freedom as
           vibrations may cause significant error
 Vibrational temperatures:    144.19   285.05   343.57   356.52   378.99
          (Kelvin)            413.18   455.79   561.94   680.85   767.07
                              907.75  1166.14  1190.52  1363.09  1469.60
                             1543.70  1576.35  1609.66  1699.90  1706.04
                             1784.72  1876.40  1937.31  1977.52  2066.07
                             2079.04  2128.61  2140.63  2162.81  2166.84
                             2189.19  2389.48  4268.83  4288.19  4308.38
                             4397.88  4417.55  4451.79  4482.62  5044.53
                             5164.56  5476.61

 Zero-point correction=                           0.142221 (Hartree/Particle)
 Thermal correction to Energy=                    0.149975
 Thermal correction to Enthalpy=                  0.150919
 Thermal correction to Gibbs Free Energy=         0.111282
 Sum of electronic and zero-point Energies=           -304.926986
 Sum of electronic and thermal Energies=              -304.919232
 Sum of electronic and thermal Enthalpies=            -304.918288
 Sum of electronic and thermal Free Energies=         -304.957926

                     E (Thermal)             CV                S
                      KCal/Mol        Cal/Mol-Kelvin    Cal/Mol-Kelvin
 Total                   94.111             27.811             83.424
 Electronic               0.000              0.000              0.000
 Translational            0.889              2.981             39.407
 Rotational               0.889              2.981             26.631
 Vibrational             92.333             21.850             17.386
 Vibration     1          0.604              1.949              3.450
 Vibration     2          0.637              1.843              2.150
 Vibration     3          0.657              1.781              1.812
 Vibration     4          0.661              1.766              1.746
 Vibration     5          0.670              1.740              1.639
 Vibration     6          0.684              1.698              1.491
 Vibration     7          0.704              1.642              1.327
 Vibration     8          0.758              1.490              0.998
 Vibration     9          0.830              1.309              0.729
 Vibration    10          0.888              1.177              0.580

 Optimization completed.
    -- Stationary point found.
 Normal termination of Gaussian 09 at Sun Aug 21 00:39:32 2022.

 -----------------------------------------------------------------
 #P Geom=AllCheck Guess=TCheck SCRF=Check CCSD(T,E4T,FrzG4)/GTBas1
 -----------------------------------------------------------------

 Structure from the checkpoint file:  "G4.Frag_1020.chk"
 ---------
 Frag_1020
 ---------
 Charge =  0 Multiplicity = 1

 SCF Done:  E(RHF) =  -303.150106035     A.U. after   12 cycles
 E2 =    -0.9021215159D+00 EUMP2 =    -0.30405222755129D+03
 CCSD(T)
 CCSD(T)= -0.30413421074D+03
 SDTQ=-304.1334041\MP4SDQ=-304.107309\CCSD=-304.1082309\CCSD(T)=-304.13
 Normal termination of Gaussian 09 at Sun Aug 21 00:46:05 2022.

 ---------------------------------------------------------
 #P Geom=AllCheck Guess=TCheck SCRF=Check MP4=FrzG4/GTBas2
 ---------------------------------------------------------

 Structure from the checkpoint file:  "G4.Frag_1020.chk"
 ---------
 Frag_1020
 ---------
 Charge =  0 Multiplicity = 1

 SCF Done:  E(RHF) =  -303.160480925     A.U. after   11 cycles
 E2 =    -0.9179448698D+00 EUMP2 =    -0.30407842579441D+03
 Normal termination of Gaussian 09 at Sun Aug 21 00:55:48 2022.

 ---------------------------------------------------------
 #P Geom=AllCheck Guess=TCheck SCRF=Check MP4=FrzG4/GTBas3
 ---------------------------------------------------------

 Structure from the checkpoint file:  "G4.Frag_1020.chk"
 ---------
 Frag_1020
 ---------
 Charge =  0 Multiplicity = 1

 SCF Done:  E(RHF) =  -303.194019899     A.U. after   11 cycles
 E2 =    -0.1119691107D+01 EUMP2 =    -0.30431371100653D+03
 Normal termination of Gaussian 09 at Sun Aug 21 04:36:20 2022.

 -----------------------------------------------------------
 #P Geom=AllCheck Guess=TCheck SCRF=Check MP2=Full/GTLargeXP
 -----------------------------------------------------------

 Structure from the checkpoint file:  "G4.Frag_1020.chk"
 ---------
 Frag_1020
 ---------
 Charge =  0 Multiplicity = 1

 SCF Done:  E(RHF) =  -303.273750206     A.U. after   11 cycles
 E2 =    -0.1460920135D+01 EUMP2 =    -0.30473467034066D+03
 Normal termination of Gaussian 09 at Sun Aug 21 04:43:35 2022.
 SCF Done:  E(RHF) =  -303.297579727     A.U. after    8 cycles
 Normal termination of Gaussian 09 at Sun Aug 21 04:50:01 2022.

                         Standard orientation:
 ---------------------------------------------------------------------
 Center     Atomic      Atomic             Coordinates (Angstroms)
 Number     Number       Type             X           Y           Z
 ---------------------------------------------------------------------
      1          6           0        0.897053    1.336626    0.521314
      2          7           0        0.657034    0.231089   -0.394421
      3          6           0        1.704842   -0.776992   -0.350468
      4          6           0       -0.663322   -0.329533   -0.349188
      5          7           0       -1.682921    0.684220   -0.524044
      6          8           0       -0.810055   -1.054248    0.889688
      7          1           0        1.886258    1.756539    0.313623
      8          1           0        0.867499    1.045875    1.584716
      9          1           0        0.160886    2.125122    0.346854
     10          1           0        2.662181   -0.311916   -0.608531
     11          1           0        1.808250   -1.265448    0.631387
     12          1           0        1.497067   -1.554961   -1.093126
     13          1           0       -0.746404   -1.033248   -1.190687
     14          1           0       -1.893625    1.109090    0.374289
     15          1           0       -2.540556    0.260361   -0.859516
     16          1           0       -1.671352   -1.485193    0.882804
 ---------------------------------------------------------------------

 SCF Done:  E(RHF) =  -303.302922002     A.U. after    8 cycles

 The electronic state is 1-A.
 Alpha  occ. eigenvalues --  -20.55401 -15.54843 -15.53905 -11.33546 -11.23552
 Alpha  occ. eigenvalues --  -11.23409  -1.37269  -1.22419  -1.16242  -0.94679
 Alpha  occ. eigenvalues --   -0.91772  -0.78753  -0.72564  -0.68023  -0.64755
 Alpha  occ. eigenvalues --   -0.61712  -0.59137  -0.56862  -0.55845  -0.53016
 Alpha  occ. eigenvalues --   -0.50422  -0.50254  -0.47457  -0.41412  -0.35795
 Alpha virt. eigenvalues --    0.03298   0.04203   0.04333   0.05311   0.06292
 Alpha virt. eigenvalues --    0.06825   0.07657   0.07985   0.09309   0.09758
 Alpha virt. eigenvalues --    0.11434   0.11675   0.13001   0.13630   0.14852

 Mulliken charges:
               1
     1  C   -0.551880
     2  N    0.047756
     3  C   -0.510930
     4  C    0.230075
     5  N   -0.741526
     6  O   -0.594070
     7  H    0.167603
     8  H    0.167786
     9  H    0.183076
    10  H    0.166657
    11  H    0.173429
    12  H    0.156183
    13  H    0.143028
    14  H    0.309668
    15  H    0.296550
    16  H    0.356596
 Sum of Mulliken charges =  -0.00000

 Dipole moment (field-independent basis, Debye):
    X=             -1.6953    Y=             -0.9528    Z=              0.2897  Tot=              1.9662
 Quadrupole moment (field-independent basis, Debye-Ang):
   XX=            -30.7272   YY=            -38.4277   ZZ=            -41.8158
   XY=              2.8271   XZ=             -0.5049   YZ=              4.1980

 Normal termination of Gaussian 09 at Sun Aug 21 08:01:44 2022.
