 Gaussian 09, Revision E.01,
 Gaussian 09:  ES64L-G09RevE.01 30-Nov-2015

 -----
 #P G4
 -----

 --------
 Frag_602
 --------
 Symbolic Z-matrix:
 Charge =  0 Multiplicity = 1

 SCF Done:  E(RB3LYP) =  -367.669969499     A.U. after   12 cycles
 SCF Done:  E(RB3LYP) =  -367.676300838     A.U. after   11 cycles
 SCF Done:  E(RB3LYP) =  -367.676769456     A.U. after   10 cycles
 SCF Done:  E(RB3LYP) =  -367.676858400     A.U. after   10 cycles
 SCF Done:  E(RB3LYP) =  -367.677029856     A.U. after   10 cycles
 SCF Done:  E(RB3LYP) =  -367.677059566     A.U. after    9 cycles
 SCF Done:  E(RB3LYP) =  -367.677061598     A.U. after    7 cycles
 SCF Done:  E(RB3LYP) =  -367.677062581     A.U. after    7 cycles
 Optimization completed.
    -- Stationary point found.
 Normal termination of Gaussian 09 at Fri Aug 26 02:41:58 2022.

 ----------------------------------------------------------
 #P Geom=AllCheck Guess=TCheck SCRF=Check B3LYP/GTBas3 Freq
 ----------------------------------------------------------

 Structure from the checkpoint file:  "G4.Frag_602.chk"
 --------
 Frag_602
 --------
 Charge =  0 Multiplicity = 1

 SCF Done:  E(RB3LYP) =  -367.677062581     A.U. after    1 cycles

  Exact polarizability:  81.302  -0.481  75.823   1.032  -0.118  73.994
 Approx polarizability: 109.965   0.759 107.418  -0.781   0.050 109.231

                      1                      2                      3
                      A                      A                      A
 Frequencies --     85.6175               184.2117               234.8277
 Red. masses --      2.5655                 1.0258                 1.1239
 Frc consts  --      0.0111                 0.0205                 0.0365
 IR Inten    --      0.3865                 2.4039                 0.4708

                      4                      5                      6
                      A                      A                      A
 Frequencies --    244.6817               261.7800               276.1979
 Red. masses --      1.1774                 1.2556                 2.3182
 Frc consts  --      0.0415                 0.0507                 0.1042
 IR Inten    --      1.8970                17.2480                 4.3907

                      7                      8                      9
                      A                      A                      A
 Frequencies --    282.2743               293.0468               325.7298
 Red. masses --      1.3216                 1.6408                 1.3088
 Frc consts  --      0.0620                 0.0830                 0.0818
 IR Inten    --      9.7270                 1.9307                91.7862

                     10                     11                     12
                      A                      A                      A
 Frequencies --    362.9834               368.8851               375.7225
 Red. masses --      2.5454                 1.8651                 2.3807
 Frc consts  --      0.1976                 0.1495                 0.1980
 IR Inten    --      1.5936                 8.5944                12.1301

                     13                     14                     15
                      A                      A                      A
 Frequencies --    391.0105               421.4458               487.3363
 Red. masses --      2.4140                 2.5272                 2.3951
 Frc consts  --      0.2175                 0.2645                 0.3351
 IR Inten    --      0.7151                 8.2793                 5.1038

                     16                     17                     18
                      A                      A                      A
 Frequencies --    509.0121               533.4079               659.6423
 Red. masses --      2.9402                 2.9434                 3.1213
 Frc consts  --      0.4488                 0.4934                 0.8002
 IR Inten    --      6.2150                17.3725                 1.0039

                     19                     20                     21
                      A                      A                      A
 Frequencies --    827.1794               879.4286               916.0386
 Red. masses --      3.0418                 2.1665                 1.4287
 Frc consts  --      1.2263                 0.9872                 0.7064
 IR Inten    --     13.4041                29.0744                78.1467

                     22                     23                     24
                      A                      A                      A
 Frequencies --    924.7202               935.9726               960.4198
 Red. masses --      1.5767                 1.4742                 2.1342
 Frc consts  --      0.7944                 0.7609                 1.1599
 IR Inten    --      8.7927                 6.8521                23.4187

                     25                     26                     27
                      A                      A                      A
 Frequencies --    968.7122              1009.5149              1024.2041
 Red. masses --      1.6545                 1.2858                 1.3181
 Frc consts  --      0.9148                 0.7720                 0.8146
 IR Inten    --      4.4886                 2.4385                 2.1143

                     28                     29                     30
                      A                      A                      A
 Frequencies --   1077.0407              1130.4308              1190.4818
 Red. masses --      1.5941                 1.5266                 2.5123
 Frc consts  --      1.0895                 1.1494                 2.0978
 IR Inten    --     26.2348                15.3545                32.0492

                     31                     32                     33
                      A                      A                      A
 Frequencies --   1198.9585              1216.7195              1264.5376
 Red. masses --      2.4274                 2.2329                 3.1535
 Frc consts  --      2.0559                 1.9476                 2.9710
 IR Inten    --     51.0407                25.7559                 2.6086

                     34                     35                     36
                      A                      A                      A
 Frequencies --   1340.2311              1361.0881              1395.1313
 Red. masses --      1.8161                 1.5551                 1.2553
 Frc consts  --      1.9219                 1.6974                 1.4395
 IR Inten    --      7.8280                27.7149                12.0728

                     37                     38                     39
                      A                      A                      A
 Frequencies --   1398.6705              1408.7105              1421.1530
 Red. masses --      1.4050                 1.2554                 1.2245
 Frc consts  --      1.6194                 1.4679                 1.4571
 IR Inten    --     16.4102                15.2638                 4.6603

                     40                     41                     42
                      A                      A                      A
 Frequencies --   1478.0383              1480.6280              1485.3499
 Red. masses --      1.0571                 1.0481                 1.0473
 Frc consts  --      1.3606                 1.3538                 1.3614
 IR Inten    --      3.2866                 0.0926                 0.1733

                     43                     44                     45
                      A                      A                      A
 Frequencies --   1493.1259              1502.2360              1507.7952
 Red. masses --      1.0487                 1.0612                 1.0556
 Frc consts  --      1.3775                 1.4110                 1.4139
 IR Inten    --      1.5209                 4.2851                 7.0052

                     46                     47                     48
                      A                      A                      A
 Frequencies --   1512.0944              1515.0389              1636.3523
 Red. masses --      1.0512                 1.0655                 1.0942
 Frc consts  --      1.4161                 1.4410                 1.7263
 IR Inten    --      4.0341                 0.4007                38.4638

                     49                     50                     51
                      A                      A                      A
 Frequencies --   3026.6449              3036.4631              3040.2242
 Red. masses --      1.0354                 1.0380                 1.0388
 Frc consts  --      5.5882                 5.6389                 5.6571
 IR Inten    --     17.1621                17.7795                23.3818

                     52                     53                     54
                      A                      A                      A
 Frequencies --   3055.6653              3089.5373              3096.6623
 Red. masses --      1.0366                 1.1000                 1.0998
 Frc consts  --      5.7029                 6.1862                 6.2136
 IR Inten    --     12.6375                10.4965                28.1529

                     55                     56                     57
                      A                      A                      A
 Frequencies --   3100.6341              3106.2026              3116.2533
 Red. masses --      1.0978                 1.0998                 1.1013
 Frc consts  --      6.2183                 6.2521                 6.3013
 IR Inten    --     62.5348                22.5178                 2.3851

                     58                     59                     60
                      A                      A                      A
 Frequencies --   3124.5449              3139.5153              3153.4363
 Red. masses --      1.1009                 1.0996                 1.1005
 Frc consts  --      6.3326                 6.3858                 6.4479
 IR Inten    --     42.7971                20.0102                 7.7450

                     61                     62                     63
                      A                      A                      A
 Frequencies --   3482.8155              3566.1471              3822.0034
 Red. masses --      1.0483                 1.0924                 1.0659
 Frc consts  --      7.4923                 8.1850                 9.1734
 IR Inten    --      4.4925                 1.5203                11.1996

 - Thermochemistry -
 -------------------
 Temperature   298.150 Kelvin.  Pressure   1.00000 Atm.
 Atom     1 has atomic number  6 and mass  12.00000

 Molecular mass:   117.11536 amu.
 Principal axes and moments of inertia in atomic units:
                           1         2         3
     Eigenvalues --   754.360231046.653651060.24607
           X            0.99892  -0.02467   0.03939
           Y            0.03148   0.98265  -0.18278
           Z           -0.03420   0.18383   0.98236
 This molecule is an asymmetric top.
 Rotational symmetry number  1.
 Warning -- assumption of classical behavior for rotation
           may cause significant error
 Rotational temperatures (Kelvin)      0.11482     0.08275     0.08169
 Rotational constants (GHZ):           2.39241     1.72430     1.70219
 Zero-point vibrational energy     548574.9 (Joules/Mol)
                                  131.11255 (Kcal/Mol)
 Warning -- explicit consideration of  17 degrees of freedom as
           vibrations may cause significant error
 Vibrational temperatures:    123.18   265.04   337.86   352.04   376.64
          (Kelvin)            397.39   406.13   421.63   468.65   522.25
                              530.74   540.58   562.58   606.37   701.17
                              732.35   767.45   949.08  1190.13  1265.30
                             1317.97  1330.46  1346.65  1381.83  1393.76
                             1452.46  1473.60  1549.62  1626.44  1712.84
                             1725.03  1750.59  1819.39  1928.29  1958.30
                             2007.28  2012.37  2026.82  2044.72  2126.56
                             2130.29  2137.08  2148.27  2161.38  2169.38
                             2175.56  2179.80  2354.34  4354.66  4368.79
                             4374.20  4396.42  4445.15  4455.40  4461.12
                             4469.13  4483.59  4495.52  4517.06  4537.09
                             5010.99  5130.88  5499.00

 Zero-point correction=                           0.208941 (Hartree/Particle)
 Thermal correction to Energy=                    0.219349
 Thermal correction to Enthalpy=                  0.220293
 Thermal correction to Gibbs Free Energy=         0.175382
 Sum of electronic and zero-point Energies=           -367.468121
 Sum of electronic and thermal Energies=              -367.457714
 Sum of electronic and thermal Enthalpies=            -367.456770
 Sum of electronic and thermal Free Energies=         -367.501681

                     E (Thermal)             CV                S
                      KCal/Mol        Cal/Mol-Kelvin    Cal/Mol-Kelvin
 Total                  137.643             40.671             94.523
 Electronic               0.000              0.000              0.000
 Translational            0.889              2.981             40.189
 Rotational               0.889              2.981             28.217
 Vibrational            135.866             34.709             26.117
 Vibration     1          0.601              1.959              3.758
 Vibration     2          0.631              1.861              2.285
 Vibration     3          0.655              1.788              1.842
 Vibration     4          0.660              1.772              1.769
 Vibration     5          0.669              1.743              1.650
 Vibration     6          0.678              1.717              1.557
 Vibration     7          0.681              1.706              1.520
 Vibration     8          0.688              1.687              1.456
 Vibration     9          0.710              1.624              1.281
 Vibration    10          0.737              1.548              1.109
 Vibration    11          0.741              1.536              1.084
 Vibration    12          0.747              1.522              1.056
 Vibration    13          0.759              1.489              0.996
 Vibration    14          0.784              1.424              0.887
 Vibration    15          0.843              1.278              0.691
 Vibration    16          0.864              1.230              0.636
 Vibration    17          0.888              1.176              0.580

 Normal termination of Gaussian 09 at Fri Aug 26 02:43:34 2022.

 -----------------------------------------------------------------
 #P Geom=AllCheck Guess=TCheck SCRF=Check CCSD(T,E4T,FrzG4)/GTBas1
 -----------------------------------------------------------------

 Structure from the checkpoint file:  "G4.Frag_602.chk"
 --------
 Frag_602
 --------
 Charge =  0 Multiplicity = 1

 SCF Done:  E(RHF) =  -365.235327609     A.U. after   11 cycles
 E2 =    -0.1146877986D+01 EUMP2 =    -0.36638220559541D+03
 CCSD(T)
 CCSD(T)= -0.36650026218D+03
 6.4642502\CCSD(T)=-366.5002622\RMSD=7.725e-09\PG=C01 [X(C6H15N1O1)]\\@
 Normal termination of Gaussian 09 at Fri Aug 26 02:54:30 2022.

 ---------------------------------------------------------
 #P Geom=AllCheck Guess=TCheck SCRF=Check MP4=FrzG4/GTBas2
 ---------------------------------------------------------

 Structure from the checkpoint file:  "G4.Frag_602.chk"
 --------
 Frag_602
 --------
 Charge =  0 Multiplicity = 1

 SCF Done:  E(RHF) =  -365.244648050     A.U. after   12 cycles
 E2 =    -0.1164221280D+01 EUMP2 =    -0.36640886933059D+03
 Normal termination of Gaussian 09 at Fri Aug 26 02:58:16 2022.

 ---------------------------------------------------------
 #P Geom=AllCheck Guess=TCheck SCRF=Check MP4=FrzG4/GTBas3
 ---------------------------------------------------------

 Structure from the checkpoint file:  "G4.Frag_602.chk"
 --------
 Frag_602
 --------
 Charge =  0 Multiplicity = 1

 SCF Done:  E(RHF) =  -365.287072779     A.U. after   10 cycles
 E2 =    -0.1429819200D+01 EUMP2 =    -0.36671689197958D+03
 Normal termination of Gaussian 09 at Fri Aug 26 03:31:09 2022.

 -----------------------------------------------------------
 #P Geom=AllCheck Guess=TCheck SCRF=Check MP2=Full/GTLargeXP
 -----------------------------------------------------------

 Structure from the checkpoint file:  "G4.Frag_602.chk"
 --------
 Frag_602
 --------
 Charge =  0 Multiplicity = 1

 SCF Done:  E(RHF) =  -365.373325518     A.U. after   12 cycles
 E2 =    -0.1871635721D+01 EUMP2 =    -0.36724496123889D+03
 Normal termination of Gaussian 09 at Fri Aug 26 03:40:13 2022.
 SCF Done:  E(RHF) =  -365.402019957     A.U. after    9 cycles
 Normal termination of Gaussian 09 at Fri Aug 26 03:43:43 2022.

                         Standard orientation:
 ---------------------------------------------------------------------
 Center     Atomic      Atomic             Coordinates (Angstroms)
 Number     Number       Type             X           Y           Z
 ---------------------------------------------------------------------
      1          6           0       -1.329972   -0.697656    1.294490
      2          6           0       -0.787975   -0.043073    0.012780
      3          6           0       -1.398468    1.371767   -0.118621
      4          7           0       -1.178908   -0.900674   -1.120764
      5          6           0        0.786222    0.018415   -0.010429
      6          6           0        1.374660    0.941942    1.064530
      7          6           0        1.415548   -1.375298    0.104986
      8          8           0        1.195551    0.495371   -1.308493
      9          1           0       -1.058628   -0.133745    2.191569
     10          1           0       -0.971419   -1.723452    1.395687
     11          1           0       -2.424713   -0.734751    1.254234
     12          1           0       -1.041186    1.880595   -1.020261
     13          1           0       -2.487397    1.290438   -0.205998
     14          1           0       -1.191132    2.011686    0.745200
     15          1           0       -2.184918   -0.851721   -1.253981
     16          1           0       -0.745330   -0.530701   -1.962418
     17          1           0        1.098632    0.623290    2.073220
     18          1           0        2.466074    0.928093    0.992939
     19          1           0        1.044455    1.978588    0.939912
     20          1           0        0.953521   -2.064448   -0.602379
     21          1           0        1.300071   -1.779973    1.113560
     22          1           0        2.484117   -1.299928   -0.113217
     23          1           0        1.085708    1.451195   -1.321191
 ---------------------------------------------------------------------

 SCF Done:  E(RHF) =  -365.408280342     A.U. after    8 cycles

 The electronic state is 1-A.
 Alpha  occ. eigenvalues --  -20.55008 -15.52616 -11.28531 -11.26190 -11.21793
 Alpha  occ. eigenvalues --  -11.21693 -11.21125 -11.19955  -1.35950  -1.18345
 Alpha  occ. eigenvalues --   -1.05105  -0.99721  -0.94300  -0.92579  -0.83356
 Alpha  occ. eigenvalues --   -0.73776  -0.67930  -0.66268  -0.61612  -0.61448
 Alpha  occ. eigenvalues --   -0.60007  -0.57568  -0.55333  -0.53539  -0.53375
 Alpha  occ. eigenvalues --   -0.52804  -0.52119  -0.50684  -0.49865  -0.47776
 Alpha  occ. eigenvalues --   -0.46119  -0.42258  -0.38253
 Alpha virt. eigenvalues --    0.02808   0.03949   0.04091   0.04736   0.06089
 Alpha virt. eigenvalues --    0.06171   0.06615   0.06876   0.07059   0.09051
 Alpha virt. eigenvalues --    0.09121   0.09296   0.09458   0.09648   0.10019

 Mulliken charges:
               1
     1  C   -0.611482
     2  C    0.447414
     3  C   -0.626034
     4  N   -0.814020
     5  C    0.423500
     6  C   -0.628220
     7  C   -0.618053
     8  O   -0.647017
     9  H    0.165637
    10  H    0.178616
    11  H    0.162802
    12  H    0.160971
    13  H    0.170077
    14  H    0.174458
    15  H    0.281776
    16  H    0.324925
    17  H    0.179621
    18  H    0.187199
    19  H    0.165108
    20  H    0.207561
    21  H    0.171339
    22  H    0.178697
    23  H    0.365123
 Sum of Mulliken charges =  -0.00000

 Dipole moment (field-independent basis, Debye):
    X=             -0.9401    Y=              1.9758    Z=              1.1037  Tot=              2.4506
 Quadrupole moment (field-independent basis, Debye-Ang):
   XX=            -52.2223   YY=            -53.2513   ZZ=            -53.4577
   XY=              0.2180   XZ=              2.7874   YZ=             -2.2875

 Normal termination of Gaussian 09 at Fri Aug 26 04:08:02 2022.
