 Gaussian 09, Revision E.01,
 Gaussian 09:  ES64L-G09RevE.01 30-Nov-2015

 -----
 #P G4
 -----

 --------
 Frag_820
 --------
 Symbolic Z-matrix:
 Charge =  0 Multiplicity = 1

 SCF Done:  E(RB3LYP) =  -359.659286497     A.U. after   14 cycles
 SCF Done:  E(RB3LYP) =  -359.674497759     A.U. after   12 cycles
 SCF Done:  E(RB3LYP) =  -359.677667718     A.U. after   12 cycles
 SCF Done:  E(RB3LYP) =  -359.679140266     A.U. after   13 cycles
 SCF Done:  E(RB3LYP) =  -359.679370083     A.U. after   11 cycles
 SCF Done:  E(RB3LYP) =  -359.679573822     A.U. after   11 cycles
 SCF Done:  E(RB3LYP) =  -359.680047962     A.U. after   13 cycles
 SCF Done:  E(RB3LYP) =  -359.680610101     A.U. after   12 cycles
 SCF Done:  E(RB3LYP) =  -359.681608815     A.U. after   12 cycles
 SCF Done:  E(RB3LYP) =  -359.682503096     A.U. after   12 cycles
 SCF Done:  E(RB3LYP) =  -359.682795846     A.U. after    8 cycles
 SCF Done:  E(RB3LYP) =  -359.682796117     A.U. after    7 cycles
 SCF Done:  E(RB3LYP) =  -359.682796190     A.U. after    7 cycles
 Optimization completed.
    -- Stationary point found.
 Normal termination of Gaussian 09 at Wed Aug 24 22:04:06 2022.

 ----------------------------------------------------------
 #P Geom=AllCheck Guess=TCheck SCRF=Check B3LYP/GTBas3 Freq
 ----------------------------------------------------------

 Structure from the checkpoint file:  "G4.Frag_820.chk"
 --------
 Frag_820
 --------
 Charge =  0 Multiplicity = 1

 SCF Done:  E(RB3LYP) =  -359.682796190     A.U. after    1 cycles

  Exact polarizability:  41.870  -2.264  44.994   0.163   1.632  30.135
 Approx polarizability:  55.139  -1.725  73.258  -0.081   5.063  44.649

                      1                      2                      3
                      A                      A                      A
 Frequencies --     69.2873               262.0970               305.1968
 Red. masses --      7.4192                 2.7832                 1.3470
 Frc consts  --      0.0210                 0.1126                 0.0739
 IR Inten    --      2.6887                 1.3147               154.6283

                      4                      5                      6
                      A                      A                      A
 Frequencies --    344.2685               417.1522               453.1224
 Red. masses --      3.1009                 1.5003                 2.9493
 Frc consts  --      0.2165                 0.1538                 0.3568
 IR Inten    --      8.4797               105.7543                65.0762

                      7                      8                      9
                      A                      A                      A
 Frequencies --    503.1684               549.6621               597.2838
 Red. masses --      2.2415                 2.0569                 1.8012
 Frc consts  --      0.3344                 0.3662                 0.3786
 IR Inten    --     40.0714                 8.8441                47.3357

                     10                     11                     12
                      A                      A                      A
 Frequencies --    637.3675               731.9574               886.1184
 Red. masses --      1.3684                 3.1612                 4.4661
 Frc consts  --      0.3275                 0.9979                 2.0661
 IR Inten    --      8.2484                11.1478                 3.3267

                     13                     14                     15
                      A                      A                      A
 Frequencies --   1045.0146              1102.9035              1140.8362
 Red. masses --      3.8001                 1.9513                 3.7329
 Frc consts  --      2.4451                 1.3984                 2.8625
 IR Inten    --    123.7473                 2.2907               148.0828

                     16                     17                     18
                      A                      A                      A
 Frequencies --   1284.1647              1301.6000              1355.0034
 Red. masses --      1.3824                 1.2467                 2.2887
 Frc consts  --      1.3432                 1.2445                 2.4758
 IR Inten    --     14.0565                 5.1636               213.8303

                     19                     20                     21
                      A                      A                      A
 Frequencies --   1427.0974              1476.2961              1610.6871
 Red. masses --      1.2475                 1.5733                 1.2883
 Frc consts  --      1.4970                 2.0203                 1.9692
 IR Inten    --     54.4435                69.2970                93.2622

                     22                     23                     24
                      A                      A                      A
 Frequencies --   1794.2466              2997.9135              3592.1446
 Red. masses --      9.4719                 1.0830                 1.0439
 Frc consts  --     17.9660                 5.7346                 7.9362
 IR Inten    --    269.3094                43.2522                44.5449

                     25                     26                     27
                      A                      A                      A
 Frequencies --   3624.7338              3724.7738              3783.1070
 Red. masses --      1.0645                 1.1047                 1.0651
 Frc consts  --      8.2400                 9.0300                 8.9812
 IR Inten    --    113.7047                61.2152                31.5660

 - Thermochemistry -
 -------------------
 Temperature   298.150 Kelvin.  Pressure   1.00000 Atm.
 Atom     1 has atomic number  7 and mass  14.00307

 Molecular mass:    91.02694 amu.
 Principal axes and moments of inertia in atomic units:
                           1         2         3
     Eigenvalues --   346.80323 509.61338 805.86845
           X            0.99657  -0.08272  -0.00130
           Y            0.08271   0.99657  -0.00403
           Z            0.00163   0.00391   0.99999
 This molecule is an asymmetric top.
 Rotational symmetry number  1.
 Rotational temperatures (Kelvin)      0.24975     0.16996     0.10748
 Rotational constants (GHZ):           5.20393     3.54139     2.23950
 Zero-point vibrational energy     221412.0 (Joules/Mol)
                                   52.91875 (Kcal/Mol)
 Warning -- explicit consideration of   9 degrees of freedom as
           vibrations may cause significant error
 Vibrational temperatures:     99.69   377.10   439.11   495.33   600.19
          (Kelvin)            651.94   723.95   790.84   859.36   917.03
                             1053.12  1274.93  1503.54  1586.83  1641.41
                             1847.62  1872.71  1949.55  2053.27  2124.06
                             2317.42  2581.52  4313.32  5168.29  5215.18
                             5359.11  5443.04

 Zero-point correction=                           0.084331 (Hartree/Particle)
 Thermal correction to Energy=                    0.090761
 Thermal correction to Enthalpy=                  0.091705
 Thermal correction to Gibbs Free Energy=         0.054287
 Sum of electronic and zero-point Energies=           -359.598465
 Sum of electronic and thermal Energies=              -359.592035
 Sum of electronic and thermal Enthalpies=            -359.591091
 Sum of electronic and thermal Free Energies=         -359.628509

                     E (Thermal)             CV                S
                      KCal/Mol        Cal/Mol-Kelvin    Cal/Mol-Kelvin
 Total                   56.953             22.909             78.752
 Electronic               0.000              0.000              0.000
 Translational            0.889              2.981             39.438
 Rotational               0.889              2.981             26.457
 Vibrational             55.176             16.948             12.857
 Vibration     1          0.598              1.969              4.174
 Vibration     2          0.669              1.742              1.648
 Vibration     3          0.696              1.664              1.388
 Vibration     4          0.723              1.587              1.192
 Vibration     5          0.780              1.433              0.902
 Vibration     6          0.812              1.354              0.786
 Vibration     7          0.858              1.243              0.650
 Vibration     8          0.905              1.140              0.545
 Vibration     9          0.955              1.038              0.454

 Optimization completed.
    -- Stationary point found.
 Normal termination of Gaussian 09 at Wed Aug 24 22:06:04 2022.

 -----------------------------------------------------------------
 #P Geom=AllCheck Guess=TCheck SCRF=Check CCSD(T,E4T,FrzG4)/GTBas1
 -----------------------------------------------------------------

 Structure from the checkpoint file:  "G4.Frag_820.chk"
 --------
 Frag_820
 --------
 Charge =  0 Multiplicity = 1

 SCF Done:  E(RHF) =  -357.685763908     A.U. after   13 cycles
 E2 =    -0.9505733518D+00 EUMP2 =    -0.35863633725998D+03
 CCSD(T)
 CCSD(T)= -0.35869241951D+03
 7154\MP4SDQ=-358.6666819\CCSD=-358.6647677\CCSD(T)=-358.6924195\RMSD=6
 Normal termination of Gaussian 09 at Wed Aug 24 22:10:49 2022.

 ---------------------------------------------------------
 #P Geom=AllCheck Guess=TCheck SCRF=Check MP4=FrzG4/GTBas2
 ---------------------------------------------------------

 Structure from the checkpoint file:  "G4.Frag_820.chk"
 --------
 Frag_820
 --------
 Charge =  0 Multiplicity = 1

 SCF Done:  E(RHF) =  -357.699433547     A.U. after   12 cycles
 E2 =    -0.9682052801D+00 EUMP2 =    -0.35866763882715D+03
 Normal termination of Gaussian 09 at Wed Aug 24 22:15:29 2022.

 ---------------------------------------------------------
 #P Geom=AllCheck Guess=TCheck SCRF=Check MP4=FrzG4/GTBas3
 ---------------------------------------------------------

 Structure from the checkpoint file:  "G4.Frag_820.chk"
 --------
 Frag_820
 --------
 Charge =  0 Multiplicity = 1

 SCF Done:  E(RHF) =  -357.733861971     A.U. after   12 cycles
 E2 =    -0.1166925775D+01 EUMP2 =    -0.35890078774628D+03
 Normal termination of Gaussian 09 at Thu Aug 25 00:00:37 2022.

 -----------------------------------------------------------
 #P Geom=AllCheck Guess=TCheck SCRF=Check MP2=Full/GTLargeXP
 -----------------------------------------------------------

 Structure from the checkpoint file:  "G4.Frag_820.chk"
 --------
 Frag_820
 --------
 Charge =  0 Multiplicity = 1

 SCF Done:  E(RHF) =  -357.837991052     A.U. after   12 cycles
 E2 =    -0.1521332711D+01 EUMP2 =    -0.35935932376239D+03
 Normal termination of Gaussian 09 at Thu Aug 25 00:05:02 2022.
 SCF Done:  E(RHF) =  -357.866805729     A.U. after    9 cycles
 Normal termination of Gaussian 09 at Thu Aug 25 00:09:27 2022.

                         Standard orientation:
 ---------------------------------------------------------------------
 Center     Atomic      Atomic             Coordinates (Angstroms)
 Number     Number       Type             X           Y           Z
 ---------------------------------------------------------------------
      1          7           0        1.578986   -0.890933   -0.090224
      2          6           0        0.766646    0.187051   -0.056707
      3          8           0        1.119590    1.328147    0.195743
      4          6           0       -0.717381   -0.111391   -0.391994
      5          8           0       -1.154084   -1.300399    0.231325
      6          8           0       -1.474872    0.984239   -0.011641
      7          1           0        1.163018   -1.807985   -0.103505
      8          1           0        2.540578   -0.788407    0.191098
      9          1           0       -0.809368   -0.312868   -1.470122
     10          1           0       -1.346173   -1.068878    1.149118
     11          1           0       -0.821626    1.664809    0.233777
 ---------------------------------------------------------------------

 SCF Done:  E(RHF) =  -357.873091923     A.U. after    8 cycles

 The electronic state is 1-A.
 Alpha  occ. eigenvalues --  -20.58610 -20.57185 -20.54773 -15.60299 -11.37071
 Alpha  occ. eigenvalues --  -11.36049  -1.44285  -1.39812  -1.35314  -1.23575
 Alpha  occ. eigenvalues --   -0.96157  -0.82563  -0.77449  -0.73473  -0.71076
 Alpha  occ. eigenvalues --   -0.68043  -0.64784  -0.58695  -0.57375  -0.55733
 Alpha  occ. eigenvalues --   -0.53232  -0.49372  -0.44090  -0.43392
 Alpha virt. eigenvalues --    0.03282   0.04745   0.05045   0.05715   0.07340
 Alpha virt. eigenvalues --    0.07422   0.07898   0.09399   0.10267   0.11928
 Alpha virt. eigenvalues --    0.13408   0.13955   0.14872   0.15024   0.15984

 Mulliken charges:
               1
     1  N   -0.717318
     2  C    0.557669
     3  O   -0.631954
     4  C    0.264044
     5  O   -0.566569
     6  O   -0.614773
     7  H    0.361985
     8  H    0.358409
     9  H    0.188933
    10  H    0.379001
    11  H    0.420573
 Sum of Mulliken charges =  -0.00000

 Dipole moment (field-independent basis, Debye):
    X=              1.6526    Y=             -2.6827    Z=              0.5596  Tot=              3.2002
 Quadrupole moment (field-independent basis, Debye-Ang):
   XX=            -36.5525   YY=            -37.3100   ZZ=            -32.3512
   XY=             -5.1885   XZ=             -0.9586   YZ=             -1.2376

 Normal termination of Gaussian 09 at Thu Aug 25 02:10:00 2022.
