 Gaussian 09, Revision E.01,
 Gaussian 09:  ES64L-G09RevE.01 30-Nov-2015

 -----
 #P G4
 -----

 --------
 Frag_803
 --------
 Symbolic Z-matrix:
 Charge =  0 Multiplicity = 1

 SCF Done:  E(RB3LYP) =  -343.180148368     A.U. after   14 cycles
 SCF Done:  E(RB3LYP) =  -343.196538028     A.U. after   11 cycles
 SCF Done:  E(RB3LYP) =  -343.197594590     A.U. after   11 cycles
 SCF Done:  E(RB3LYP) =  -343.197934251     A.U. after   11 cycles
 SCF Done:  E(RB3LYP) =  -343.198103107     A.U. after   11 cycles
 SCF Done:  E(RB3LYP) =  -343.198180603     A.U. after   10 cycles
 SCF Done:  E(RB3LYP) =  -343.198236364     A.U. after   11 cycles
 SCF Done:  E(RB3LYP) =  -343.198253605     A.U. after   10 cycles
 SCF Done:  E(RB3LYP) =  -343.198261062     A.U. after    8 cycles
 SCF Done:  E(RB3LYP) =  -343.198278368     A.U. after   10 cycles
 SCF Done:  E(RB3LYP) =  -343.198552263     A.U. after   11 cycles
 SCF Done:  E(RB3LYP) =  -343.198574610     A.U. after   10 cycles
 SCF Done:  E(RB3LYP) =  -343.198574717     A.U. after    7 cycles
 Optimization completed.
    -- Stationary point found.
 Normal termination of Gaussian 09 at Fri Aug 26 03:55:29 2022.

 ----------------------------------------------------------
 #P Geom=AllCheck Guess=TCheck SCRF=Check B3LYP/GTBas3 Freq
 ----------------------------------------------------------

 Structure from the checkpoint file:  "G4.Frag_803.chk"
 --------
 Frag_803
 --------
 Charge =  0 Multiplicity = 1

 SCF Done:  E(RB3LYP) =  -343.198574717     A.U. after    1 cycles

  Exact polarizability:  67.208  -0.527  64.511  -0.540   0.639  51.965
 Approx polarizability:  88.736  -3.696 104.409  -0.412   2.838  72.776

                      1                      2                      3
                      A                      A                      A
 Frequencies --     52.0586               217.0149               245.5785
 Red. masses --      4.6190                 1.1607                 1.6474
 Frc consts  --      0.0074                 0.0322                 0.0585
 IR Inten    --      6.3412                 0.7220                 6.2569

                      4                      5                      6
                      A                      A                      A
 Frequencies --    258.4738               293.3226               323.5783
 Red. masses --      1.2305                 1.9223                 1.3987
 Frc consts  --      0.0484                 0.0974                 0.0863
 IR Inten    --      1.7178                 3.7813               108.2161

                      7                      8                      9
                      A                      A                      A
 Frequencies --    337.0168               387.0138               416.4418
 Red. masses --      2.3401                 3.1051                 2.0755
 Frc consts  --      0.1566                 0.2740                 0.2121
 IR Inten    --      2.4829                10.2821                37.3192

                     10                     11                     12
                      A                      A                      A
 Frequencies --    444.9977               525.8976               533.4916
 Red. masses --      1.5660                 3.5786                 2.3949
 Frc consts  --      0.1827                 0.5831                 0.4016
 IR Inten    --    118.7903                 3.1299                21.5287

                     13                     14                     15
                      A                      A                      A
 Frequencies --    594.7250               703.4429               712.7288
 Red. masses --      1.1552                 3.2256                 3.0358
 Frc consts  --      0.2407                 0.9404                 0.9086
 IR Inten    --     47.2278                 7.4222                10.2979

                     16                     17                     18
                      A                      A                      A
 Frequencies --    858.0059               882.5279               943.4924
 Red. masses --      1.4278                 2.3580                 1.4871
 Frc consts  --      0.6193                 1.0820                 0.7799
 IR Inten    --     53.8214                 2.1628                 0.5813

                     19                     20                     21
                      A                      A                      A
 Frequencies --    976.6056              1018.7166              1098.1433
 Red. masses --      2.2043                 1.3128                 1.5870
 Frc consts  --      1.2387                 0.8027                 1.1276
 IR Inten    --     48.0395                 3.2520                 1.5949

                     22                     23                     24
                      A                      A                      A
 Frequencies --   1123.5714              1132.7994              1217.3438
 Red. masses --      1.6738                 1.6614                 2.6690
 Frc consts  --      1.2449                 1.2561                 2.3304
 IR Inten    --     57.6066                50.2291                35.8733

                     25                     26                     27
                      A                      A                      A
 Frequencies --   1229.0744              1358.3959              1393.5277
 Red. masses --      2.2858                 1.4667                 1.3590
 Frc consts  --      2.0344                 1.5946                 1.5548
 IR Inten    --     29.6352                31.4222                17.6448

                     28                     29                     30
                      A                      A                      A
 Frequencies --   1401.5627              1419.9684              1477.7704
 Red. masses --      1.5582                 1.7871                 1.0511
 Frc consts  --      1.8035                 2.1230                 1.3524
 IR Inten    --     27.8194                86.7946                 0.4298

                     31                     32                     33
                      A                      A                      A
 Frequencies --   1482.6822              1495.5780              1506.0052
 Red. masses --      1.0509                 1.0648                 1.0696
 Frc consts  --      1.3611                 1.4033                 1.4294
 IR Inten    --      1.1676                 7.1587                 3.3219

                     34                     35                     36
                      A                      A                      A
 Frequencies --   1601.0105              1720.7539              3030.6945
 Red. masses --      1.2173                 7.3728                 1.0409
 Frc consts  --      1.8384                12.8624                 5.6333
 IR Inten    --     99.5909               173.0068                24.7634

                     37                     38                     39
                      A                      A                      A
 Frequencies --   3046.5691              3100.0339              3115.5798
 Red. masses --      1.0356                 1.0974                 1.1018
 Frc consts  --      5.6632                 6.2135                 6.3011
 IR Inten    --     13.5598                24.4623                26.5317

                     40                     41                     42
                      A                      A                      A
 Frequencies --   3145.7313              3152.5575              3440.8504
 Red. masses --      1.1012                 1.0994                 1.0744
 Frc consts  --      6.4203                 6.4376                 7.4946
 IR Inten    --      3.9411                10.9029                10.6079

                     43                     44                     45
                      A                      A                      A
 Frequencies --   3575.6284              3700.7484              3803.7644
 Red. masses --      1.0447                 1.1020                 1.0659
 Frc consts  --      7.8694                 8.8919                 9.0868
 IR Inten    --     29.5647                38.7788                17.6942

 - Thermochemistry -
 -------------------
 Temperature   298.150 Kelvin.  Pressure   1.00000 Atm.
 Atom     1 has atomic number  6 and mass  12.00000

 Molecular mass:   102.07931 amu.
 Principal axes and moments of inertia in atomic units:
                           1         2         3
     Eigenvalues --   543.20864 754.57255 904.61640
           X            0.99615   0.08740  -0.00678
           Y           -0.08752   0.99599  -0.01874
           Z            0.00512   0.01927   0.99980
 This molecule is an asymmetric top.
 Rotational symmetry number  1.
 Warning -- assumption of classical behavior for rotation
           may cause significant error
 Rotational temperatures (Kelvin)      0.15945     0.11479     0.09575
 Rotational constants (GHZ):           3.32237     2.39174     1.99503
 Zero-point vibrational energy     385768.6 (Joules/Mol)
                                   92.20091 (Kcal/Mol)
 Warning -- explicit consideration of  13 degrees of freedom as
           vibrations may cause significant error
 Vibrational temperatures:     74.90   312.24   353.33   371.89   422.03
          (Kelvin)            465.56   484.89   556.83   599.17   640.25
                              756.65   767.57   855.68  1012.10  1025.46
                             1234.48  1269.76  1357.47  1405.12  1465.70
                             1579.98  1616.57  1629.84  1751.48  1768.36
                             1954.43  2004.97  2016.53  2043.02  2126.18
                             2133.25  2151.80  2166.80  2303.49  2475.78
                             4360.49  4383.33  4460.25  4482.62  4526.00
                             4535.82  4950.61  5144.53  5324.54  5472.76

 Zero-point correction=                           0.146932 (Hartree/Particle)
 Thermal correction to Energy=                    0.155362
 Thermal correction to Enthalpy=                  0.156307
 Thermal correction to Gibbs Free Energy=         0.114838
 Sum of electronic and zero-point Energies=           -343.051643
 Sum of electronic and thermal Energies=              -343.043212
 Sum of electronic and thermal Enthalpies=            -343.042268
 Sum of electronic and thermal Free Energies=         -343.083736

                     E (Thermal)             CV                S
                      KCal/Mol        Cal/Mol-Kelvin    Cal/Mol-Kelvin
 Total                   97.491             31.827             87.277
 Electronic               0.000              0.000              0.000
 Translational            0.889              2.981             39.779
 Rotational               0.889              2.981             27.408
 Vibrational             95.714             25.865             20.090
 Vibration     1          0.596              1.977              4.738
 Vibration     2          0.646              1.815              1.984
 Vibration     3          0.660              1.770              1.762
 Vibration     4          0.667              1.748              1.672
 Vibration     5          0.688              1.686              1.455
 Vibration     6          0.708              1.628              1.292
 Vibration     7          0.718              1.602              1.226
 Vibration     8          0.755              1.498              1.012
 Vibration     9          0.780              1.435              0.904
 Vibration    10          0.804              1.372              0.811
 Vibration    11          0.881              1.193              0.596
 Vibration    12          0.888              1.176              0.579
 Vibration    13          0.952              1.043              0.459

 Optimization completed.
    -- Stationary point found.
 Normal termination of Gaussian 09 at Fri Aug 26 03:56:21 2022.

 -----------------------------------------------------------------
 #P Geom=AllCheck Guess=TCheck SCRF=Check CCSD(T,E4T,FrzG4)/GTBas1
 -----------------------------------------------------------------

 Structure from the checkpoint file:  "G4.Frag_803.chk"
 --------
 Frag_803
 --------
 Charge =  0 Multiplicity = 1

 SCF Done:  E(RHF) =  -341.040142574     A.U. after   13 cycles
 E2 =    -0.1027921423D+01 EUMP2 =    -0.34206806399688D+03
 CCSD(T)
 CCSD(T)= -0.34215853860D+03
 1250525\CCSD=-342.1251624\CCSD(T)=-342.1585386\RMSD=4.378e-09\PG=C01 [
 Normal termination of Gaussian 09 at Fri Aug 26 04:00:50 2022.

 ---------------------------------------------------------
 #P Geom=AllCheck Guess=TCheck SCRF=Check MP4=FrzG4/GTBas2
 ---------------------------------------------------------

 Structure from the checkpoint file:  "G4.Frag_803.chk"
 --------
 Frag_803
 --------
 Charge =  0 Multiplicity = 1

 SCF Done:  E(RHF) =  -341.051622837     A.U. after   12 cycles
 E2 =    -0.1044506996D+01 EUMP2 =    -0.34209612983311D+03
 Normal termination of Gaussian 09 at Fri Aug 26 04:02:13 2022.

 ---------------------------------------------------------
 #P Geom=AllCheck Guess=TCheck SCRF=Check MP4=FrzG4/GTBas3
 ---------------------------------------------------------

 Structure from the checkpoint file:  "G4.Frag_803.chk"
 --------
 Frag_803
 --------
 Charge =  0 Multiplicity = 1

 SCF Done:  E(RHF) =  -341.088548326     A.U. after   12 cycles
 E2 =    -0.1261884640D+01 EUMP2 =    -0.34235043296613D+03
 Normal termination of Gaussian 09 at Fri Aug 26 04:13:12 2022.

 -----------------------------------------------------------
 #P Geom=AllCheck Guess=TCheck SCRF=Check MP2=Full/GTLargeXP
 -----------------------------------------------------------

 Structure from the checkpoint file:  "G4.Frag_803.chk"
 --------
 Frag_803
 --------
 Charge =  0 Multiplicity = 1

 SCF Done:  E(RHF) =  -341.176096239     A.U. after   12 cycles
 E2 =    -0.1652459792D+01 EUMP2 =    -0.34282855603050D+03
 Normal termination of Gaussian 09 at Fri Aug 26 04:17:16 2022.
 SCF Done:  E(RHF) =  -341.202684793     A.U. after    8 cycles
 Normal termination of Gaussian 09 at Fri Aug 26 04:20:39 2022.

                         Standard orientation:
 ---------------------------------------------------------------------
 Center     Atomic      Atomic             Coordinates (Angstroms)
 Number     Number       Type             X           Y           Z
 ---------------------------------------------------------------------
      1          6           0        1.264185    0.883837   -1.009246
      2          6           0        0.578917   -0.043377   -0.003260
      3          6           0        1.087749    0.199280    1.421535
      4          8           0        0.890224   -1.415096   -0.293052
      5          6           0       -0.949354    0.181554   -0.021658
      6          7           0       -1.391025    1.379775    0.037547
      7          7           0       -1.679877   -0.978832   -0.112324
      8          1           0        0.997211    1.921415   -0.805432
      9          1           0        0.936329    0.655729   -2.030721
     10          1           0        2.349709    0.760655   -0.954219
     11          1           0        0.623462   -0.507073    2.116257
     12          1           0        2.171247    0.056172    1.459577
     13          1           0        0.838893    1.213899    1.736879
     14          1           0        0.818002   -1.535694   -1.246336
     15          1           0       -2.412673    1.403598    0.052090
     16          1           0       -1.181330   -1.834228    0.078752
     17          1           0       -2.655311   -0.948070    0.136791
 ---------------------------------------------------------------------

 SCF Done:  E(RHF) =  -341.208424333     A.U. after    8 cycles

 The electronic state is 1-A.
 Alpha  occ. eigenvalues --  -20.56600 -15.57368 -15.51565 -11.31184 -11.29980
 Alpha  occ. eigenvalues --  -11.21706 -11.21528  -1.37779  -1.25584  -1.14042
 Alpha  occ. eigenvalues --   -1.04843  -0.94293  -0.86243  -0.75802  -0.72040
 Alpha  occ. eigenvalues --   -0.70192  -0.65839  -0.61389  -0.60833  -0.56612
 Alpha  occ. eigenvalues --   -0.53816  -0.53337  -0.51581  -0.51187  -0.47899
 Alpha  occ. eigenvalues --   -0.47156  -0.41104  -0.36650
 Alpha virt. eigenvalues --    0.03225   0.04187   0.04423   0.04957   0.06719
 Alpha virt. eigenvalues --    0.06929   0.07023   0.07273   0.07580   0.09818
 Alpha virt. eigenvalues --    0.10443   0.10486   0.11047   0.11528   0.12640

 Mulliken charges:
               1
     1  C   -0.572089
     2  C    0.455170
     3  C   -0.551648
     4  O   -0.637415
     5  C    0.357829
     6  N   -0.697494
     7  N   -0.744155
     8  H    0.223087
     9  H    0.158568
    10  H    0.174567
    11  H    0.168680
    12  H    0.169944
    13  H    0.206376
    14  H    0.377249
    15  H    0.249065
    16  H    0.351999
    17  H    0.310268
 Sum of Mulliken charges =  -0.00000

 Dipole moment (field-independent basis, Debye):
    X=             -0.8381    Y=             -1.9375    Z=             -0.4399  Tot=              2.1563
 Quadrupole moment (field-independent basis, Debye-Ang):
   XX=            -38.5834   YY=            -48.2501   ZZ=            -42.8882
   XY=              4.8763   XZ=             -2.2840   YZ=              0.9611

 Normal termination of Gaussian 09 at Fri Aug 26 04:33:11 2022.
