 Gaussian 09, Revision E.01,
 Gaussian 09:  ES64L-G09RevE.01 30-Nov-2015

 -----
 #P G4
 -----

 --------
 Frag_591
 --------
 Symbolic Z-matrix:
 Charge =  0 Multiplicity = 1

 SCF Done:  E(RB3LYP) =  -339.706467690     A.U. after   14 cycles
 SCF Done:  E(RB3LYP) =  -339.765156738     A.U. after   11 cycles
 SCF Done:  E(RB3LYP) =  -339.775477464     A.U. after   12 cycles
 SCF Done:  E(RB3LYP) =  -339.778942709     A.U. after   11 cycles
 SCF Done:  E(RB3LYP) =  -339.779125753     A.U. after   10 cycles
 SCF Done:  E(RB3LYP) =  -339.779223459     A.U. after   10 cycles
 SCF Done:  E(RB3LYP) =  -339.779321708     A.U. after   10 cycles
 SCF Done:  E(RB3LYP) =  -339.779456907     A.U. after   10 cycles
 SCF Done:  E(RB3LYP) =  -339.779538342     A.U. after   11 cycles
 SCF Done:  E(RB3LYP) =  -339.779688456     A.U. after   10 cycles
 SCF Done:  E(RB3LYP) =  -339.779985192     A.U. after    8 cycles
 SCF Done:  E(RB3LYP) =  -339.779985237     A.U. after    7 cycles
 SCF Done:  E(RB3LYP) =  -339.779985247     A.U. after    7 cycles
 Optimization completed.
    -- Stationary point found.
 Normal termination of Gaussian 09 at Tue Aug 30 09:41:58 2022.

 ----------------------------------------------------------
 #P Geom=AllCheck Guess=TCheck SCRF=Check B3LYP/GTBas3 Freq
 ----------------------------------------------------------

 Structure from the checkpoint file:  "G4.Frag_591.chk"
 --------
 Frag_591
 --------
 Charge =  0 Multiplicity = 1

 SCF Done:  E(RB3LYP) =  -339.779985247     A.U. after    1 cycles

  Exact polarizability:  48.771   0.731  50.296   0.000  -0.001  31.577
 Approx polarizability:  67.923   5.869  75.076  -0.003  -0.002  46.222

                      1                      2                      3
                      A                      A                      A
 Frequencies --     35.4977               130.6329               161.6920
 Red. masses --      1.9319                 3.9912                 1.4336
 Frc consts  --      0.0014                 0.0401                 0.0221
 IR Inten    --      0.6090                 7.5708                 0.1815

                      4                      5                      6
                      A                      A                      A
 Frequencies --    320.6014               350.3005               415.5167
 Red. masses --      4.1612                 1.1393                 3.8016
 Frc consts  --      0.2520                 0.0824                 0.3867
 IR Inten    --     19.7093                96.4350                 2.3601

                      7                      8                      9
                      A                      A                      A
 Frequencies --    546.4728               568.9073               592.3297
 Red. masses --      2.4333                 1.0525                 6.9662
 Frc consts  --      0.4281                 0.2007                 1.4400
 IR Inten    --     26.4200                 8.5044                 2.2457

                     10                     11                     12
                      A                      A                      A
 Frequencies --    683.6055               763.5930               797.0199
 Red. masses --      1.5923                10.7720                 5.8616
 Frc consts  --      0.4384                 3.7006                 2.1939
 IR Inten    --    119.3868                15.4452                18.8976

                     13                     14                     15
                      A                      A                      A
 Frequencies --   1033.6489              1157.8581              1159.5523
 Red. masses --      2.3692                 1.2511                 2.0737
 Frc consts  --      1.4914                 0.9882                 1.6428
 IR Inten    --     11.0190                 0.3934                64.3214

                     16                     17                     18
                      A                      A                      A
 Frequencies --   1261.2673              1287.6188              1301.9299
 Red. masses --      2.0389                 1.1772                 3.9387
 Frc consts  --      1.9110                 1.1499                 3.9335
 IR Inten    --     84.4611                 0.6372                27.5531

                     19                     20                     21
                      A                      A                      A
 Frequencies --   1401.7318              1440.1811              1491.5631
 Red. masses --      3.0994                 1.2400                 1.0439
 Frc consts  --      3.5880                 1.5154                 1.3684
 IR Inten    --    341.9134                56.5199                 6.1609

                     22                     23                     24
                      A                      A                      A
 Frequencies --   1519.1677              1666.0724              1850.4176
 Red. masses --      1.1105                 1.0861                 9.5387
 Frc consts  --      1.5100                 1.7763                19.2432
 IR Inten    --     13.7005                10.7218               365.2300

                     25                     26                     27
                      A                      A                      A
 Frequencies --   3033.6624              3087.1780              3176.4410
 Red. masses --      1.0371                 1.1046                 1.0973
 Frc consts  --      5.6235                 6.2024                 6.5233
 IR Inten    --     46.5149                30.7182                 0.6763

                     28                     29                     30
                      A                      A                      A
 Frequencies --   3470.6568              3573.4988              3783.4372
 Red. masses --      1.0421                 1.1026                 1.0636
 Frc consts  --      7.3960                 8.2956                 8.9705
 IR Inten    --      0.6766                 3.9992                39.5048

 - Thermochemistry -
 -------------------
 Temperature   298.150 Kelvin.  Pressure   1.00000 Atm.
 Atom     1 has atomic number  6 and mass  12.00000

 Molecular mass:    90.04293 amu.
 Principal axes and moments of inertia in atomic units:
                           1         2         3
     Eigenvalues --   348.50453 496.48689 823.41512
           X            0.99393  -0.11000   0.00001
           Y            0.11000   0.99393   0.00000
           Z           -0.00001   0.00000   1.00000
 This molecule is an asymmetric top.
 Rotational symmetry number  1.
 Rotational temperatures (Kelvin)      0.24853     0.17445     0.10519
 Rotational constants (GHZ):           5.17853     3.63502     2.19178
 Zero-point vibrational energy     251586.9 (Joules/Mol)
                                   60.13072 (Kcal/Mol)
 Warning -- explicit consideration of   9 degrees of freedom as
           vibrations may cause significant error
 Vibrational temperatures:     51.07   187.95   232.64   461.27   504.00
          (Kelvin)            597.84   786.25   818.53   852.23   983.55
                             1098.64  1146.73  1487.19  1665.90  1668.34
                             1814.68  1852.59  1873.18  2016.78  2072.10
                             2146.02  2185.74  2397.10  2662.33  4364.76
                             4441.76  4570.18  4993.49  5141.46  5443.52

 Zero-point correction=                           0.095824 (Hartree/Particle)
 Thermal correction to Energy=                    0.102831
 Thermal correction to Enthalpy=                  0.103775
 Thermal correction to Gibbs Free Energy=         0.064419
 Sum of electronic and zero-point Energies=           -339.684161
 Sum of electronic and thermal Energies=              -339.677154
 Sum of electronic and thermal Enthalpies=            -339.676210
 Sum of electronic and thermal Free Energies=         -339.715566

                     E (Thermal)             CV                S
                      KCal/Mol        Cal/Mol-Kelvin    Cal/Mol-Kelvin
 Total                   64.527             23.610             82.832
 Electronic               0.000              0.000              0.000
 Translational            0.889              2.981             39.405
 Rotational               0.889              2.981             26.457
 Vibrational             62.750             17.649             16.969
 Vibration     1          0.594              1.982              5.496
 Vibration     2          0.612              1.923              2.937
 Vibration     3          0.622              1.889              2.530
 Vibration     4          0.706              1.634              1.307
 Vibration     5          0.727              1.575              1.165
 Vibration     6          0.779              1.437              0.907
 Vibration     7          0.902              1.147              0.552
 Vibration     8          0.925              1.099              0.506
 Vibration     9          0.950              1.048              0.463

 Normal termination of Gaussian 09 at Tue Aug 30 09:42:25 2022.

 -----------------------------------------------------------------
 #P Geom=AllCheck Guess=TCheck SCRF=Check CCSD(T,E4T,FrzG4)/GTBas1
 -----------------------------------------------------------------

 Structure from the checkpoint file:  "G4.Frag_591.chk"
 --------
 Frag_591
 --------
 Charge =  0 Multiplicity = 1

 SCF Done:  E(RHF) =  -337.819690245     A.U. after   13 cycles
 E2 =    -0.9345127721D+00 EUMP2 =    -0.33875420301731D+03
 CCSD(T)
 CCSD(T)= -0.33881707103D+03
 D=-338.7880636\CCSD(T)=-338.817071\RMSD=3.958e-09\PG=C01 [X(C2H6N2O2)]
 Normal termination of Gaussian 09 at Tue Aug 30 09:44:06 2022.

 ---------------------------------------------------------
 #P Geom=AllCheck Guess=TCheck SCRF=Check MP4=FrzG4/GTBas2
 ---------------------------------------------------------

 Structure from the checkpoint file:  "G4.Frag_591.chk"
 --------
 Frag_591
 --------
 Charge =  0 Multiplicity = 1

 SCF Done:  E(RHF) =  -337.830067556     A.U. after   12 cycles
 E2 =    -0.9489131483D+00 EUMP2 =    -0.33877898070439D+03
 Normal termination of Gaussian 09 at Tue Aug 30 09:44:42 2022.

 ---------------------------------------------------------
 #P Geom=AllCheck Guess=TCheck SCRF=Check MP4=FrzG4/GTBas3
 ---------------------------------------------------------

 Structure from the checkpoint file:  "G4.Frag_591.chk"
 --------
 Frag_591
 --------
 Charge =  0 Multiplicity = 1

 SCF Done:  E(RHF) =  -337.865265107     A.U. after   12 cycles
 E2 =    -0.1145073292D+01 EUMP2 =    -0.33901033839839D+03
 Normal termination of Gaussian 09 at Tue Aug 30 09:47:30 2022.

 -----------------------------------------------------------
 #P Geom=AllCheck Guess=TCheck SCRF=Check MP2=Full/GTLargeXP
 -----------------------------------------------------------

 Structure from the checkpoint file:  "G4.Frag_591.chk"
 --------
 Frag_591
 --------
 Charge =  0 Multiplicity = 1

 SCF Done:  E(RHF) =  -337.957987221     A.U. after   13 cycles
 E2 =    -0.1493030642D+01 EUMP2 =    -0.33945101786207D+03
 Normal termination of Gaussian 09 at Tue Aug 30 09:49:10 2022.
 SCF Done:  E(RHF) =  -337.984769330     A.U. after    9 cycles
 Normal termination of Gaussian 09 at Tue Aug 30 09:50:39 2022.

                         Standard orientation:
 ---------------------------------------------------------------------
 Center     Atomic      Atomic             Coordinates (Angstroms)
 Number     Number       Type             X           Y           Z
 ---------------------------------------------------------------------
      1          6           0        1.562876   -1.009012    0.000098
      2          7           0        0.577475    0.060022   -0.000497
      3          7           0        1.093806    1.359019    0.000128
      4          6           0       -0.775449   -0.233438   -0.000060
      5          8           0       -1.220154   -1.353247    0.000084
      6          8           0       -1.594669    0.847695    0.000048
      7          1           0        2.200344   -0.944462   -0.888108
      8          1           0        2.198520   -0.945416    0.889684
      9          1           0        1.026404   -1.956132   -0.000912
     10          1           0        0.867570    1.878276    0.842110
     11          1           0        0.867770    1.878928   -0.841491
     12          1           0       -1.065552    1.654628    0.000015
 ---------------------------------------------------------------------

 SCF Done:  E(RHF) =  -337.990581494     A.U. after    8 cycles

 The electronic state is 1-A.
 Alpha  occ. eigenvalues --  -20.61280 -20.52186 -15.62596 -15.61929 -11.40720
 Alpha  occ. eigenvalues --  -11.26153  -1.46964  -1.36098  -1.32453  -1.11001
 Alpha  occ. eigenvalues --   -0.95565  -0.82289  -0.78842  -0.73992  -0.68302
 Alpha  occ. eigenvalues --   -0.63932  -0.62946  -0.59396  -0.59179  -0.55510
 Alpha  occ. eigenvalues --   -0.49481  -0.49253  -0.43651  -0.40090
 Alpha virt. eigenvalues --    0.02701   0.04259   0.04708   0.05763   0.06917
 Alpha virt. eigenvalues --    0.07413   0.07715   0.08125   0.08818   0.10852
 Alpha virt. eigenvalues --    0.13478   0.14254   0.15351   0.15632   0.15835

 Mulliken charges:
               1
     1  C   -0.416064
     2  N   -0.078256
     3  N   -0.642049
     4  C    0.640751
     5  O   -0.607196
     6  O   -0.508924
     7  H    0.171297
     8  H    0.171206
     9  H    0.248037
    10  H    0.329392
    11  H    0.329436
    12  H    0.362370
 Sum of Mulliken charges =  -0.00000

 Dipole moment (field-independent basis, Debye):
    X=              3.0949    Y=              3.9648    Z=              0.0006  Tot=              5.0297
 Quadrupole moment (field-independent basis, Debye-Ang):
   XX=            -43.2228   YY=            -32.3666   ZZ=            -33.8474
   XY=             -4.9411   XZ=              0.0005   YZ=              0.0006

 Normal termination of Gaussian 09 at Tue Aug 30 09:56:44 2022.
