 Gaussian 09, Revision E.01,
 Gaussian 09:  ES64L-G09RevE.01 30-Nov-2015

 -----
 #P G4
 -----

 --------
 Frag_889
 --------
 Symbolic Z-matrix:
 Charge =  0 Multiplicity = 1

 SCF Done:  E(RB3LYP) =  -316.319461120     A.U. after   16 cycles
 SCF Done:  E(RB3LYP) =  -316.349772416     A.U. after   14 cycles
 SCF Done:  E(RB3LYP) =  -316.354658464     A.U. after   14 cycles
 SCF Done:  E(RB3LYP) =  -316.355429212     A.U. after   13 cycles
 SCF Done:  E(RB3LYP) =  -316.357446706     A.U. after   13 cycles
 SCF Done:  E(RB3LYP) =  -316.360628726     A.U. after   15 cycles
 SCF Done:  E(RB3LYP) =  -316.366224385     A.U. after   13 cycles
 SCF Done:  E(RB3LYP) =  -316.372481086     A.U. after   13 cycles
 SCF Done:  E(RB3LYP) =  -316.374008636     A.U. after   13 cycles
 SCF Done:  E(RB3LYP) =  -316.374544578     A.U. after   12 cycles
 SCF Done:  E(RB3LYP) =  -316.374722077     A.U. after   11 cycles
 SCF Done:  E(RB3LYP) =  -316.374734372     A.U. after    9 cycles
 SCF Done:  E(RB3LYP) =  -316.374735822     A.U. after    8 cycles
 Optimization completed.
    -- Stationary point found.
 Normal termination of Gaussian 09 at Fri Aug 26 13:33:53 2022.

 ----------------------------------------------------------
 #P Geom=AllCheck Guess=TCheck SCRF=Check B3LYP/GTBas3 Freq
 ----------------------------------------------------------

 Structure from the checkpoint file:  "G4.Frag_889.chk"
 --------
 Frag_889
 --------
 Charge =  0 Multiplicity = 1

 SCF Done:  E(RB3LYP) =  -316.374735822     A.U. after    1 cycles

  Exact polarizability:  46.814   0.859  35.169  -0.840  -0.035  17.550
 Approx polarizability:  77.842  12.596  71.126   0.038  -0.036  26.257

                      1                      2                      3
                      A                      A                      A
 Frequencies --    236.5838               315.0746               373.5009
 Red. masses --      1.2497                 3.1678                 5.3227
 Frc consts  --      0.0412                 0.1853                 0.4375
 IR Inten    --     34.5491                18.0377                31.2293

                      4                      5                      6
                      A                      A                      A
 Frequencies --    513.9954               587.0157               663.4517
 Red. masses --      4.8054                 1.3971                 3.3940
 Frc consts  --      0.7480                 0.2836                 0.8802
 IR Inten    --      0.9111                58.4993                27.3892

                      7                      8                      9
                      A                      A                      A
 Frequencies --    692.6605               929.8769              1038.0992
 Red. masses --      6.6703                 1.5937                 4.8353
 Frc consts  --      1.8855                 0.8119                 3.0701
 IR Inten    --     15.8745               251.5885                33.3350

                     10                     11                     12
                      A                      A                      A
 Frequencies --   1095.0277              1275.9560              1372.0299
 Red. masses --      4.3415                 1.6984                 6.0146
 Frc consts  --      3.0672                 1.6292                 6.6709
 IR Inten    --    111.7039                18.2502                91.4981

                     13                     14                     15
                      A                      A                      A
 Frequencies --   1518.4124              1614.6080              1621.6548
 Red. masses --      1.3294                 1.0974                 4.3053
 Frc consts  --      1.8058                 1.6856                 6.6706
 IR Inten    --     54.7669                46.4772                88.8881

                     16                     17                     18
                      A                      A                      A
 Frequencies --   3445.2119              3485.2425              3598.6500
 Red. masses --      1.0619                 1.0454                 1.0985
 Frc consts  --      7.4263                 7.4815                 8.3815
 IR Inten    --     38.2518                18.8226                30.3664

 - Thermochemistry -
 -------------------
 Temperature   298.150 Kelvin.  Pressure   1.00000 Atm.
 Atom     1 has atomic number  7 and mass  14.00307

 Molecular mass:    77.02253 amu.
 Principal axes and moments of inertia in atomic units:
                           1         2         3
     Eigenvalues --   152.46085 382.89318 532.24637
           X            0.99870  -0.04904  -0.01405
           Y            0.04914   0.99877   0.00676
           Z            0.01370  -0.00745   0.99988
 This molecule is an asymmetric top.
 Rotational symmetry number  1.
 Rotational temperatures (Kelvin)      0.56811     0.22621     0.16273
 Rotational constants (GHZ):          11.83741     4.71343     3.39080
 Zero-point vibrational energy     145807.1 (Joules/Mol)
                                   34.84874 (Kcal/Mol)
 Warning -- explicit consideration of   5 degrees of freedom as
           vibrations may cause significant error
 Vibrational temperatures:    340.39   453.32   537.38   739.52   844.58
          (Kelvin)            954.56   996.58  1337.88  1493.59  1575.50
                             1835.81  1974.04  2184.65  2323.06  2333.20
                             4956.89  5014.48  5177.65

 Zero-point correction=                           0.055535 (Hartree/Particle)
 Thermal correction to Energy=                    0.060373
 Thermal correction to Enthalpy=                  0.061317
 Thermal correction to Gibbs Free Energy=         0.027953
 Sum of electronic and zero-point Energies=           -316.319201
 Sum of electronic and thermal Energies=              -316.314363
 Sum of electronic and thermal Enthalpies=            -316.313419
 Sum of electronic and thermal Free Energies=         -316.346783

                     E (Thermal)             CV                S
                      KCal/Mol        Cal/Mol-Kelvin    Cal/Mol-Kelvin
 Total                   37.884             16.468             70.221
 Electronic               0.000              0.000              0.000
 Translational            0.889              2.981             38.940
 Rotational               0.889              2.981             24.944
 Vibrational             36.107             10.506              6.337
 Vibration     1          0.655              1.785              1.828
 Vibration     2          0.702              1.645              1.336
 Vibration     3          0.745              1.527              1.065
 Vibration     4          0.869              1.219              0.624
 Vibration     5          0.944              1.059              0.473

 Normal termination of Gaussian 09 at Fri Aug 26 13:34:09 2022.

 -----------------------------------------------------------------
 #P Geom=AllCheck Guess=TCheck SCRF=Check CCSD(T,E4T,FrzG4)/GTBas1
 -----------------------------------------------------------------

 Structure from the checkpoint file:  "G4.Frag_889.chk"
 --------
 Frag_889
 --------
 Charge =  0 Multiplicity = 1

 SCF Done:  E(RHF) =  -314.610539720     A.U. after   14 cycles
 E2 =    -0.8769254131D+00 EUMP2 =    -0.31548746513300D+03
 CCSD(T)
 CCSD(T)= -0.31552929262D+03
 5372425\MP4SDQ=-315.4991282\CCSD=-315.4962866\CCSD(T)=-315.5292926\RMS
 Normal termination of Gaussian 09 at Fri Aug 26 13:34:58 2022.

 ---------------------------------------------------------
 #P Geom=AllCheck Guess=TCheck SCRF=Check MP4=FrzG4/GTBas2
 ---------------------------------------------------------

 Structure from the checkpoint file:  "G4.Frag_889.chk"
 --------
 Frag_889
 --------
 Charge =  0 Multiplicity = 1

 SCF Done:  E(RHF) =  -314.623408304     A.U. after   14 cycles
 E2 =    -0.8906522863D+00 EUMP2 =    -0.31551406059031D+03
 Normal termination of Gaussian 09 at Fri Aug 26 13:35:11 2022.

 ---------------------------------------------------------
 #P Geom=AllCheck Guess=TCheck SCRF=Check MP4=FrzG4/GTBas3
 ---------------------------------------------------------

 Structure from the checkpoint file:  "G4.Frag_889.chk"
 --------
 Frag_889
 --------
 Charge =  0 Multiplicity = 1

 SCF Done:  E(RHF) =  -314.653438967     A.U. after   14 cycles
 E2 =    -0.1052745209D+01 EUMP2 =    -0.31570618417617D+03
 Normal termination of Gaussian 09 at Fri Aug 26 13:36:05 2022.

 -----------------------------------------------------------
 #P Geom=AllCheck Guess=TCheck SCRF=Check MP2=Full/GTLargeXP
 -----------------------------------------------------------

 Structure from the checkpoint file:  "G4.Frag_889.chk"
 --------
 Frag_889
 --------
 Charge =  0 Multiplicity = 1

 SCF Done:  E(RHF) =  -314.744162784     A.U. after   14 cycles
 E2 =    -0.1352129224D+01 EUMP2 =    -0.31609629200771D+03
 Normal termination of Gaussian 09 at Fri Aug 26 13:36:39 2022.
 SCF Done:  E(RHF) =  -314.771689342     A.U. after    9 cycles
 Normal termination of Gaussian 09 at Fri Aug 26 13:37:12 2022.

                         Standard orientation:
 ---------------------------------------------------------------------
 Center     Atomic      Atomic             Coordinates (Angstroms)
 Number     Number       Type             X           Y           Z
 ---------------------------------------------------------------------
      1          7           0        1.666468   -0.439263    0.111810
      2          7           0        0.363873    0.059919    0.005081
      3          8           0        0.203644    1.303185    0.001922
      4          7           0       -0.564819   -0.813957   -0.013138
      5          8           0       -1.777089   -0.198056   -0.006210
      6          1           0        2.240438    0.149073   -0.486096
      7          1           0        1.655054   -1.402195   -0.215433
      8          1           0       -1.566575    0.765200    0.009561
 ---------------------------------------------------------------------

 SCF Done:  E(RHF) =  -314.777176808     A.U. after    8 cycles

 The electronic state is 1-A.
 Alpha  occ. eigenvalues --  -20.62721 -20.58105 -15.82703 -15.70298 -15.65264
 Alpha  occ. eigenvalues --   -1.58479  -1.44364  -1.30443  -1.19033  -0.89032
 Alpha  occ. eigenvalues --   -0.82730  -0.76611  -0.73453  -0.69789  -0.61930
 Alpha  occ. eigenvalues --   -0.58746  -0.54678  -0.50322  -0.49423  -0.38888
 Alpha virt. eigenvalues --    0.04007   0.06470   0.06663   0.06768   0.09568
 Alpha virt. eigenvalues --    0.09678   0.10595   0.11693   0.12287   0.13171
 Alpha virt. eigenvalues --    0.14467   0.14735   0.16361   0.17171   0.17867

 Mulliken charges:
               1
     1  N   -0.499838
     2  N    0.489072
     3  O   -0.586187
     4  N   -0.053843
     5  O   -0.448162
     6  H    0.343950
     7  H    0.337671
     8  H    0.417338
 Sum of Mulliken charges =  -0.00000

 Dipole moment (field-independent basis, Debye):
    X=              2.5800    Y=             -1.1319    Z=             -1.3527  Tot=              3.1253
 Quadrupole moment (field-independent basis, Debye-Ang):
   XX=            -25.7921   YY=            -30.6206   ZZ=            -29.3915
   XY=             -4.7885   XZ=             -3.3774   YZ=              0.5102

 Normal termination of Gaussian 09 at Fri Aug 26 13:40:26 2022.
