 Gaussian 09, Revision E.01,
 Gaussian 09:  ES64L-G09RevE.01 30-Nov-2015

 -----
 #P G4
 -----

 --------
 Frag_740
 --------
 Symbolic Z-matrix:
 Charge =  0 Multiplicity = 1

 SCF Done:  E(RB3LYP) =  -418.839102925     A.U. after   14 cycles
 SCF Done:  E(RB3LYP) =  -418.860226725     A.U. after   12 cycles
 SCF Done:  E(RB3LYP) =  -418.862113499     A.U. after   12 cycles
 SCF Done:  E(RB3LYP) =  -418.862269813     A.U. after   12 cycles
 SCF Done:  E(RB3LYP) =  -418.864397855     A.U. after   12 cycles
 SCF Done:  E(RB3LYP) =  -418.867098809     A.U. after   13 cycles
 SCF Done:  E(RB3LYP) =  -418.868782037     A.U. after   12 cycles
 SCF Done:  E(RB3LYP) =  -418.869714695     A.U. after   11 cycles
 SCF Done:  E(RB3LYP) =  -418.870722305     A.U. after   12 cycles
 SCF Done:  E(RB3LYP) =  -418.870861781     A.U. after   12 cycles
 SCF Done:  E(RB3LYP) =  -418.871093432     A.U. after    8 cycles
 SCF Done:  E(RB3LYP) =  -418.871093671     A.U. after    7 cycles
 SCF Done:  E(RB3LYP) =  -418.871093737     A.U. after    7 cycles
 Optimization completed.
    -- Stationary point found.
 Normal termination of Gaussian 09 at Tue Aug 23 09:16:44 2022.

 ----------------------------------------------------------
 #P Geom=AllCheck Guess=TCheck SCRF=Check B3LYP/GTBas3 Freq
 ----------------------------------------------------------

 Structure from the checkpoint file:  "G4.Frag_740.chk"
 --------
 Frag_740
 --------
 Charge =  0 Multiplicity = 1

 SCF Done:  E(RB3LYP) =  -418.871093737     A.U. after    1 cycles

  Exact polarizability:  49.953   0.676  49.287   0.076  -0.371  39.593
 Approx polarizability:  67.377   2.956  77.091   1.870   3.020  57.547

                      1                      2                      3
                      A                      A                      A
 Frequencies --     56.6345               199.3453               230.5330
 Red. masses --      8.3572                 1.2313                 1.4601
 Frc consts  --      0.0158                 0.0288                 0.0457
 IR Inten    --      0.1547                 9.7652                 8.9904

                      4                      5                      6
                      A                      A                      A
 Frequencies --    239.8914               262.1252               373.0147
 Red. masses --      1.7409                 4.7418                 2.9784
 Frc consts  --      0.0590                 0.1920                 0.2442
 IR Inten    --     62.2466                 2.2658                 4.3751

                      7                      8                      9
                      A                      A                      A
 Frequencies --    387.5468               434.4976               513.6353
 Red. masses --      4.7314                 4.5547                 1.3082
 Frc consts  --      0.4187                 0.5066                 0.2033
 IR Inten    --     25.4315                12.7904                71.7407

                     10                     11                     12
                      A                      A                      A
 Frequencies --    567.2787               620.9478               622.9612
 Red. masses --      2.6245                 1.4687                 2.6528
 Frc consts  --      0.4976                 0.3336                 0.6066
 IR Inten    --     15.4285                75.3739                34.4413

                     13                     14                     15
                      A                      A                      A
 Frequencies --    751.9348               790.0178               927.2781
 Red. masses --      3.9581                 5.2655                 2.4906
 Frc consts  --      1.3185                 1.9362                 1.2618
 IR Inten    --     22.7004                32.4196                41.3930

                     16                     17                     18
                      A                      A                      A
 Frequencies --    964.6717              1088.1412              1144.3522
 Red. masses --      2.0199                 2.1584                 2.4184
 Frc consts  --      1.1075                 1.5057                 1.8659
 IR Inten    --     46.5607                96.6648                95.6273

                     19                     20                     21
                      A                      A                      A
 Frequencies --   1173.3046              1203.9405              1342.7415
 Red. masses --      2.9284                 1.9446                 1.4725
 Frc consts  --      2.3752                 1.6607                 1.5642
 IR Inten    --    149.7344               122.3582               167.1401

                     22                     23                     24
                      A                      A                      A
 Frequencies --   1377.2769              1419.7379              1459.0418
 Red. masses --      1.5767                 1.6880                 1.4251
 Frc consts  --      1.7621                 2.0047                 1.7874
 IR Inten    --     28.7417                15.3395                35.0261

                     25                     26                     27
                      A                      A                      A
 Frequencies --   1481.9638              1496.3369              1814.9867
 Red. masses --      1.0575                 1.2867                10.2745
 Frc consts  --      1.3684                 1.6974                19.9415
 IR Inten    --      1.0383                 4.0712               242.0762

                     28                     29                     30
                      A                      A                      A
 Frequencies --   3061.3625              3139.2105              3155.9216
 Red. masses --      1.0346                 1.1026                 1.1027
 Frc consts  --      5.7129                 6.4017                 6.4709
 IR Inten    --      6.5253                12.1531                 8.1522

                     31                     32                     33
                      A                      A                      A
 Frequencies --   3690.7278              3741.0126              3802.5086
 Red. masses --      1.0648                 1.0641                 1.0656
 Frc consts  --      8.5454                 8.7739                 9.0779
 IR Inten    --     88.9338                57.7693                33.3072

 - Thermochemistry -
 -------------------
 Temperature   298.150 Kelvin.  Pressure   1.00000 Atm.
 Atom     1 has atomic number  6 and mass  12.00000

 Molecular mass:   106.02661 amu.
 Principal axes and moments of inertia in atomic units:
                           1         2         3
     Eigenvalues --   502.93224 727.61535 882.79940
           X            0.99944   0.02220  -0.02503
           Y           -0.02426   0.99606  -0.08528
           Z            0.02304   0.08584   0.99604
 This molecule is an asymmetric top.
 Rotational symmetry number  1.
 Warning -- assumption of classical behavior for rotation
           may cause significant error
 Rotational temperatures (Kelvin)      0.17222     0.11904     0.09811
 Rotational constants (GHZ):           3.58844     2.48035     2.04434
 Zero-point vibrational energy     260396.4 (Joules/Mol)
                                   62.23624 (Kcal/Mol)
 Warning -- explicit consideration of  10 degrees of freedom as
           vibrations may cause significant error
 Vibrational temperatures:     81.48   286.81   331.69   345.15   377.14
          (Kelvin)            536.68   557.59   625.14   739.01   816.19
                              893.40   896.30  1081.87  1136.66  1334.14
                             1387.95  1565.59  1646.47  1688.12  1732.20
                             1931.90  1981.59  2042.68  2099.23  2132.21
                             2152.89  2611.36  4404.61  4516.62  4540.66
                             5310.13  5382.48  5470.95

 Zero-point correction=                           0.099180 (Hartree/Particle)
 Thermal correction to Energy=                    0.106895
 Thermal correction to Enthalpy=                  0.107839
 Thermal correction to Gibbs Free Energy=         0.067412
 Sum of electronic and zero-point Energies=           -418.771914
 Sum of electronic and thermal Energies=              -418.764199
 Sum of electronic and thermal Enthalpies=            -418.763255
 Sum of electronic and thermal Free Energies=         -418.803682

                     E (Thermal)             CV                S
                      KCal/Mol        Cal/Mol-Kelvin    Cal/Mol-Kelvin
 Total                   67.078             27.655             85.086
 Electronic               0.000              0.000              0.000
 Translational            0.889              2.981             39.892
 Rotational               0.889              2.981             27.271
 Vibrational             65.300             21.694             17.923
 Vibration     1          0.596              1.975              4.571
 Vibration     2          0.637              1.841              2.139
 Vibration     3          0.652              1.794              1.875
 Vibration     4          0.657              1.779              1.804
 Vibration     5          0.669              1.742              1.648
 Vibration     6          0.744              1.528              1.067
 Vibration     7          0.756              1.497              1.010
 Vibration     8          0.795              1.395              0.844
 Vibration     9          0.869              1.220              0.625
 Vibration    10          0.923              1.102              0.509

 Normal termination of Gaussian 09 at Tue Aug 23 09:19:44 2022.

 -----------------------------------------------------------------
 #P Geom=AllCheck Guess=TCheck SCRF=Check CCSD(T,E4T,FrzG4)/GTBas1
 -----------------------------------------------------------------

 Structure from the checkpoint file:  "G4.Frag_740.chk"
 --------
 Frag_740
 --------
 Charge =  0 Multiplicity = 1

 SCF Done:  E(RHF) =  -416.553922365     A.U. after   13 cycles
 E2 =    -0.1098594793D+01 EUMP2 =    -0.41765251715786D+03
 CCSD(T)
 CCSD(T)= -0.41771867573D+03
 MP4SDTQ=-417.7238556\MP4SDQ=-417.6885591\CCSD=-417.6862805\CCSD(T)=-41
 Normal termination of Gaussian 09 at Tue Aug 23 09:30:50 2022.

 ---------------------------------------------------------
 #P Geom=AllCheck Guess=TCheck SCRF=Check MP4=FrzG4/GTBas2
 ---------------------------------------------------------

 Structure from the checkpoint file:  "G4.Frag_740.chk"
 --------
 Frag_740
 --------
 Charge =  0 Multiplicity = 1

 SCF Done:  E(RHF) =  -416.567545798     A.U. after   13 cycles
 E2 =    -0.1117960133D+01 EUMP2 =    -0.41768550593080D+03
 Normal termination of Gaussian 09 at Tue Aug 23 09:47:06 2022.

 ---------------------------------------------------------
 #P Geom=AllCheck Guess=TCheck SCRF=Check MP4=FrzG4/GTBas3
 ---------------------------------------------------------

 Structure from the checkpoint file:  "G4.Frag_740.chk"
 --------
 Frag_740
 --------
 Charge =  0 Multiplicity = 1

 SCF Done:  E(RHF) =  -416.608708755     A.U. after   12 cycles
 E2 =    -0.1354436655D+01 EUMP2 =    -0.41796314541067D+03
 Normal termination of Gaussian 09 at Tue Aug 23 13:09:59 2022.

 -----------------------------------------------------------
 #P Geom=AllCheck Guess=TCheck SCRF=Check MP2=Full/GTLargeXP
 -----------------------------------------------------------

 Structure from the checkpoint file:  "G4.Frag_740.chk"
 --------
 Frag_740
 --------
 Charge =  0 Multiplicity = 1

 SCF Done:  E(RHF) =  -416.726925764     A.U. after   12 cycles
 E2 =    -0.1766575208D+01 EUMP2 =    -0.41849350097147D+03
 Normal termination of Gaussian 09 at Tue Aug 23 13:18:45 2022.
 SCF Done:  E(RHF) =  -416.760657588     A.U. after    9 cycles
 Normal termination of Gaussian 09 at Tue Aug 23 13:26:12 2022.

                         Standard orientation:
 ---------------------------------------------------------------------
 Center     Atomic      Atomic             Coordinates (Angstroms)
 Number     Number       Type             X           Y           Z
 ---------------------------------------------------------------------
      1          6           0       -1.249839   -1.084880    0.781938
      2          6           0       -0.607949    0.043587   -0.008551
      3          8           0       -1.053020    1.281689    0.452344
      4          8           0       -0.948036   -0.151119   -1.374206
      5          6           0        0.935987    0.054762    0.062778
      6          8           0        1.571856    1.076015    0.190754
      7          8           0        1.489283   -1.152580   -0.085161
      8          1           0       -2.334077   -0.968473    0.720679
      9          1           0       -0.966370   -2.052058    0.365115
     10          1           0       -0.946065   -1.036871    1.830394
     11          1           0       -0.273287    1.859399    0.476853
     12          1           0       -0.881079    0.713156   -1.797304
     13          1           0        2.451015   -1.028002   -0.082585
 ---------------------------------------------------------------------

 SCF Done:  E(RHF) =  -416.768029542     A.U. after    8 cycles

 The electronic state is 1-A.
 Alpha  occ. eigenvalues --  -20.63400 -20.57846 -20.57666 -20.57502 -11.40570
 Alpha  occ. eigenvalues --  -11.37101 -11.22923  -1.49566  -1.43134  -1.38848
 Alpha  occ. eigenvalues --   -1.34948  -1.03855  -0.92253  -0.82032  -0.76564
 Alpha  occ. eigenvalues --   -0.74194  -0.72055  -0.66790  -0.63945  -0.63329
 Alpha  occ. eigenvalues --   -0.58369  -0.55874  -0.55573  -0.54934  -0.52680
 Alpha  occ. eigenvalues --   -0.50971  -0.48729  -0.45369
 Alpha virt. eigenvalues --    0.03236   0.04201   0.04727   0.05499   0.06760
 Alpha virt. eigenvalues --    0.06883   0.07516   0.07711   0.08990   0.09865
 Alpha virt. eigenvalues --    0.12518   0.13433   0.14284   0.14498   0.15229

 Mulliken charges:
               1
     1  C   -0.528739
     2  C    0.531130
     3  O   -0.626243
     4  O   -0.603936
     5  C    0.588834
     6  O   -0.619793
     7  O   -0.526338
     8  H    0.195278
     9  H    0.203029
    10  H    0.178139
    11  H    0.412794
    12  H    0.382511
    13  H    0.413336
 Sum of Mulliken charges =  -0.00000

 Dipole moment (field-independent basis, Debye):
    X=              1.3537    Y=             -0.7854    Z=              0.1185  Tot=              1.5695
 Quadrupole moment (field-independent basis, Debye-Ang):
   XX=            -40.1624   YY=            -41.8353   ZZ=            -40.3842
   XY=             -2.8896   XZ=             -0.7608   YZ=             -4.0941

 Normal termination of Gaussian 09 at Tue Aug 23 16:51:16 2022.
