 Gaussian 09, Revision E.01,
 Gaussian 09:  ES64L-G09RevE.01 30-Nov-2015

 -----
 #P G4
 -----

 --------
 Frag_950
 --------
 Symbolic Z-matrix:
 Charge =  0 Multiplicity = 1

 SCF Done:  E(RB3LYP) =  -319.895426672     A.U. after   14 cycles
 SCF Done:  E(RB3LYP) =  -319.912366193     A.U. after   12 cycles
 SCF Done:  E(RB3LYP) =  -319.915248148     A.U. after   12 cycles
 SCF Done:  E(RB3LYP) =  -319.916796923     A.U. after   12 cycles
 SCF Done:  E(RB3LYP) =  -319.917489721     A.U. after   11 cycles
 SCF Done:  E(RB3LYP) =  -319.917813442     A.U. after   12 cycles
 SCF Done:  E(RB3LYP) =  -319.917897174     A.U. after   11 cycles
 SCF Done:  E(RB3LYP) =  -319.917942860     A.U. after   10 cycles
 SCF Done:  E(RB3LYP) =  -319.917960688     A.U. after    9 cycles
 SCF Done:  E(RB3LYP) =  -319.917964364     A.U. after    8 cycles
 SCF Done:  E(RB3LYP) =  -319.917964846     A.U. after    7 cycles
 SCF Done:  E(RB3LYP) =  -319.917965009     A.U. after    7 cycles
 Optimization completed.
    -- Stationary point found.
 Normal termination of Gaussian 09 at Fri Aug 26 11:13:37 2022.

 ----------------------------------------------------------
 #P Geom=AllCheck Guess=TCheck SCRF=Check B3LYP/GTBas3 Freq
 ----------------------------------------------------------

 Structure from the checkpoint file:  "G4.Frag_950.chk"
 --------
 Frag_950
 --------
 Charge =  0 Multiplicity = 1

 SCF Done:  E(RB3LYP) =  -319.917965009     A.U. after    1 cycles

  Exact polarizability:  54.888  -2.733  49.756  -0.898   4.897  37.865
 Approx polarizability:  74.002  -8.266  77.486  -3.469  10.698  57.640

                      1                      2                      3
                      A                      A                      A
 Frequencies --     75.0666               250.1693               261.9431
 Red. masses --      5.0616                 3.0844                 1.1552
 Frc consts  --      0.0168                 0.1137                 0.0467
 IR Inten    --      4.1007                12.0201                29.3355

                      4                      5                      6
                      A                      A                      A
 Frequencies --    321.5224               368.9709               460.9156
 Red. masses --      3.2816                 1.7123                 1.7729
 Frc consts  --      0.1999                 0.1373                 0.2219
 IR Inten    --     18.2299                51.2573                13.1542

                      7                      8                      9
                      A                      A                      A
 Frequencies --    489.7575               522.0377               577.9273
 Red. masses --      1.2055                 1.7580                 1.7670
 Frc consts  --      0.1704                 0.2823                 0.3477
 IR Inten    --     40.6818                56.7559               172.6319

                     10                     11                     12
                      A                      A                      A
 Frequencies --    619.3007               720.8326               835.0121
 Red. masses --      2.4041                 3.8538                 2.2280
 Frc consts  --      0.5433                 1.1798                 0.9153
 IR Inten    --     35.5358                 1.4259                66.4343

                     13                     14                     15
                      A                      A                      A
 Frequencies --    871.8657               913.7926              1004.7339
 Red. masses --      1.3898                 1.7677                 2.9820
 Frc consts  --      0.6225                 0.8697                 1.7736
 IR Inten    --     36.6318               158.8255                67.0446

                     16                     17                     18
                      A                      A                      A
 Frequencies --   1099.0445              1123.8912              1147.9036
 Red. masses --      1.7008                 1.8305                 1.7738
 Frc consts  --      1.2104                 1.3623                 1.3771
 IR Inten    --      3.1311               105.1817                13.7400

                     19                     20                     21
                      A                      A                      A
 Frequencies --   1220.3538              1279.0274              1378.8812
 Red. masses --      1.3402                 1.2467                 1.4752
 Frc consts  --      1.1759                 1.2016                 1.6525
 IR Inten    --     68.2800                67.2954                37.8261

                     22                     23                     24
                      A                      A                      A
 Frequencies --   1420.4392              1444.6087              1616.8358
 Red. masses --      1.2923                 2.3457                 1.1901
 Frc consts  --      1.5362                 2.8841                 1.8330
 IR Inten    --     36.9975                44.2725                85.4425

                     25                     26                     27
                      A                      A                      A
 Frequencies --   1653.0876              1737.9086              3046.3850
 Red. masses --      1.1099                 6.8753                 1.0859
 Frc consts  --      1.7871                12.2347                 5.9374
 IR Inten    --     32.7179               175.2396                30.3288

                     28                     29                     30
                      A                      A                      A
 Frequencies --   3436.9499              3486.1326              3559.0360
 Red. masses --      1.0742                 1.0503                 1.0456
 Frc consts  --      7.4760                 7.5206                 7.8034
 IR Inten    --      7.8926                 1.3243                30.8932

                     31                     32                     33
                      A                      A                      A
 Frequencies --   3574.7377              3676.7424              3797.6424
 Red. masses --      1.0912                 1.1001                 1.0651
 Frc consts  --      8.2158                 8.7623                 9.0500
 IR Inten    --      4.4882                34.1488                37.4558

 - Thermochemistry -
 -------------------
 Temperature   298.150 Kelvin.  Pressure   1.00000 Atm.
 Atom     1 has atomic number  7 and mass  14.00307

 Molecular mass:    89.05891 amu.
 Principal axes and moments of inertia in atomic units:
                           1         2         3
     Eigenvalues --   353.69476 594.84809 743.15360
           X            0.99895   0.04558   0.00536
           Y           -0.04565   0.99886   0.01408
           Z           -0.00471  -0.01431   0.99989
 This molecule is an asymmetric top.
 Rotational symmetry number  1.
 Rotational temperatures (Kelvin)      0.24488     0.14561     0.11655
 Rotational constants (GHZ):           5.10254     3.03395     2.42849
 Zero-point vibrational energy     287064.6 (Joules/Mol)
                                   68.61009 (Kcal/Mol)
 Warning -- explicit consideration of  10 degrees of freedom as
           vibrations may cause significant error
 Vibrational temperatures:    108.00   359.94   376.88   462.60   530.87
          (Kelvin)            663.15   704.65   751.09   831.51   891.03
                             1037.12  1201.39  1254.42  1314.74  1445.59
                             1581.28  1617.03  1651.58  1755.81  1840.23
                             1983.90  2043.69  2078.47  2326.26  2378.42
                             2500.46  4383.06  4945.00  5015.76  5120.65
                             5143.24  5290.01  5463.95

 Zero-point correction=                           0.109337 (Hartree/Particle)
 Thermal correction to Energy=                    0.116106
 Thermal correction to Enthalpy=                  0.117051
 Thermal correction to Gibbs Free Energy=         0.079129
 Sum of electronic and zero-point Energies=           -319.808628
 Sum of electronic and thermal Energies=              -319.801859
 Sum of electronic and thermal Enthalpies=            -319.800914
 Sum of electronic and thermal Free Energies=         -319.838836

                     E (Thermal)             CV                S
                      KCal/Mol        Cal/Mol-Kelvin    Cal/Mol-Kelvin
 Total                   72.858             24.820             79.813
 Electronic               0.000              0.000              0.000
 Translational            0.889              2.981             39.373
 Rotational               0.889              2.981             26.550
 Vibrational             71.080             18.859             13.890
 Vibration     1          0.599              1.966              4.016
 Vibration     2          0.663              1.762              1.729
 Vibration     3          0.669              1.742              1.649
 Vibration     4          0.707              1.632              1.302
 Vibration     5          0.741              1.536              1.084
 Vibration     6          0.819              1.337              0.763
 Vibration     7          0.846              1.273              0.684
 Vibration     8          0.877              1.201              0.605
 Vibration     9          0.934              1.079              0.489
 Vibration    10          0.979              0.991              0.418

 Optimization completed.
    -- Stationary point found.
 Normal termination of Gaussian 09 at Fri Aug 26 11:14:06 2022.

 -----------------------------------------------------------------
 #P Geom=AllCheck Guess=TCheck SCRF=Check CCSD(T,E4T,FrzG4)/GTBas1
 -----------------------------------------------------------------

 Structure from the checkpoint file:  "G4.Frag_950.chk"
 --------
 Frag_950
 --------
 Charge =  0 Multiplicity = 1

 SCF Done:  E(RHF) =  -317.996899662     A.U. after   13 cycles
 E2 =    -0.9235881900D+00 EUMP2 =    -0.31892048785223D+03
 CCSD(T)
 CCSD(T)= -0.31899040410D+03
 \MP4SDTQ=-318.9913087\MP4SDQ=-318.962144\CCSD=-318.9621408\CCSD(T)=-31
 Normal termination of Gaussian 09 at Fri Aug 26 11:15:54 2022.

 ---------------------------------------------------------
 #P Geom=AllCheck Guess=TCheck SCRF=Check MP4=FrzG4/GTBas2
 ---------------------------------------------------------

 Structure from the checkpoint file:  "G4.Frag_950.chk"
 --------
 Frag_950
 --------
 Charge =  0 Multiplicity = 1

 SCF Done:  E(RHF) =  -318.010929691     A.U. after   13 cycles
 E2 =    -0.9408737435D+00 EUMP2 =    -0.31895180343473D+03
 Normal termination of Gaussian 09 at Fri Aug 26 11:16:27 2022.

 ---------------------------------------------------------
 #P Geom=AllCheck Guess=TCheck SCRF=Check MP4=FrzG4/GTBas3
 ---------------------------------------------------------

 Structure from the checkpoint file:  "G4.Frag_950.chk"
 --------
 Frag_950
 --------
 Charge =  0 Multiplicity = 1

 SCF Done:  E(RHF) =  -318.044297883     A.U. after   12 cycles
 E2 =    -0.1125910975D+01 EUMP2 =    -0.31917020885820D+03
 Normal termination of Gaussian 09 at Fri Aug 26 11:19:51 2022.

 -----------------------------------------------------------
 #P Geom=AllCheck Guess=TCheck SCRF=Check MP2=Full/GTLargeXP
 -----------------------------------------------------------

 Structure from the checkpoint file:  "G4.Frag_950.chk"
 --------
 Frag_950
 --------
 Charge =  0 Multiplicity = 1

 SCF Done:  E(RHF) =  -318.133590529     A.U. after   12 cycles
 E2 =    -0.1469520533D+01 EUMP2 =    -0.31960311106249D+03
 Normal termination of Gaussian 09 at Fri Aug 26 11:21:29 2022.
 SCF Done:  E(RHF) =  -318.158435328     A.U. after    8 cycles
 Normal termination of Gaussian 09 at Fri Aug 26 11:23:07 2022.

                         Standard orientation:
 ---------------------------------------------------------------------
 Center     Atomic      Atomic             Coordinates (Angstroms)
 Number     Number       Type             X           Y           Z
 ---------------------------------------------------------------------
      1          7           0        1.626874   -0.969033   -0.485000
      2          6           0        0.817882   -0.055237   -0.108929
      3          7           0        1.079055    1.074202    0.636958
      4          6           0       -0.670621   -0.269630   -0.381809
      5          7           0       -1.369043   -0.952057    0.700398
      6          8           0       -1.266251    1.000228   -0.580692
      7          1           0        2.585777   -0.761574   -0.196224
      8          1           0        2.041268    1.368816    0.703848
      9          1           0        0.404375    1.817326    0.519987
     10          1           0       -0.748479   -0.899353   -1.275737
     11          1           0       -1.058260   -0.581006    1.595312
     12          1           0       -1.129176   -1.938849    0.689772
     13          1           0       -2.207262    0.870232   -0.413479
 ---------------------------------------------------------------------

 SCF Done:  E(RHF) =  -318.163845450     A.U. after    8 cycles

 The electronic state is 1-A.
 Alpha  occ. eigenvalues --  -20.56984 -15.57584 -15.55924 -15.52609 -11.32252
 Alpha  occ. eigenvalues --  -11.31502  -1.39058  -1.26101  -1.18317  -1.14328
 Alpha  occ. eigenvalues --   -0.93160  -0.78585  -0.73178  -0.70824  -0.68532
 Alpha  occ. eigenvalues --   -0.67320  -0.59969  -0.59568  -0.54051  -0.53033
 Alpha  occ. eigenvalues --   -0.47323  -0.44714  -0.41069  -0.37477
 Alpha virt. eigenvalues --    0.03526   0.04441   0.05139   0.05257   0.07031
 Alpha virt. eigenvalues --    0.07465   0.08111   0.09227   0.09946   0.11987
 Alpha virt. eigenvalues --    0.12427   0.12930   0.13274   0.13961   0.14606

 Mulliken charges:
               1
     1  N   -0.691561
     2  C    0.396469
     3  N   -0.718306
     4  C    0.220541
     5  N   -0.719853
     6  O   -0.620926
     7  H    0.251933
     8  H    0.310235
     9  H    0.361409
    10  H    0.201241
    11  H    0.303407
    12  H    0.310062
    13  H    0.395349
 Sum of Mulliken charges =  -0.00000

 Dipole moment (field-independent basis, Debye):
    X=              0.0561    Y=              1.5097    Z=              1.6497  Tot=              2.2369
 Quadrupole moment (field-independent basis, Debye-Ang):
   XX=            -32.7890   YY=            -36.4904   ZZ=            -38.4190
   XY=              4.2757   XZ=              2.7360   YZ=             -0.2791

 Normal termination of Gaussian 09 at Fri Aug 26 11:29:40 2022.
