 Gaussian 09, Revision E.01,
 Gaussian 09:  ES64L-G09RevE.01 30-Nov-2015

 -----
 #P G4
 -----

 --------
 Frag_669
 --------
 Symbolic Z-matrix:
 Charge =  0 Multiplicity = 1

 SCF Done:  E(RB3LYP) =  -348.233754318     A.U. after   12 cycles
 SCF Done:  E(RB3LYP) =  -348.238349960     A.U. after   10 cycles
 SCF Done:  E(RB3LYP) =  -348.238673874     A.U. after   10 cycles
 SCF Done:  E(RB3LYP) =  -348.238844084     A.U. after   10 cycles
 SCF Done:  E(RB3LYP) =  -348.238940862     A.U. after   10 cycles
 SCF Done:  E(RB3LYP) =  -348.239005054     A.U. after   10 cycles
 SCF Done:  E(RB3LYP) =  -348.239028076     A.U. after    8 cycles
 SCF Done:  E(RB3LYP) =  -348.239032096     A.U. after    8 cycles
 SCF Done:  E(RB3LYP) =  -348.239033300     A.U. after    7 cycles
 SCF Done:  E(RB3LYP) =  -348.239033601     A.U. after    7 cycles
 Optimization completed.
    -- Stationary point found.
 Normal termination of Gaussian 09 at Fri Aug 26 09:48:05 2022.

 ----------------------------------------------------------
 #P Geom=AllCheck Guess=TCheck SCRF=Check B3LYP/GTBas3 Freq
 ----------------------------------------------------------

 Structure from the checkpoint file:  "G4.Frag_669.chk"
 --------
 Frag_669
 --------
 Charge =  0 Multiplicity = 1

 SCF Done:  E(RB3LYP) =  -348.239033601     A.U. after    1 cycles

  Exact polarizability:  65.541   0.572  61.832   0.268  -0.816  61.630
 Approx polarizability:  88.374  -0.222  87.297  -0.304  -0.373  88.001

                      1                      2                      3
                      A                      A                      A
 Frequencies --     92.4733               200.3067               238.3714
 Red. masses --      3.5974                 1.0846                 1.2945
 Frc consts  --      0.0181                 0.0256                 0.0433
 IR Inten    --      0.0585                 0.2003                 1.3007

                      4                      5                      6
                      A                      A                      A
 Frequencies --    240.8044               251.1216               283.4121
 Red. masses --      1.1329                 2.0232                 2.0828
 Frc consts  --      0.0387                 0.0752                 0.0986
 IR Inten    --      2.4914                 0.9470                 0.1805

                      7                      8                      9
                      A                      A                      A
 Frequencies --    307.3933               340.6856               346.7204
 Red. masses --      1.1548                 2.5499                 2.4608
 Frc consts  --      0.0643                 0.1744                 0.1743
 IR Inten    --    109.8147                 3.6947                 3.0816

                     10                     11                     12
                      A                      A                      A
 Frequencies --    382.5656               400.7903               489.4947
 Red. masses --      1.9655                 1.3547                 3.5353
 Frc consts  --      0.1695                 0.1282                 0.4991
 IR Inten    --      9.0300                37.5938                 3.7914

                     13                     14                     15
                      A                      A                      A
 Frequencies --    531.1867               617.8285               747.5373
 Red. masses --      2.4131                 3.7533                 3.0277
 Frc consts  --      0.4012                 0.8441                 0.9969
 IR Inten    --     52.0658                22.1424                11.9485

                     16                     17                     18
                      A                      A                      A
 Frequencies --    879.3783               940.2814               941.4121
 Red. masses --      2.1500                 1.6479                 1.6445
 Frc consts  --      0.9796                 0.8584                 0.8587
 IR Inten    --     10.0783                 1.5593                 1.3170

                     19                     20                     21
                      A                      A                      A
 Frequencies --    960.2913              1024.2549              1029.5990
 Red. masses --      1.2047                 1.7418                 1.7800
 Frc consts  --      0.6545                 1.0766                 1.1118
 IR Inten    --      0.0241                46.3098                27.2570

                     22                     23                     24
                      A                      A                      A
 Frequencies --   1056.9145              1089.2121              1191.6083
 Red. masses --      2.3659                 3.3500                 1.4457
 Frc consts  --      1.5571                 2.3416                 1.2095
 IR Inten    --    106.9555                88.6649                51.4210

                     25                     26                     27
                      A                      A                      A
 Frequencies --   1239.1267              1267.8724              1301.5895
 Red. masses --      2.2129                 2.3522                 1.5024
 Frc consts  --      2.0019                 2.2278                 1.4996
 IR Inten    --      3.0639                 6.8123                 9.7981

                     28                     29                     30
                      A                      A                      A
 Frequencies --   1308.7875              1389.8047              1396.6645
 Red. masses --      1.8303                 1.2475                 1.2321
 Frc consts  --      1.8471                 1.4197                 1.4161
 IR Inten    --     19.7303                 4.6052                 4.1068

                     31                     32                     33
                      A                      A                      A
 Frequencies --   1408.7134              1426.7390              1456.0310
 Red. masses --      1.3065                 1.1849                 1.3680
 Frc consts  --      1.5275                 1.4211                 1.7088
 IR Inten    --      2.5193                18.8474                48.5848

                     34                     35                     36
                      A                      A                      A
 Frequencies --   1477.4603              1489.2536              1491.0217
 Red. masses --      1.0495                 1.0456                 1.0459
 Frc consts  --      1.3498                 1.3664                 1.3700
 IR Inten    --      0.0769                 0.4815                 0.2731

                     37                     38                     39
                      A                      A                      A
 Frequencies --   1500.4819              1504.1299              1524.0108
 Red. masses --      1.0601                 1.0550                 1.0781
 Frc consts  --      1.4062                 1.4063                 1.4753
 IR Inten    --      4.1537                 5.7415                16.8504

                     40                     41                     42
                      A                      A                      A
 Frequencies --   2995.7863              3025.7202              3027.6035
 Red. masses --      1.0842                 1.0389                 1.0371
 Frc consts  --      5.7330                 5.6035                 5.6010
 IR Inten    --     46.3803                39.2203                16.1725

                     43                     44                     45
                      A                      A                      A
 Frequencies --   3034.9307              3087.5136              3089.3302
 Red. masses --      1.0389                 1.0986                 1.0991
 Frc consts  --      5.6378                 6.1703                 6.1802
 IR Inten    --     21.0802                 9.9907                14.6314

                     46                     47                     48
                      A                      A                      A
 Frequencies --   3095.6800              3119.6940              3122.2467
 Red. masses --      1.0995                 1.1001                 1.1008
 Frc consts  --      6.2078                 6.3083                 6.3224
 IR Inten    --     61.9346                23.4709                 6.8860

                     49                     50                     51
                      A                      A                      A
 Frequencies --   3128.1265              3791.0389              3812.4707
 Red. masses --      1.0991                 1.0648                 1.0657
 Frc consts  --      6.3365                 9.0166                 9.1262
 IR Inten    --     27.8906                16.3161                27.8843

 - Thermochemistry -
 -------------------
 Temperature   298.150 Kelvin.  Pressure   1.00000 Atm.
 Atom     1 has atomic number  6 and mass  12.00000

 Molecular mass:   104.08373 amu.
 Principal axes and moments of inertia in atomic units:
                           1         2         3
     Eigenvalues --   571.49504 790.45800 941.68812
           X            0.99986   0.01409   0.00919
           Y           -0.01381   0.99945  -0.03015
           Z           -0.00961   0.03002   0.99950
 This molecule is an asymmetric top.
 Rotational symmetry number  1.
 Warning -- assumption of classical behavior for rotation
           may cause significant error
 Rotational temperatures (Kelvin)      0.15156     0.10957     0.09198
 Rotational constants (GHZ):           3.15793     2.28316     1.91650
 Zero-point vibrational energy     443189.3 (Joules/Mol)
                                  105.92479 (Kcal/Mol)
 Warning -- explicit consideration of  14 degrees of freedom as
           vibrations may cause significant error
 Vibrational temperatures:    133.05   288.20   342.96   346.46   361.31
          (Kelvin)            407.77   442.27   490.17   498.85   550.43
                              576.65   704.27   764.26   888.92  1075.54
                             1265.23  1352.85  1354.48  1381.64  1473.67
                             1481.36  1520.66  1567.13  1714.46  1782.82
                             1824.18  1872.69  1883.05  1999.62  2009.49
                             2026.82  2052.76  2094.90  2125.73  2142.70
                             2145.24  2158.86  2164.10  2192.71  4310.26
                             4353.33  4356.04  4366.58  4442.24  4444.85
                             4453.99  4488.54  4492.21  4500.67  5454.45
                             5485.29

 Zero-point correction=                           0.168802 (Hartree/Particle)
 Thermal correction to Energy=                    0.177782
 Thermal correction to Enthalpy=                  0.178726
 Thermal correction to Gibbs Free Energy=         0.136539
 Sum of electronic and zero-point Energies=           -348.070232
 Sum of electronic and thermal Energies=              -348.061252
 Sum of electronic and thermal Enthalpies=            -348.060308
 Sum of electronic and thermal Free Energies=         -348.102495

                     E (Thermal)             CV                S
                      KCal/Mol        Cal/Mol-Kelvin    Cal/Mol-Kelvin
 Total                  111.560             33.737             88.790
 Electronic               0.000              0.000              0.000
 Translational            0.889              2.981             39.837
 Rotational               0.889              2.981             27.544
 Vibrational            109.782             27.776             21.409
 Vibration     1          0.602              1.955              3.607
 Vibration     2          0.638              1.839              2.130
 Vibration     3          0.656              1.782              1.815
 Vibration     4          0.658              1.778              1.797
 Vibration     5          0.663              1.761              1.723
 Vibration     6          0.682              1.704              1.513
 Vibration     7          0.697              1.660              1.376
 Vibration     8          0.720              1.594              1.209
 Vibration     9          0.725              1.582              1.181
 Vibration    10          0.752              1.507              1.029
 Vibration    11          0.767              1.468              0.960
 Vibration    12          0.845              1.273              0.685
 Vibration    13          0.886              1.181              0.585
 Vibration    14          0.978              0.994              0.420

 Optimization completed.
    -- Stationary point found.
 Normal termination of Gaussian 09 at Fri Aug 26 09:49:04 2022.

 -----------------------------------------------------------------
 #P Geom=AllCheck Guess=TCheck SCRF=Check CCSD(T,E4T,FrzG4)/GTBas1
 -----------------------------------------------------------------

 Structure from the checkpoint file:  "G4.Frag_669.chk"
 --------
 Frag_669
 --------
 Charge =  0 Multiplicity = 1

 SCF Done:  E(RHF) =  -346.044514779     A.U. after   11 cycles
 E2 =    -0.1022300230D+01 EUMP2 =    -0.34706681500847D+03
 CCSD(T)
 CCSD(T)= -0.34716291390D+03
 622168\MP4SDQ=-347.1321778\CCSD=-347.1328985\CCSD(T)=-347.1629139\RMSD
 Normal termination of Gaussian 09 at Fri Aug 26 09:53:53 2022.

 ---------------------------------------------------------
 #P Geom=AllCheck Guess=TCheck SCRF=Check MP4=FrzG4/GTBas2
 ---------------------------------------------------------

 Structure from the checkpoint file:  "G4.Frag_669.chk"
 --------
 Frag_669
 --------
 Charge =  0 Multiplicity = 1

 SCF Done:  E(RHF) =  -346.053386002     A.U. after   11 cycles
 E2 =    -0.1038819387D+01 EUMP2 =    -0.34709220538900D+03
 Normal termination of Gaussian 09 at Fri Aug 26 09:55:26 2022.

 ---------------------------------------------------------
 #P Geom=AllCheck Guess=TCheck SCRF=Check MP4=FrzG4/GTBas3
 ---------------------------------------------------------

 Structure from the checkpoint file:  "G4.Frag_669.chk"
 --------
 Frag_669
 --------
 Charge =  0 Multiplicity = 1

 SCF Done:  E(RHF) =  -346.092300889     A.U. after   10 cycles
 E2 =    -0.1278937821D+01 EUMP2 =    -0.34737123870991D+03
 Normal termination of Gaussian 09 at Fri Aug 26 10:09:43 2022.

 -----------------------------------------------------------
 #P Geom=AllCheck Guess=TCheck SCRF=Check MP2=Full/GTLargeXP
 -----------------------------------------------------------

 Structure from the checkpoint file:  "G4.Frag_669.chk"
 --------
 Frag_669
 --------
 Charge =  0 Multiplicity = 1

 SCF Done:  E(RHF) =  -346.179569246     A.U. after   11 cycles
 E2 =    -0.1673205038D+01 EUMP2 =    -0.34785277428406D+03
 Normal termination of Gaussian 09 at Fri Aug 26 10:13:55 2022.
 SCF Done:  E(RHF) =  -346.207584473     A.U. after    8 cycles
 Normal termination of Gaussian 09 at Fri Aug 26 10:18:17 2022.

                         Standard orientation:
 ---------------------------------------------------------------------
 Center     Atomic      Atomic             Coordinates (Angstroms)
 Number     Number       Type             X           Y           Z
 ---------------------------------------------------------------------
      1          6           0       -0.678037   -0.048210    1.542115
      2          6           0       -0.615935   -0.001103    0.004322
      3          6           0       -1.301958    1.278674   -0.505568
      4          6           0       -1.312963   -1.236771   -0.589661
      5          6           0        0.855719    0.001872   -0.471034
      6          8           0        1.477193    1.163254    0.032663
      7          8           0        1.580401   -1.150742   -0.102678
      8          1           0       -1.716894    0.011648    1.881573
      9          1           0       -0.269820   -0.986325    1.936948
     10          1           0       -0.123957    0.783817    1.983707
     11          1           0       -2.365085    1.272570   -0.242776
     12          1           0       -1.230946    1.354481   -1.596823
     13          1           0       -0.843133    2.171821   -0.076196
     14          1           0       -0.807339   -2.157537   -0.287959
     15          1           0       -1.316292   -1.200881   -1.685026
     16          1           0       -2.354425   -1.286161   -0.255615
     17          1           0        0.878445   -0.009517   -1.571175
     18          1           0        2.391868    1.144992   -0.269014
     19          1           0        1.615866   -1.165782    0.861432
 ---------------------------------------------------------------------

 SCF Done:  E(RHF) =  -346.213703457     A.U. after    7 cycles

 The electronic state is 1-A.
 Alpha  occ. eigenvalues --  -20.56330 -20.56272 -11.33099 -11.23684 -11.21370
 Alpha  occ. eigenvalues --  -11.21001 -11.20932  -1.41295  -1.33315  -1.09699
 Alpha  occ. eigenvalues --   -0.93524  -0.92883  -0.90372  -0.76614  -0.72103
 Alpha  occ. eigenvalues --   -0.65880  -0.64503  -0.62790  -0.59113  -0.58035
 Alpha  occ. eigenvalues --   -0.55070  -0.53512  -0.53284  -0.51415  -0.49860
 Alpha  occ. eigenvalues --   -0.48226  -0.46334  -0.46160  -0.43452
 Alpha virt. eigenvalues --    0.03303   0.04052   0.04123   0.04466   0.06389
 Alpha virt. eigenvalues --    0.06539   0.06930   0.07442   0.07647   0.09645
 Alpha virt. eigenvalues --    0.09778   0.10012   0.10308   0.12857   0.13295

 Mulliken charges:
               1
     1  C   -0.631167
     2  C    0.401690
     3  C   -0.597957
     4  C   -0.582502
     5  C    0.177480
     6  O   -0.610394
     7  O   -0.602496
     8  H    0.174188
     9  H    0.152596
    10  H    0.198774
    11  H    0.164830
    12  H    0.156877
    13  H    0.191112
    14  H    0.184366
    15  H    0.158037
    16  H    0.165834
    17  H    0.144296
    18  H    0.381360
    19  H    0.373076
 Sum of Mulliken charges =  -0.00000

 Dipole moment (field-independent basis, Debye):
    X=             -0.0238    Y=              0.1224    Z=              0.2330  Tot=              0.2643
 Quadrupole moment (field-independent basis, Debye-Ang):
   XX=            -42.8547   YY=            -49.2196   ZZ=            -43.5188
   XY=              1.9530   XZ=              0.2601   YZ=             -2.6532

 Normal termination of Gaussian 09 at Fri Aug 26 10:31:11 2022.
