 Gaussian 09, Revision E.01,
 Gaussian 09:  ES64L-G09RevE.01 30-Nov-2015

 -----
 #P G4
 -----

 --------
 Frag_839
 --------
 Symbolic Z-matrix:
 Charge =  0 Multiplicity = 1

 SCF Done:  E(RB3LYP) =  -248.489163636     A.U. after   13 cycles
 SCF Done:  E(RB3LYP) =  -248.496140616     A.U. after   12 cycles
 SCF Done:  E(RB3LYP) =  -248.496672249     A.U. after   12 cycles
 SCF Done:  E(RB3LYP) =  -248.496994678     A.U. after   12 cycles
 SCF Done:  E(RB3LYP) =  -248.497160049     A.U. after   12 cycles
 SCF Done:  E(RB3LYP) =  -248.497298126     A.U. after   11 cycles
 SCF Done:  E(RB3LYP) =  -248.497385013     A.U. after   11 cycles
 SCF Done:  E(RB3LYP) =  -248.497390347     A.U. after    8 cycles
 SCF Done:  E(RB3LYP) =  -248.497394920     A.U. after    9 cycles
 SCF Done:  E(RB3LYP) =  -248.497398035     A.U. after   10 cycles
 SCF Done:  E(RB3LYP) =  -248.497400773     A.U. after   10 cycles
 SCF Done:  E(RB3LYP) =  -248.497400863     A.U. after    7 cycles
 Optimization completed.
    -- Stationary point found.
 Normal termination of Gaussian 09 at Fri Aug 26 09:57:00 2022.

 ----------------------------------------------------------
 #P Geom=AllCheck Guess=TCheck SCRF=Check B3LYP/GTBas3 Freq
 ----------------------------------------------------------

 Structure from the checkpoint file:  "G4.Frag_839.chk"
 --------
 Frag_839
 --------
 Charge =  0 Multiplicity = 1

 SCF Done:  E(RB3LYP) =  -248.497400863     A.U. after    1 cycles

  Exact polarizability:  55.726  -0.657  37.621   0.255  -2.705  37.958
 Approx polarizability:  75.884  -4.772  52.598   4.220  -5.779  56.522

                      1                      2                      3
                      A                      A                      A
 Frequencies --     69.5602               244.5604               247.9766
 Red. masses --      3.3157                 1.0495                 1.0931
 Frc consts  --      0.0095                 0.0370                 0.0396
 IR Inten    --     11.7850                 3.7581               115.8466

                      4                      5                      6
                      A                      A                      A
 Frequencies --    293.0195               371.5845               396.0033
 Red. masses --      2.1956                 2.4464                 2.9936
 Frc consts  --      0.1111                 0.1990                 0.2766
 IR Inten    --     10.8574                17.7883                 3.2030

                      7                      8                      9
                      A                      A                      A
 Frequencies --    558.6858               786.1477               855.1330
 Red. masses --      4.5527                 1.5707                 1.8821
 Frc consts  --      0.8372                 0.5720                 0.8109
 IR Inten    --      4.1860                30.1653                12.3376

                     10                     11                     12
                      A                      A                      A
 Frequencies --    948.6113              1055.1534              1097.4591
 Red. masses --      2.0147                 1.7815                 1.8492
 Frc consts  --      1.0682                 1.1686                 1.3122
 IR Inten    --      9.0893                 5.6022                24.3511

                     13                     14                     15
                      A                      A                      A
 Frequencies --   1121.2380              1127.7424              1204.0940
 Red. masses --      1.8371                 1.5282                 1.1445
 Frc consts  --      1.3607                 1.1452                 0.9777
 IR Inten    --    101.9902                26.3645                62.9884

                     16                     17                     18
                      A                      A                      A
 Frequencies --   1278.9893              1355.7091              1378.8183
 Red. masses --      1.1698                 1.2539                 1.3836
 Frc consts  --      1.1274                 1.3579                 1.5498
 IR Inten    --      8.2739                16.9680                33.1545

                     19                     20                     21
                      A                      A                      A
 Frequencies --   1395.7301              1429.3452              1490.1572
 Red. masses --      1.2622                 1.5791                 1.0447
 Frc consts  --      1.4487                 1.9008                 1.3669
 IR Inten    --      7.0147                14.1238                 4.2542

                     22                     23                     24
                      A                      A                      A
 Frequencies --   1498.7130              1743.4112              3007.6628
 Red. masses --      1.1128                 6.9845                 1.0828
 Frc consts  --      1.4727                12.5080                 5.7711
 IR Inten    --      2.3875                45.8258                12.6470

                     25                     26                     27
                      A                      A                      A
 Frequencies --   3018.2417              3028.4150              3097.8552
 Red. masses --      1.0863                 1.0381                 1.0995
 Frc consts  --      5.8303                 5.6094                 6.2170
 IR Inten    --     58.3319                19.0210                26.4109

                     28                     29                     30
                      A                      A                      A
 Frequencies --   3122.9946              3448.0211              3826.1447
 Red. masses --      1.1019                 1.0758                 1.0662
 Frc consts  --      6.3318                 7.5354                 9.1963
 IR Inten    --     18.1765                 0.7476                20.1160

 - Thermochemistry -
 -------------------
 Temperature   298.150 Kelvin.  Pressure   1.00000 Atm.
 Atom     1 has atomic number  6 and mass  12.00000

 Molecular mass:    73.05276 amu.
 Principal axes and moments of inertia in atomic units:
                           1         2         3
     Eigenvalues --   217.89424 475.49304 627.92796
           X            0.99840   0.05280  -0.02033
           Y           -0.05279   0.99861   0.00099
           Z            0.02035   0.00009   0.99979
 This molecule is an asymmetric top.
 Rotational symmetry number  1.
 Rotational temperatures (Kelvin)      0.39750     0.18216     0.13794
 Rotational constants (GHZ):           8.28265     3.79552     2.87412
 Zero-point vibrational energy     266152.2 (Joules/Mol)
                                   63.61191 (Kcal/Mol)
 Warning -- explicit consideration of   7 degrees of freedom as
           vibrations may cause significant error
 Vibrational temperatures:    100.08   351.87   356.78   421.59   534.63
          (Kelvin)            569.76   803.82  1131.09  1230.34  1364.84
                             1518.13  1579.00  1613.21  1622.57  1732.42
                             1840.18  1950.56  1983.81  2008.14  2056.51
                             2144.00  2156.31  2508.38  4327.35  4342.57
                             4357.21  4457.12  4493.29  4960.93  5504.96

 Zero-point correction=                           0.101372 (Hartree/Particle)
 Thermal correction to Energy=                    0.107610
 Thermal correction to Enthalpy=                  0.108554
 Thermal correction to Gibbs Free Energy=         0.071922
 Sum of electronic and zero-point Energies=           -248.396029
 Sum of electronic and thermal Energies=              -248.389791
 Sum of electronic and thermal Enthalpies=            -248.388846
 Sum of electronic and thermal Free Energies=         -248.425479

                     E (Thermal)             CV                S
                      KCal/Mol        Cal/Mol-Kelvin    Cal/Mol-Kelvin
 Total                   67.526             21.068             77.100
 Electronic               0.000              0.000              0.000
 Translational            0.889              2.981             38.782
 Rotational               0.889              2.981             25.679
 Vibrational             65.749             15.106             12.639
 Vibration     1          0.598              1.969              4.166
 Vibration     2          0.660              1.772              1.769
 Vibration     3          0.662              1.766              1.745
 Vibration     4          0.688              1.687              1.456
 Vibration     5          0.743              1.531              1.073
 Vibration     6          0.763              1.479              0.977
 Vibration     7          0.914              1.121              0.526

 Optimization completed.
    -- Stationary point found.
 Normal termination of Gaussian 09 at Fri Aug 26 09:57:21 2022.

 -----------------------------------------------------------------
 #P Geom=AllCheck Guess=TCheck SCRF=Check CCSD(T,E4T,FrzG4)/GTBas1
 -----------------------------------------------------------------

 Structure from the checkpoint file:  "G4.Frag_839.chk"
 --------
 Frag_839
 --------
 Charge =  0 Multiplicity = 1

 SCF Done:  E(RHF) =  -246.956143676     A.U. after   12 cycles
 E2 =    -0.7258020317D+00 EUMP2 =    -0.24768194570813D+03
 CCSD(T)
 CCSD(T)= -0.24774919787D+03
 =-247.7262936\CCSD(T)=-247.7491979\RMSD=5.950e-09\PG=C01 [X(C3H7N1O1)]
 Normal termination of Gaussian 09 at Fri Aug 26 09:58:16 2022.

 ---------------------------------------------------------
 #P Geom=AllCheck Guess=TCheck SCRF=Check MP4=FrzG4/GTBas2
 ---------------------------------------------------------

 Structure from the checkpoint file:  "G4.Frag_839.chk"
 --------
 Frag_839
 --------
 Charge =  0 Multiplicity = 1

 SCF Done:  E(RHF) =  -246.965755768     A.U. after   13 cycles
 E2 =    -0.7371601925D+00 EUMP2 =    -0.24770291596059D+03
 Normal termination of Gaussian 09 at Fri Aug 26 09:58:32 2022.

 ---------------------------------------------------------
 #P Geom=AllCheck Guess=TCheck SCRF=Check MP4=FrzG4/GTBas3
 ---------------------------------------------------------

 Structure from the checkpoint file:  "G4.Frag_839.chk"
 --------
 Frag_839
 --------
 Charge =  0 Multiplicity = 1

 SCF Done:  E(RHF) =  -246.989925365     A.U. after   11 cycles
 E2 =    -0.8919702486D+00 EUMP2 =    -0.24788189561322D+03
 Normal termination of Gaussian 09 at Fri Aug 26 09:59:55 2022.

 -----------------------------------------------------------
 #P Geom=AllCheck Guess=TCheck SCRF=Check MP2=Full/GTLargeXP
 -----------------------------------------------------------

 Structure from the checkpoint file:  "G4.Frag_839.chk"
 --------
 Frag_839
 --------
 Charge =  0 Multiplicity = 1

 SCF Done:  E(RHF) =  -247.056013097     A.U. after   12 cycles
 E2 =    -0.1171244182D+01 EUMP2 =    -0.24822725727916D+03
 Normal termination of Gaussian 09 at Fri Aug 26 10:00:46 2022.
 SCF Done:  E(RHF) =  -247.075842727     A.U. after    8 cycles
 Normal termination of Gaussian 09 at Fri Aug 26 10:01:40 2022.

                         Standard orientation:
 ---------------------------------------------------------------------
 Center     Atomic      Atomic             Coordinates (Angstroms)
 Number     Number       Type             X           Y           Z
 ---------------------------------------------------------------------
      1          6           0        1.008877    1.266102    0.132630
      2          6           0        0.390662   -0.058188   -0.332178
      3          8           0        1.183423   -1.175697    0.054448
      4          6           0       -0.959716   -0.264492    0.311406
      5          7           0       -2.026325    0.118051   -0.255436
      6          1           0        2.000403    1.402465   -0.314983
      7          1           0        0.380349    2.108462   -0.169354
      8          1           0        1.120485    1.278650    1.221566
      9          1           0        0.244431   -0.028443   -1.421116
     10          1           0        2.077161   -1.031608   -0.271166
     11          1           0       -0.906181   -0.743878    1.299778
     12          1           0       -2.838698   -0.066965    0.336599
 ---------------------------------------------------------------------

 SCF Done:  E(RHF) =  -247.080062691     A.U. after    8 cycles

 The electronic state is 1-A.
 Alpha  occ. eigenvalues --  -20.56581 -15.55408 -11.29162 -11.28275 -11.22921
 Alpha  occ. eigenvalues --   -1.37395  -1.21192  -1.02903  -0.89914  -0.77260
 Alpha  occ. eigenvalues --   -0.71994  -0.65757  -0.62399  -0.61820  -0.55473
 Alpha  occ. eigenvalues --   -0.54151  -0.50945  -0.46819  -0.42841  -0.42198
 Alpha virt. eigenvalues --    0.03543   0.04066   0.04717   0.05502   0.07108
 Alpha virt. eigenvalues --    0.07395   0.07589   0.07935   0.09390   0.10574
 Alpha virt. eigenvalues --    0.12311   0.13105   0.13430   0.14120   0.15213

 Mulliken charges:
               1
     1  C   -0.535417
     2  C    0.167333
     3  O   -0.589310
     4  C    0.009728
     5  N   -0.613458
     6  H    0.150359
     7  H    0.194987
     8  H    0.173967
     9  H    0.178788
    10  H    0.370274
    11  H    0.201356
    12  H    0.291393
 Sum of Mulliken charges =  -0.00000

 Dipole moment (field-independent basis, Debye):
    X=              1.5375    Y=              0.6637    Z=              0.8960  Tot=              1.8993
 Quadrupole moment (field-independent basis, Debye-Ang):
   XX=            -27.6467   YY=            -34.3267   ZZ=            -31.3444
   XY=              2.1762   XZ=             -5.7068   YZ=              0.5228

 Normal termination of Gaussian 09 at Fri Aug 26 10:07:59 2022.
