 Gaussian 09, Revision E.01,
 Gaussian 09:  ES64L-G09RevE.01 30-Nov-2015

 -----
 #P G4
 -----

 --------
 Frag_588
 --------
 Symbolic Z-matrix:
 Charge =  0 Multiplicity = 1

 SCF Done:  E(RB3LYP) =  -302.633485917     A.U. after   15 cycles
 SCF Done:  E(RB3LYP) =  -302.655764235     A.U. after   11 cycles
 SCF Done:  E(RB3LYP) =  -302.658418183     A.U. after   12 cycles
 SCF Done:  E(RB3LYP) =  -302.658483591     A.U. after   11 cycles
 SCF Done:  E(RB3LYP) =  -302.658488428     A.U. after    8 cycles
 Optimization completed.
    -- Stationary point found.
 Normal termination of Gaussian 09 at Thu Aug 25 10:41:37 2022.

 ----------------------------------------------------------
 #P Geom=AllCheck Guess=TCheck SCRF=Check B3LYP/GTBas3 Freq
 ----------------------------------------------------------

 Structure from the checkpoint file:  "G4.Frag_588.chk"
 --------
 Frag_588
 --------
 Charge =  0 Multiplicity = 1

 SCF Done:  E(RB3LYP) =  -302.658488428     A.U. after    1 cycles

  Exact polarizability:  56.124  -4.045  62.088  -0.000   0.000  29.470
 Approx polarizability:  73.368 -11.266 109.753  -0.000   0.000  45.281

                      1                      2                      3
                      A                      A                      A
 Frequencies --     68.7445               169.8461               281.9475
 Red. masses --      4.7880                 1.0501                 3.6442
 Frc consts  --      0.0133                 0.0178                 0.1707
 IR Inten    --      1.0852                 0.1357                 4.5007

                      4                      5                      6
                      A                      A                      A
 Frequencies --    371.7639               414.4664               450.7694
 Red. masses --      2.1209                 4.0235                 1.2922
 Frc consts  --      0.1727                 0.4072                 0.1547
 IR Inten    --     22.5411                 3.5905                67.2098

                      7                      8                      9
                      A                      A                      A
 Frequencies --    529.3224               575.8468               678.1063
 Red. masses --      4.7346                 3.2803                 2.0729
 Frc consts  --      0.7816                 0.6409                 0.5616
 IR Inten    --     14.9344                40.4781                 5.2738

                     10                     11                     12
                      A                      A                      A
 Frequencies --    755.7772               872.2294               968.9651
 Red. masses --      3.2635                 1.4627                 1.4865
 Frc consts  --      1.0983                 0.6557                 0.8223
 IR Inten    --     11.7063                66.3106                68.0723

                     13                     14                     15
                      A                      A                      A
 Frequencies --    991.3243              1084.6880              1086.5884
 Red. masses --      2.0860                 2.1919                 1.4077
 Frc consts  --      1.2078                 1.5194                 0.9792
 IR Inten    --     47.7096                41.8857                 4.2425

                     16                     17                     18
                      A                      A                      A
 Frequencies --   1122.4602              1161.5361              1359.9048
 Red. masses --      1.3813                 1.4504                 1.3900
 Frc consts  --      1.0253                 1.1529                 1.5145
 IR Inten    --    118.5386               122.5314                46.8038

                     19                     20                     21
                      A                      A                      A
 Frequencies --   1401.6101              1437.4568              1467.9379
 Red. masses --      1.4645                 2.4827                 1.0854
 Frc consts  --      1.6950                 3.0225                 1.3780
 IR Inten    --     23.5924                75.0167                 1.0225

                     22                     23                     24
                      A                      A                      A
 Frequencies --   1471.5900              1713.6486              1734.8455
 Red. masses --      1.0455                 8.6775                 7.8912
 Frc consts  --      1.3340                15.0137                13.9931
 IR Inten    --      6.6145               133.0229                52.1385

                     25                     26                     27
                      A                      A                      A
 Frequencies --   3054.0222              3112.9554              3157.2583
 Red. masses --      1.0358                 1.0982                 1.1034
 Frc consts  --      5.6919                 6.2702                 6.4805
 IR Inten    --      4.4399                 6.7776                 8.7441

                     28                     29                     30
                      A                      A                      A
 Frequencies --   3448.1567              3457.0242              3807.6792
 Red. masses --      1.0754                 1.0730                 1.0655
 Frc consts  --      7.5334                 7.5553                 9.1018
 IR Inten    --      4.0165                 2.3609                41.1630

 - Thermochemistry -
 -------------------
 Temperature   298.150 Kelvin.  Pressure   1.00000 Atm.
 Atom     1 has atomic number  6 and mass  12.00000

 Molecular mass:    86.04801 amu.
 Principal axes and moments of inertia in atomic units:
                           1         2         3
     Eigenvalues --   334.77291 515.38899 839.13040
           X            0.99758   0.06958  -0.00000
           Y           -0.06958   0.99758  -0.00000
           Z            0.00000   0.00000   1.00000
 This molecule is an asymmetric top.
 Rotational symmetry number  1.
 Rotational temperatures (Kelvin)      0.25872     0.16806     0.10322
 Rotational constants (GHZ):           5.39094     3.50171     2.15073
 Zero-point vibrational energy     252462.7 (Joules/Mol)
                                   60.34004 (Kcal/Mol)
 Warning -- explicit consideration of   8 degrees of freedom as
           vibrations may cause significant error
 Vibrational temperatures:     98.91   244.37   405.66   534.88   596.32
          (Kelvin)            648.56   761.58   828.51   975.64  1087.39
                             1254.94  1394.12  1426.29  1560.62  1563.36
                             1614.97  1671.19  1956.60  2016.60  2068.18
                             2112.03  2117.29  2465.56  2496.05  4394.05
                             4478.84  4542.58  4961.12  4973.88  5478.39

 Zero-point correction=                           0.096158 (Hartree/Particle)
 Thermal correction to Energy=                    0.102599
 Thermal correction to Enthalpy=                  0.103543
 Thermal correction to Gibbs Free Energy=         0.066000
 Sum of electronic and zero-point Energies=           -302.562330
 Sum of electronic and thermal Energies=              -302.555889
 Sum of electronic and thermal Enthalpies=            -302.554945
 Sum of electronic and thermal Free Energies=         -302.592488

                     E (Thermal)             CV                S
                      KCal/Mol        Cal/Mol-Kelvin    Cal/Mol-Kelvin
 Total                   64.382             22.682             79.017
 Electronic               0.000              0.000              0.000
 Translational            0.889              2.981             39.270
 Rotational               0.889              2.981             26.473
 Vibrational             62.605             16.720             13.273
 Vibration     1          0.598              1.969              4.189
 Vibration     2          0.625              1.880              2.437
 Vibration     3          0.681              1.707              1.522
 Vibration     4          0.743              1.530              1.073
 Vibration     5          0.778              1.439              0.911
 Vibration     6          0.810              1.359              0.793
 Vibration     7          0.884              1.185              0.589
 Vibration     8          0.932              1.084              0.493

 Optimization completed.
    -- Stationary point found.
 Normal termination of Gaussian 09 at Thu Aug 25 10:43:20 2022.

 -----------------------------------------------------------------
 #P Geom=AllCheck Guess=TCheck SCRF=Check CCSD(T,E4T,FrzG4)/GTBas1
 -----------------------------------------------------------------

 Structure from the checkpoint file:  "G4.Frag_588.chk"
 --------
 Frag_588
 --------
 Charge =  0 Multiplicity = 1

 SCF Done:  E(RHF) =  -300.828670235     A.U. after   13 cycles
 E2 =    -0.8822492489D+00 EUMP2 =    -0.30171091948356D+03
 CCSD(T)
 CCSD(T)= -0.30178191692D+03
 CSD=-301.7502933\CCSD(T)=-301.7819169\RMSD=2.281e-09\PG=C01 [X(C3H6N2O
 Normal termination of Gaussian 09 at Thu Aug 25 10:48:59 2022.

 ---------------------------------------------------------
 #P Geom=AllCheck Guess=TCheck SCRF=Check MP4=FrzG4/GTBas2
 ---------------------------------------------------------

 Structure from the checkpoint file:  "G4.Frag_588.chk"
 --------
 Frag_588
 --------
 Charge =  0 Multiplicity = 1

 SCF Done:  E(RHF) =  -300.838238047     A.U. after   13 cycles
 E2 =    -0.8944650266D+00 EUMP2 =    -0.30173270307379D+03
 Normal termination of Gaussian 09 at Thu Aug 25 10:55:20 2022.

 ---------------------------------------------------------
 #P Geom=AllCheck Guess=TCheck SCRF=Check MP4=FrzG4/GTBas3
 ---------------------------------------------------------

 Structure from the checkpoint file:  "G4.Frag_588.chk"
 --------
 Frag_588
 --------
 Charge =  0 Multiplicity = 1

 SCF Done:  E(RHF) =  -300.869302081     A.U. after   11 cycles
 E2 =    -0.1067352517D+01 EUMP2 =    -0.30193665459881D+03
 Normal termination of Gaussian 09 at Thu Aug 25 12:43:40 2022.

 -----------------------------------------------------------
 #P Geom=AllCheck Guess=TCheck SCRF=Check MP2=Full/GTLargeXP
 -----------------------------------------------------------

 Structure from the checkpoint file:  "G4.Frag_588.chk"
 --------
 Frag_588
 --------
 Charge =  0 Multiplicity = 1

 SCF Done:  E(RHF) =  -300.947404980     A.U. after   12 cycles
 E2 =    -0.1400213074D+01 EUMP2 =    -0.30234761805434D+03
 Normal termination of Gaussian 09 at Thu Aug 25 12:48:20 2022.
 SCF Done:  E(RHF) =  -300.970946419     A.U. after    8 cycles
 Normal termination of Gaussian 09 at Thu Aug 25 12:52:39 2022.

                         Standard orientation:
 ---------------------------------------------------------------------
 Center     Atomic      Atomic             Coordinates (Angstroms)
 Number     Number       Type             X           Y           Z
 ---------------------------------------------------------------------
      1          6           0       -1.758575   -0.832540    0.000005
      2          6           0       -0.717095    0.250977   -0.000009
      3          7           0       -1.054069    1.478433   -0.000004
      4          6           0        0.718646   -0.203098    0.000004
      5          7           0        1.005151   -1.439593   -0.000005
      6          8           0        1.580557    0.848909    0.000005
      7          1           0       -1.644039   -1.478498   -0.875361
      8          1           0       -2.748576   -0.375811   -0.000008
      9          1           0       -1.644050   -1.478467    0.875396
     10          1           0       -0.222483    2.073582    0.000003
     11          1           0        2.012151   -1.616125   -0.000007
     12          1           0        2.487112    0.520137    0.000002
 ---------------------------------------------------------------------

 SCF Done:  E(RHF) =  -300.975859607     A.U. after    8 cycles

 The electronic state is 1-A.
 Alpha  occ. eigenvalues --  -20.62362 -15.56493 -15.55907 -11.36496 -11.29729
 Alpha  occ. eigenvalues --  -11.22061  -1.45045  -1.23278  -1.20702  -0.99288
 Alpha  occ. eigenvalues --   -0.90787  -0.77291  -0.73139  -0.70537  -0.63349
 Alpha  occ. eigenvalues --   -0.62440  -0.57279  -0.56789  -0.54224  -0.47902
 Alpha  occ. eigenvalues --   -0.45372  -0.42762  -0.41603
 Alpha virt. eigenvalues --    0.02643   0.04613   0.05350   0.05437   0.06528
 Alpha virt. eigenvalues --    0.07463   0.07808   0.08900   0.09033   0.09315
 Alpha virt. eigenvalues --    0.10175   0.11946   0.12878   0.13251   0.13700

 Mulliken charges:
               1
     1  C   -0.516927
     2  C    0.309032
     3  N   -0.581365
     4  C    0.387532
     5  N   -0.616879
     6  O   -0.539904
     7  H    0.197400
     8  H    0.206888
     9  H    0.197397
    10  H    0.306700
    11  H    0.262000
    12  H    0.388126
 Sum of Mulliken charges =  -0.00000

 Dipole moment (field-independent basis, Debye):
    X=              3.3459    Y=             -0.6386    Z=              0.0000  Tot=              3.4063
 Quadrupole moment (field-independent basis, Debye-Ang):
   XX=            -28.8749   YY=            -41.3646   ZZ=            -37.0698
   XY=              3.0812   XZ=             -0.0000   YZ=              0.0000

 Normal termination of Gaussian 09 at Thu Aug 25 15:05:41 2022.
