 Gaussian 09, Revision E.01,
 Gaussian 09:  ES64L-G09RevE.01 30-Nov-2015

 -----
 #P G4
 -----

 --------
 Frag_633
 --------
 Symbolic Z-matrix:
 Charge =  0 Multiplicity = 1

 SCF Done:  E(RB3LYP) =  -285.628489858     A.U. after   13 cycles
 SCF Done:  E(RB3LYP) =  -285.633762255     A.U. after   11 cycles
 SCF Done:  E(RB3LYP) =  -285.634101715     A.U. after   10 cycles
 SCF Done:  E(RB3LYP) =  -285.634137243     A.U. after    8 cycles
 SCF Done:  E(RB3LYP) =  -285.634164761     A.U. after    9 cycles
 SCF Done:  E(RB3LYP) =  -285.634269891     A.U. after   11 cycles
 SCF Done:  E(RB3LYP) =  -285.634292043     A.U. after    9 cycles
 SCF Done:  E(RB3LYP) =  -285.634298243     A.U. after    9 cycles
 SCF Done:  E(RB3LYP) =  -285.634300750     A.U. after    9 cycles
 SCF Done:  E(RB3LYP) =  -285.634300643     A.U. after    6 cycles
 SCF Done:  E(RB3LYP) =  -285.641388634     A.U. after    7 cycles
 SCF Done:  E(RB3LYP) =  -285.641388845     A.U. after    7 cycles
 SCF Done:  E(RB3LYP) =  -285.641388737     A.U. after    6 cycles
 Optimization completed.
    -- Stationary point found.
 Normal termination of Gaussian 09 at Fri Aug 26 08:50:22 2022.

 ----------------------------------------------------------
 #P Geom=AllCheck Guess=TCheck SCRF=Check B3LYP/GTBas3 Freq
 ----------------------------------------------------------

 Structure from the checkpoint file:  "G4.Frag_633.chk"
 --------
 Frag_633
 --------
 Charge =  0 Multiplicity = 1

 SCF Done:  E(RB3LYP) =  -285.641388737     A.U. after    1 cycles

  Exact polarizability:  40.062   0.018  37.896  -3.491  -0.003  36.898
 Approx polarizability:  54.622   0.018  54.737  -5.441   0.023  49.746

                      1                      2                      3
                      A                      A                      A
 Frequencies --    129.4647               220.1935               277.0609
 Red. masses --      1.1378                 1.0314                 1.0433
 Frc consts  --      0.0112                 0.0295                 0.0472
 IR Inten    --     11.6734                78.1302                 0.6123

                      4                      5                      6
                      A                      A                      A
 Frequencies --    333.9329               379.8464               393.6204
 Red. masses --      1.3246                 1.8507                 2.8493
 Frc consts  --      0.0870                 0.1573                 0.2601
 IR Inten    --     57.3396                75.3070                 0.8456

                      7                      8                      9
                      A                      A                      A
 Frequencies --    510.0017               521.3426               556.1398
 Red. masses --      3.0725                 3.7482                 4.0998
 Frc consts  --      0.4709                 0.6002                 0.7471
 IR Inten    --      0.0723                18.8678                 1.6324

                     10                     11                     12
                      A                      A                      A
 Frequencies --    796.6092               834.0700               931.7518
 Red. masses --      3.3849                 1.7330                 2.4509
 Frc consts  --      1.2656                 0.7103                 1.2536
 IR Inten    --     51.9589               140.9284                83.4029

                     13                     14                     15
                      A                      A                      A
 Frequencies --    978.6686              1056.0613              1064.4733
 Red. masses --      1.6679                 2.0347                 1.4433
 Frc consts  --      0.9412                 1.3370                 0.9636
 IR Inten    --     17.6107                33.5681               100.4171

                     16                     17                     18
                      A                      A                      A
 Frequencies --   1209.4427              1247.9998              1325.2622
 Red. masses --      3.6532                 1.1408                 1.8101
 Frc consts  --      3.1484                 1.0468                 1.8731
 IR Inten    --    201.1851                82.4700                85.0330

                     19                     20                     21
                      A                      A                      A
 Frequencies --   1400.1826              1432.9471              1493.2306
 Red. masses --      1.2458                 1.6371                 1.0560
 Frc consts  --      1.4390                 1.9805                 1.3873
 IR Inten    --      3.8815                67.3970                 0.0016

                     22                     23                     24
                      A                      A                      A
 Frequencies --   1497.4110              1635.5501              3010.4087
 Red. masses --      1.1454                 1.1350                 1.0459
 Frc consts  --      1.5132                 1.7889                 5.5845
 IR Inten    --     12.5061                34.6771                24.4506

                     25                     26                     27
                      A                      A                      A
 Frequencies --   3089.5005              3125.5735              3525.7143
 Red. masses --      1.0882                 1.1034                 1.0483
 Frc consts  --      6.1200                 6.3509                 7.6780
 IR Inten    --     25.7322                19.2932                 2.6267

                     28                     29                     30
                      A                      A                      A
 Frequencies --   3617.5606              3825.1349              3827.2848
 Red. masses --      1.0940                 1.0659                 1.0658
 Frc consts  --      8.4351                 9.1891                 9.1984
 IR Inten    --      3.2710                10.6225                18.1907

 - Thermochemistry -
 -------------------
 Temperature   298.150 Kelvin.  Pressure   1.00000 Atm.
 Atom     1 has atomic number  6 and mass  12.00000

 Molecular mass:    77.04768 amu.
 Principal axes and moments of inertia in atomic units:
                           1         2         3
     Eigenvalues --   347.77852 360.56406 375.22380
           X            0.99213   0.00119  -0.12518
           Y           -0.00221   0.99997  -0.00796
           Z            0.12517   0.00818   0.99210
 This molecule is an asymmetric top.
 Rotational symmetry number  1.
 Rotational temperatures (Kelvin)      0.24905     0.24022     0.23083
 Rotational constants (GHZ):           5.18934     5.00533     4.80977
 Zero-point vibrational energy     264652.5 (Joules/Mol)
                                   63.25346 (Kcal/Mol)
 Warning -- explicit consideration of   9 degrees of freedom as
           vibrations may cause significant error
 Vibrational temperatures:    186.27   316.81   398.63   480.45   546.51
          (Kelvin)            566.33   733.78   750.09   800.16  1146.14
                             1200.04  1340.58  1408.08  1519.43  1531.54
                             1740.12  1795.59  1906.75  2014.55  2061.69
                             2148.42  2154.44  2353.19  4331.30  4445.10
                             4497.00  5072.71  5204.86  5503.51  5506.60

 Zero-point correction=                           0.100801 (Hartree/Particle)
 Thermal correction to Energy=                    0.107290
 Thermal correction to Enthalpy=                  0.108234
 Thermal correction to Gibbs Free Energy=         0.071779
 Sum of electronic and zero-point Energies=           -285.540588
 Sum of electronic and thermal Energies=              -285.534099
 Sum of electronic and thermal Enthalpies=            -285.533155
 Sum of electronic and thermal Free Energies=         -285.569609

                     E (Thermal)             CV                S
                      KCal/Mol        Cal/Mol-Kelvin    Cal/Mol-Kelvin
 Total                   67.325             23.226             76.725
 Electronic               0.000              0.000              0.000
 Translational            0.889              2.981             38.941
 Rotational               0.889              2.981             25.357
 Vibrational             65.548             17.265             12.428
 Vibration     1          0.612              1.924              2.954
 Vibration     2          0.647              1.810              1.958
 Vibration     3          0.678              1.716              1.552
 Vibration     4          0.715              1.608              1.241
 Vibration     5          0.750              1.513              1.040
 Vibration     6          0.761              1.484              0.986
 Vibration     7          0.865              1.228              0.634
 Vibration     8          0.876              1.203              0.607
 Vibration     9          0.912              1.126              0.532

 Normal termination of Gaussian 09 at Fri Aug 26 08:50:44 2022.

 -----------------------------------------------------------------
 #P Geom=AllCheck Guess=TCheck SCRF=Check CCSD(T,E4T,FrzG4)/GTBas1
 -----------------------------------------------------------------

 Structure from the checkpoint file:  "G4.Frag_633.chk"
 --------
 Frag_633
 --------
 Charge =  0 Multiplicity = 1

 SCF Done:  E(RHF) =  -283.964358081     A.U. after   12 cycles
 E2 =    -0.7859827787D+00 EUMP2 =    -0.28475034085970D+03
 CCSD(T)
 CCSD(T)= -0.28480966659D+03
 CSD=-284.7892599\CCSD(T)=-284.8096666\RMSD=4.081e-09\PG=C01 [X(C2H7N1O
 Normal termination of Gaussian 09 at Fri Aug 26 08:51:39 2022.

 ---------------------------------------------------------
 #P Geom=AllCheck Guess=TCheck SCRF=Check MP4=FrzG4/GTBas2
 ---------------------------------------------------------

 Structure from the checkpoint file:  "G4.Frag_633.chk"
 --------
 Frag_633
 --------
 Charge =  0 Multiplicity = 1

 SCF Done:  E(RHF) =  -283.976493485     A.U. after   12 cycles
 E2 =    -0.8012299181D+00 EUMP2 =    -0.28477772340335D+03
 Normal termination of Gaussian 09 at Fri Aug 26 08:51:56 2022.

 ---------------------------------------------------------
 #P Geom=AllCheck Guess=TCheck SCRF=Check MP4=FrzG4/GTBas3
 ---------------------------------------------------------

 Structure from the checkpoint file:  "G4.Frag_633.chk"
 --------
 Frag_633
 --------
 Charge =  0 Multiplicity = 1

 SCF Done:  E(RHF) =  -284.009799943     A.U. after   11 cycles
 E2 =    -0.9768889301D+00 EUMP2 =    -0.28498668887271D+03
 Normal termination of Gaussian 09 at Fri Aug 26 08:53:27 2022.

 -----------------------------------------------------------
 #P Geom=AllCheck Guess=TCheck SCRF=Check MP2=Full/GTLargeXP
 -----------------------------------------------------------

 Structure from the checkpoint file:  "G4.Frag_633.chk"
 --------
 Frag_633
 --------
 Charge =  0 Multiplicity = 1

 SCF Done:  E(RHF) =  -284.091725515     A.U. after   11 cycles
 E2 =    -0.1271515574D+01 EUMP2 =    -0.28536324108917D+03
 Normal termination of Gaussian 09 at Fri Aug 26 08:54:19 2022.
 SCF Done:  E(RHF) =  -284.115008741     A.U. after    9 cycles
 Normal termination of Gaussian 09 at Fri Aug 26 08:55:21 2022.

                         Standard orientation:
 ---------------------------------------------------------------------
 Center     Atomic      Atomic             Coordinates (Angstroms)
 Number     Number       Type             X           Y           Z
 ---------------------------------------------------------------------
      1          6           0        1.227631   -0.003406    0.831448
      2          6           0       -0.048420    0.000164   -0.035603
      3          7           0       -1.289655   -0.007294    0.698800
      4          8           0       -0.101366    1.179458   -0.809284
      5          8           0       -0.096599   -1.168161   -0.826056
      6          1           0        1.254094    0.882244    1.472117
      7          1           0        1.257571   -0.897610    1.460013
      8          1           0        2.135709    0.002645    0.212173
      9          1           0       -1.339867   -0.836072    1.279979
     10          1           0       -1.343518    0.813636    1.290703
     11          1           0        0.782575    1.362429   -1.142878
     12          1           0        0.789485   -1.347147   -1.156059
 ---------------------------------------------------------------------

 SCF Done:  E(RHF) =  -284.120243319     A.U. after    8 cycles

 The electronic state is 1-A.
 Alpha  occ. eigenvalues --  -20.56289 -20.56282 -15.54148 -11.37327 -11.23639
 Alpha  occ. eigenvalues --   -1.41996  -1.34002  -1.17323  -0.99578  -0.84141
 Alpha  occ. eigenvalues --   -0.73910  -0.68727  -0.64926  -0.61682  -0.60610
 Alpha  occ. eigenvalues --   -0.56811  -0.55107  -0.53723  -0.47822  -0.47699
 Alpha  occ. eigenvalues --   -0.40607
 Alpha virt. eigenvalues --    0.03005   0.04526   0.05161   0.05701   0.07342
 Alpha virt. eigenvalues --    0.07570   0.07624   0.10069   0.10322   0.13066
 Alpha virt. eigenvalues --    0.13463   0.14601   0.16322   0.16393   0.18251

 Mulliken charges:
               1
     1  C   -0.567751
     2  C    0.577520
     3  N   -0.684769
     4  O   -0.577644
     5  O   -0.577999
     6  H    0.185336
     7  H    0.185195
     8  H    0.155268
     9  H    0.298037
    10  H    0.298136
    11  H    0.354257
    12  H    0.354415
 Sum of Mulliken charges =  -0.00000

 Dipole moment (field-independent basis, Debye):
    X=              3.8044    Y=             -0.0104    Z=              1.7975  Tot=              4.2076
 Quadrupole moment (field-independent basis, Debye-Ang):
   XX=            -31.1946   YY=            -31.7245   ZZ=            -28.5505
   XY=              0.0294   XZ=             -5.7203   YZ=             -0.0393

 Normal termination of Gaussian 09 at Fri Aug 26 09:01:53 2022.
