 Gaussian 09, Revision E.01,
 Gaussian 09:  ES64L-G09RevE.01 30-Nov-2015

 -----
 #P G4
 -----

 --------
 Frag_494
 --------
 Symbolic Z-matrix:
 Charge =  0 Multiplicity = 1

 SCF Done:  E(RB3LYP) =  -287.802219352     A.U. after   14 cycles
 SCF Done:  E(RB3LYP) =  -287.817706766     A.U. after   11 cycles
 SCF Done:  E(RB3LYP) =  -287.818007045     A.U. after   11 cycles
 SCF Done:  E(RB3LYP) =  -287.818044046     A.U. after    9 cycles
 SCF Done:  E(RB3LYP) =  -287.818048803     A.U. after    7 cycles
 SCF Done:  E(RB3LYP) =  -287.818048210     A.U. after    7 cycles
 SCF Done:  E(RB3LYP) =  -287.818048980     A.U. after    6 cycles
 Optimization completed.
    -- Stationary point found.
 Normal termination of Gaussian 09 at Sun Aug 21 06:59:21 2022.

 ----------------------------------------------------------
 #P Geom=AllCheck Guess=TCheck SCRF=Check B3LYP/GTBas3 Freq
 ----------------------------------------------------------

 Structure from the checkpoint file:  "G4.Frag_494.chk"
 --------
 Frag_494
 --------
 Charge =  0 Multiplicity = 1

 SCF Done:  E(RB3LYP) =  -287.818048980     A.U. after    1 cycles

  Exact polarizability:  65.318   1.847  46.084  -5.441  -2.726  54.305
 Approx polarizability:  89.189   5.441  63.950 -11.519  -6.112  83.935

                      1                      2                      3
                      A                      A                      A
 Frequencies --     78.3603               228.9458               241.0631
 Red. masses --      3.6790                 1.4657                 1.7930
 Frc consts  --      0.0133                 0.0453                 0.0614
 IR Inten    --      0.3460                 0.2230                 1.1818

                      4                      5                      6
                      A                      A                      A
 Frequencies --    255.2703               296.5659               350.6384
 Red. masses --      1.7970                 1.3659                 2.5560
 Frc consts  --      0.0690                 0.0708                 0.1852
 IR Inten    --     12.9175                27.3369                 8.5872

                      7                      8                      9
                      A                      A                      A
 Frequencies --    424.2832               467.0789               594.3966
 Red. masses --      1.1003                 2.2936                 2.7786
 Frc consts  --      0.1167                 0.2948                 0.5784
 IR Inten    --     93.2185                 9.9928                12.1642

                     10                     11                     12
                      A                      A                      A
 Frequencies --    670.2313               732.6001               773.5655
 Red. masses --      2.3083                 1.3125                 2.5913
 Frc consts  --      0.6109                 0.4150                 0.9136
 IR Inten    --      8.3068                 0.0116                20.3211

                     13                     14                     15
                      A                      A                      A
 Frequencies --    819.5366               909.9150               932.3265
 Red. masses --      1.4598                 2.0598                 1.6698
 Frc consts  --      0.5777                 1.0048                 0.8552
 IR Inten    --     47.5774               111.6129                41.9688

                     16                     17                     18
                      A                      A                      A
 Frequencies --    981.0740              1015.5934              1058.1823
 Red. masses --      1.7293                 1.4147                 1.4992
 Frc consts  --      0.9807                 0.8597                 0.9891
 IR Inten    --     15.8764                 9.4287                75.5129

                     19                     20                     21
                      A                      A                      A
 Frequencies --   1141.0872              1199.1816              1264.1972
 Red. masses --      2.2448                 1.5701                 1.5579
 Frc consts  --      1.7221                 1.3303                 1.4670
 IR Inten    --      6.2822               113.0391                 3.5863

                     22                     23                     24
                      A                      A                      A
 Frequencies --   1330.9581              1372.0831              1398.5239
 Red. masses --      1.3756                 1.8971                 1.3649
 Frc consts  --      1.4358                 2.1043                 1.5728
 IR Inten    --     18.5528                 4.4537                 0.8573

                     25                     26                     27
                      A                      A                      A
 Frequencies --   1404.9511              1456.9760              1489.8637
 Red. masses --      1.3254                 1.1754                 1.0439
 Frc consts  --      1.5415                 1.4701                 1.3652
 IR Inten    --      7.9922                 7.5118                 5.0429

                     28                     29                     30
                      A                      A                      A
 Frequencies --   1499.7707              1664.1907              1718.1474
 Red. masses --      1.0575                 1.0910                 5.8501
 Frc consts  --      1.4015                 1.7802                10.1749
 IR Inten    --      1.1040                25.4298               110.5715

                     31                     32                     33
                      A                      A                      A
 Frequencies --   3044.8276              3055.0105              3117.8240
 Red. masses --      1.0344                 1.0847                 1.1014
 Frc consts  --      5.6503                 5.9648                 6.3078
 IR Inten    --     16.3124                17.3219                25.0180

                     34                     35                     36
                      A                      A                      A
 Frequencies --   3128.7778              3148.5335              3244.3725
 Red. masses --      1.1028                 1.0648                 1.1110
 Frc consts  --      6.3605                 6.2192                 6.8904
 IR Inten    --     19.4952                 6.3822                 8.2705

                     37                     38                     39
                      A                      A                      A
 Frequencies --   3475.3905              3551.7369              3810.8180
 Red. masses --      1.0492                 1.0914                 1.0656
 Frc consts  --      7.4661                 8.1121                 9.1175
 IR Inten    --      0.4475                 0.5221                28.1670

 - Thermochemistry -
 -------------------
 Temperature   298.150 Kelvin.  Pressure   1.00000 Atm.
 Atom     1 has atomic number  6 and mass  12.00000

 Molecular mass:    87.06841 amu.
 Principal axes and moments of inertia in atomic units:
                           1         2         3
     Eigenvalues --   370.61593 693.00811 697.40177
           X            0.99931  -0.02516  -0.02737
           Y            0.02444   0.99936  -0.02610
           Z            0.02801   0.02541   0.99928
 This molecule is an asymmetric top.
 Rotational symmetry number  1.
 Rotational temperatures (Kelvin)      0.23370     0.12498     0.12420
 Rotational constants (GHZ):           4.86957     2.60421     2.58781
 Zero-point vibrational energy     343010.3 (Joules/Mol)
                                   81.98144 (Kcal/Mol)
 Warning -- explicit consideration of   9 degrees of freedom as
           vibrations may cause significant error
 Vibrational temperatures:    112.74   329.40   346.84   367.28   426.69
          (Kelvin)            504.49   610.45   672.02   855.20   964.31
                             1054.05  1112.99  1179.13  1309.16  1341.41
                             1411.54  1461.21  1522.49  1641.77  1725.35
                             1818.90  1914.95  1974.12  2012.16  2021.41
                             2096.26  2143.58  2157.83  2394.40  2472.03
                             4380.82  4395.47  4485.85  4501.61  4530.03
                             4667.92  5000.31  5110.15  5482.91

 Zero-point correction=                           0.130646 (Hartree/Particle)
 Thermal correction to Energy=                    0.137927
 Thermal correction to Enthalpy=                  0.138871
 Thermal correction to Gibbs Free Energy=         0.100010
 Sum of electronic and zero-point Energies=           -287.687403
 Sum of electronic and thermal Energies=              -287.680122
 Sum of electronic and thermal Enthalpies=            -287.679178
 Sum of electronic and thermal Free Energies=         -287.718039

                     E (Thermal)             CV                S
                      KCal/Mol        Cal/Mol-Kelvin    Cal/Mol-Kelvin
 Total                   86.550             26.678             81.789
 Electronic               0.000              0.000              0.000
 Translational            0.889              2.981             39.305
 Rotational               0.889              2.981             26.685
 Vibrational             84.773             20.716             15.799
 Vibration     1          0.600              1.964              3.932
 Vibration     2          0.652              1.797              1.887
 Vibration     3          0.658              1.777              1.795
 Vibration     4          0.666              1.754              1.694
 Vibration     5          0.690              1.680              1.436
 Vibration     6          0.728              1.574              1.163
 Vibration     7          0.786              1.417              0.878
 Vibration     8          0.824              1.323              0.746
 Vibration     9          0.952              1.044              0.459

 Optimization completed.
    -- Stationary point found.
 Normal termination of Gaussian 09 at Sun Aug 21 07:02:07 2022.

 -----------------------------------------------------------------
 #P Geom=AllCheck Guess=TCheck SCRF=Check CCSD(T,E4T,FrzG4)/GTBas1
 -----------------------------------------------------------------

 Structure from the checkpoint file:  "G4.Frag_494.chk"
 --------
 Frag_494
 --------
 Charge =  0 Multiplicity = 1

 SCF Done:  E(RHF) =  -285.986887935     A.U. after   12 cycles
 E2 =    -0.8595355335D+00 EUMP2 =    -0.28684642346812D+03
 CCSD(T)
 CCSD(T)= -0.28692828833D+03
 86.9007051\CCSD(T)=-286.9282883\RMSD=7.608e-09\PG=C01 [X(C4H9N1O1)]\\@
 Normal termination of Gaussian 09 at Sun Aug 21 07:08:19 2022.

 ---------------------------------------------------------
 #P Geom=AllCheck Guess=TCheck SCRF=Check MP4=FrzG4/GTBas2
 ---------------------------------------------------------

 Structure from the checkpoint file:  "G4.Frag_494.chk"
 --------
 Frag_494
 --------
 Charge =  0 Multiplicity = 1

 SCF Done:  E(RHF) =  -285.997166488     A.U. after   12 cycles
 E2 =    -0.8726393464D+00 EUMP2 =    -0.28686980583486D+03
 Normal termination of Gaussian 09 at Sun Aug 21 07:14:52 2022.

 ---------------------------------------------------------
 #P Geom=AllCheck Guess=TCheck SCRF=Check MP4=FrzG4/GTBas3
 ---------------------------------------------------------

 Structure from the checkpoint file:  "G4.Frag_494.chk"
 --------
 Frag_494
 --------
 Charge =  0 Multiplicity = 1

 SCF Done:  E(RHF) =  -286.028678072     A.U. after   11 cycles
 E2 =    -0.1060859950D+01 EUMP2 =    -0.28708953802209D+03
 Normal termination of Gaussian 09 at Sun Aug 21 10:31:14 2022.

 -----------------------------------------------------------
 #P Geom=AllCheck Guess=TCheck SCRF=Check MP2=Full/GTLargeXP
 -----------------------------------------------------------

 Structure from the checkpoint file:  "G4.Frag_494.chk"
 --------
 Frag_494
 --------
 Charge =  0 Multiplicity = 1

 SCF Done:  E(RHF) =  -286.101982441     A.U. after   12 cycles
 E2 =    -0.1393047363D+01 EUMP2 =    -0.28749502980356D+03
 Normal termination of Gaussian 09 at Sun Aug 21 10:37:27 2022.
 SCF Done:  E(RHF) =  -286.125014100     A.U. after    8 cycles
 Normal termination of Gaussian 09 at Sun Aug 21 10:43:14 2022.

                         Standard orientation:
 ---------------------------------------------------------------------
 Center     Atomic      Atomic             Coordinates (Angstroms)
 Number     Number       Type             X           Y           Z
 ---------------------------------------------------------------------
      1          6           0        1.853497    0.262536   -0.829214
      2          6           0        0.801014    0.037844   -0.041759
      3          8           0        0.888506   -0.280987    1.285729
      4          6           0       -0.644188    0.072622   -0.494262
      5          6           0       -1.434768    1.160711    0.242523
      6          7           0       -1.332274   -1.218296   -0.328499
      7          1           0        2.874103    0.216566   -0.461167
      8          1           0        1.715032    0.507631   -1.873788
      9          1           0        1.817031   -0.317942    1.540078
     10          1           0       -0.640618    0.303241   -1.564777
     11          1           0       -1.429452    0.975774    1.320982
     12          1           0       -0.996742    2.147409    0.067055
     13          1           0       -2.470766    1.161089   -0.104829
     14          1           0       -1.289205   -1.481825    0.653346
     15          1           0       -0.814844   -1.938252   -0.826975
 ---------------------------------------------------------------------

 SCF Done:  E(RHF) =  -286.129913737     A.U. after    8 cycles

 The electronic state is 1-A.
 Alpha  occ. eigenvalues --  -20.59025 -15.53899 -11.29955 -11.26312 -11.21206
 Alpha  occ. eigenvalues --  -11.21137  -1.40817  -1.18547  -1.03968  -0.98029
 Alpha  occ. eigenvalues --   -0.85892  -0.78867  -0.68870  -0.65999  -0.64947
 Alpha  occ. eigenvalues --   -0.59908  -0.57970  -0.57675  -0.54599  -0.51344
 Alpha  occ. eigenvalues --   -0.50620  -0.49218  -0.40261  -0.34682
 Alpha virt. eigenvalues --    0.03277   0.04370   0.04571   0.05267   0.06466
 Alpha virt. eigenvalues --    0.07029   0.07408   0.07614   0.08020   0.09799
 Alpha virt. eigenvalues --    0.10075   0.10576   0.11927   0.12333   0.13958

 Mulliken charges:
               1
     1  C   -0.531045
     2  C    0.269331
     3  O   -0.574912
     4  C    0.068883
     5  C   -0.546482
     6  N   -0.693004
     7  H    0.149004
     8  H    0.182678
     9  H    0.387021
    10  H    0.162709
    11  H    0.181223
    12  H    0.169751
    13  H    0.185879
    14  H    0.303078
    15  H    0.285887
 Sum of Mulliken charges =  -0.00000

 Dipole moment (field-independent basis, Debye):
    X=              1.9810    Y=             -0.0175    Z=              0.2892  Tot=              2.0021
 Quadrupole moment (field-independent basis, Debye-Ang):
   XX=            -38.1631   YY=            -38.4124   ZZ=            -36.7068
   XY=             -2.2139   XZ=              1.1183   YZ=             -1.1756

 Normal termination of Gaussian 09 at Sun Aug 21 13:37:19 2022.
