 Gaussian 09, Revision E.01,
 Gaussian 09:  ES64L-G09RevE.01 30-Nov-2015

 -----
 #P G4
 -----

 --------
 Frag_903
 --------
 Symbolic Z-matrix:
 Charge =  0 Multiplicity = 1

 SCF Done:  E(RB3LYP) =  -359.603104631     A.U. after   14 cycles
 SCF Done:  E(RB3LYP) =  -359.627958987     A.U. after   12 cycles
 SCF Done:  E(RB3LYP) =  -359.630075637     A.U. after   12 cycles
 SCF Done:  E(RB3LYP) =  -359.630269717     A.U. after   11 cycles
 SCF Done:  E(RB3LYP) =  -359.630172011     A.U. after   11 cycles
 SCF Done:  E(RB3LYP) =  -359.630434092     A.U. after    8 cycles
 SCF Done:  E(RB3LYP) =  -359.630689853     A.U. after   11 cycles
 SCF Done:  E(RB3LYP) =  -359.630959805     A.U. after   12 cycles
 SCF Done:  E(RB3LYP) =  -359.631069358     A.U. after   10 cycles
 SCF Done:  E(RB3LYP) =  -359.631148981     A.U. after   10 cycles
 SCF Done:  E(RB3LYP) =  -359.633530306     A.U. after    8 cycles
 SCF Done:  E(RB3LYP) =  -359.633530796     A.U. after    8 cycles
 SCF Done:  E(RB3LYP) =  -359.633530855     A.U. after    7 cycles
 Optimization completed.
    -- Stationary point found.
 Normal termination of Gaussian 09 at Fri Aug 26 13:36:30 2022.

 ----------------------------------------------------------
 #P Geom=AllCheck Guess=TCheck SCRF=Check B3LYP/GTBas3 Freq
 ----------------------------------------------------------

 Structure from the checkpoint file:  "G4.Frag_903.chk"
 --------
 Frag_903
 --------
 Charge =  0 Multiplicity = 1

 SCF Done:  E(RB3LYP) =  -359.633530855     A.U. after    1 cycles

  Exact polarizability:  49.258   0.725  44.379  -0.676  -1.275  28.384
 Approx polarizability:  64.564   6.602  69.571  -1.574  -1.578  42.151

                      1                      2                      3
                      A                      A                      A
 Frequencies --    125.3807               144.7638               225.4905
 Red. masses --      3.5803                 1.5004                 2.2213
 Frc consts  --      0.0332                 0.0185                 0.0665
 IR Inten    --      1.2232                 1.6674                 5.3212

                      4                      5                      6
                      A                      A                      A
 Frequencies --    236.8171               311.8556               394.6910
 Red. masses --      1.2745                 3.2389                 4.1079
 Frc consts  --      0.0421                 0.1856                 0.3770
 IR Inten    --     66.2060                44.4176                 0.8393

                      7                      8                      9
                      A                      A                      A
 Frequencies --    556.1814               559.1534               585.0564
 Red. masses --      1.1322                 4.5361                 7.0286
 Frc consts  --      0.2063                 0.8356                 1.4175
 IR Inten    --     86.4562                45.2305                 2.4895

                     10                     11                     12
                      A                      A                      A
 Frequencies --    776.0944               784.7721              1012.5852
 Red. masses --     10.4966                 4.6274                 2.4179
 Frc consts  --      3.7250                 1.6791                 1.4607
 IR Inten    --     38.6495                18.0897                 0.2887

                     13                     14                     15
                      A                      A                      A
 Frequencies --   1140.3661              1163.7214              1203.7063
 Red. masses --      2.0405                 1.8857                 2.7176
 Frc consts  --      1.5634                 1.5046                 2.3199
 IR Inten    --    170.0756                30.2466               130.2073

                     16                     17                     18
                      A                      A                      A
 Frequencies --   1281.9382              1424.3009              1431.2444
 Red. masses --      1.7637                 1.2030                 1.2444
 Frc consts  --      1.7077                 1.4378                 1.5019
 IR Inten    --     42.0280                51.2522                15.9096

                     19                     20                     21
                      A                      A                      A
 Frequencies --   1466.1007              1483.3417              1523.6960
 Red. masses --      2.3298                 1.0450                 1.2692
 Frc consts  --      2.9505                 1.3547                 1.7361
 IR Inten    --    155.9181                 8.3593                33.2655

                     22                     23                     24
                      A                      A                      A
 Frequencies --   1816.8205              3031.6685              3102.7396
 Red. masses --      9.1599                 1.0415                 1.0978
 Frc consts  --     17.8140                 5.6398                 6.2269
 IR Inten    --    342.8371                39.8259                24.3769

                     25                     26                     27
                      A                      A                      A
 Frequencies --   3172.1826              3767.6494              3794.3129
 Red. masses --      1.0991                 1.0684                 1.0645
 Frc consts  --      6.5161                 8.9355                 9.0294
 IR Inten    --      1.4616                39.5235                84.8625

 - Thermochemistry -
 -------------------
 Temperature   298.150 Kelvin.  Pressure   1.00000 Atm.
 Atom     1 has atomic number  6 and mass  12.00000

 Molecular mass:    91.02694 amu.
 Principal axes and moments of inertia in atomic units:
                           1         2         3
     Eigenvalues --   335.74144 495.94234 809.61598
           X            0.99270  -0.12055  -0.00301
           Y            0.12049   0.99259  -0.01555
           Z            0.00486   0.01507   0.99987
 This molecule is an asymmetric top.
 Rotational symmetry number  1.
 Rotational temperatures (Kelvin)      0.25798     0.17464     0.10698
 Rotational constants (GHZ):           5.37539     3.63901     2.22913
 Zero-point vibrational energy     218418.0 (Joules/Mol)
                                   52.20314 (Kcal/Mol)
 Warning -- explicit consideration of   9 degrees of freedom as
           vibrations may cause significant error
 Vibrational temperatures:    180.39   208.28   324.43   340.73   448.69
          (Kelvin)            567.87   800.22   804.50   841.76  1116.63
                             1129.11  1456.88  1640.73  1674.33  1731.86
                             1844.42  2049.25  2059.24  2109.39  2134.20
                             2192.26  2614.00  4361.89  4464.14  4564.06
                             5420.80  5459.16

 Zero-point correction=                           0.083191 (Hartree/Particle)
 Thermal correction to Energy=                    0.089951
 Thermal correction to Enthalpy=                  0.090895
 Thermal correction to Gibbs Free Energy=         0.052892
 Sum of electronic and zero-point Energies=           -359.550340
 Sum of electronic and thermal Energies=              -359.543580
 Sum of electronic and thermal Enthalpies=            -359.542636
 Sum of electronic and thermal Free Energies=         -359.580639

                     E (Thermal)             CV                S
                      KCal/Mol        Cal/Mol-Kelvin    Cal/Mol-Kelvin
 Total                   56.445             22.843             79.985
 Electronic               0.000              0.000              0.000
 Translational            0.889              2.981             39.438
 Rotational               0.889              2.981             26.403
 Vibrational             54.668             16.881             14.144
 Vibration     1          0.610              1.928              3.016
 Vibration     2          0.616              1.908              2.740
 Vibration     3          0.650              1.802              1.915
 Vibration     4          0.656              1.784              1.827
 Vibration     5          0.700              1.651              1.352
 Vibration     6          0.762              1.482              0.982
 Vibration     7          0.912              1.126              0.532
 Vibration     8          0.915              1.120              0.526
 Vibration     9          0.942              1.064              0.476

 Optimization completed.
    -- Stationary point found.
 Normal termination of Gaussian 09 at Fri Aug 26 13:36:55 2022.

 -----------------------------------------------------------------
 #P Geom=AllCheck Guess=TCheck SCRF=Check CCSD(T,E4T,FrzG4)/GTBas1
 -----------------------------------------------------------------

 Structure from the checkpoint file:  "G4.Frag_903.chk"
 --------
 Frag_903
 --------
 Charge =  0 Multiplicity = 1

 SCF Done:  E(RHF) =  -357.635325742     A.U. after   13 cycles
 E2 =    -0.9497947491D+00 EUMP2 =    -0.35858512049148D+03
 CCSD(T)
 CCSD(T)= -0.35864315771D+03
 74623\MP4SDQ=-358.6158392\CCSD=-358.6142502\CCSD(T)=-358.6431577\RMSD=
 Normal termination of Gaussian 09 at Fri Aug 26 13:38:36 2022.

 ---------------------------------------------------------
 #P Geom=AllCheck Guess=TCheck SCRF=Check MP4=FrzG4/GTBas2
 ---------------------------------------------------------

 Structure from the checkpoint file:  "G4.Frag_903.chk"
 --------
 Frag_903
 --------
 Charge =  0 Multiplicity = 1

 SCF Done:  E(RHF) =  -357.646234615     A.U. after   12 cycles
 E2 =    -0.9656681739D+00 EUMP2 =    -0.35861190278896D+03
 Normal termination of Gaussian 09 at Fri Aug 26 13:39:09 2022.

 ---------------------------------------------------------
 #P Geom=AllCheck Guess=TCheck SCRF=Check MP4=FrzG4/GTBas3
 ---------------------------------------------------------

 Structure from the checkpoint file:  "G4.Frag_903.chk"
 --------
 Frag_903
 --------
 Charge =  0 Multiplicity = 1

 SCF Done:  E(RHF) =  -357.680180216     A.U. after   12 cycles
 E2 =    -0.1165933967D+01 EUMP2 =    -0.35884611418225D+03
 Normal termination of Gaussian 09 at Fri Aug 26 13:41:52 2022.

 -----------------------------------------------------------
 #P Geom=AllCheck Guess=TCheck SCRF=Check MP2=Full/GTLargeXP
 -----------------------------------------------------------

 Structure from the checkpoint file:  "G4.Frag_903.chk"
 --------
 Frag_903
 --------
 Charge =  0 Multiplicity = 1

 SCF Done:  E(RHF) =  -357.780647254     A.U. after   12 cycles
 E2 =    -0.1519603466D+01 EUMP2 =    -0.35930025071945D+03
 Normal termination of Gaussian 09 at Fri Aug 26 13:43:16 2022.
 SCF Done:  E(RHF) =  -357.809875569     A.U. after    9 cycles
 Normal termination of Gaussian 09 at Fri Aug 26 13:44:42 2022.

                         Standard orientation:
 ---------------------------------------------------------------------
 Center     Atomic      Atomic             Coordinates (Angstroms)
 Number     Number       Type             X           Y           Z
 ---------------------------------------------------------------------
      1          6           0       -1.599417    0.931229   -0.049513
      2          7           0       -0.589864   -0.076640    0.210843
      3          8           0       -1.014734   -1.365909   -0.152795
      4          6           0        0.742097    0.215443    0.023675
      5          8           0        1.192818    1.338827   -0.011592
      6          8           0        1.497753   -0.904751   -0.030450
      7          1           0       -1.150827    1.905419    0.139757
      8          1           0       -1.948079    0.883041   -1.088203
      9          1           0       -2.449256    0.776169    0.619926
     10          1           0       -0.991842   -1.870266    0.670484
     11          1           0        2.406283   -0.583245   -0.104133
 ---------------------------------------------------------------------

 SCF Done:  E(RHF) =  -357.816110271     A.U. after    8 cycles

 The electronic state is 1-A.
 Alpha  occ. eigenvalues --  -20.61933 -20.61604 -20.53800 -15.64691 -11.41481
 Alpha  occ. eigenvalues --  -11.26694  -1.48767  -1.43096  -1.36571  -1.17600
 Alpha  occ. eigenvalues --   -0.97325  -0.81898  -0.76460  -0.71650  -0.70929
 Alpha  occ. eigenvalues --   -0.64309  -0.62938  -0.61401  -0.58961  -0.56525
 Alpha  occ. eigenvalues --   -0.53411  -0.49991  -0.46430  -0.40616
 Alpha virt. eigenvalues --    0.03977   0.04259   0.04853   0.05510   0.07074
 Alpha virt. eigenvalues --    0.07312   0.07736   0.09577   0.11311   0.13406
 Alpha virt. eigenvalues --    0.13604   0.14778   0.15486   0.15829   0.16608

 Mulliken charges:
               1
     1  C   -0.421300
     2  N   -0.052373
     3  O   -0.477811
     4  C    0.720882
     5  O   -0.642087
     6  O   -0.541458
     7  H    0.238744
     8  H    0.182945
     9  H    0.176337
    10  H    0.401683
    11  H    0.414438
 Sum of Mulliken charges =  -0.00000

 Dipole moment (field-independent basis, Debye):
    X=             -0.9690    Y=             -1.3933    Z=              0.9995  Tot=              1.9695
 Quadrupole moment (field-independent basis, Debye-Ang):
   XX=            -29.7825   YY=            -37.7773   ZZ=            -34.2756
   XY=             -4.2902   XZ=             -1.6686   YZ=             -2.9533

 Normal termination of Gaussian 09 at Fri Aug 26 13:50:11 2022.
