 Gaussian 09, Revision E.01,
 Gaussian 09:  ES64L-G09RevE.01 30-Nov-2015

 -----
 #P G4
 -----

 --------
 Frag_654
 --------
 Symbolic Z-matrix:
 Charge =  0 Multiplicity = 1

 SCF Done:  E(RB3LYP) =  -324.889650941     A.U. after   12 cycles
 SCF Done:  E(RB3LYP) =  -324.895884303     A.U. after   11 cycles
 SCF Done:  E(RB3LYP) =  -324.897057266     A.U. after   11 cycles
 SCF Done:  E(RB3LYP) =  -324.897379186     A.U. after   11 cycles
 SCF Done:  E(RB3LYP) =  -324.897439148     A.U. after   10 cycles
 SCF Done:  E(RB3LYP) =  -324.897453703     A.U. after    9 cycles
 SCF Done:  E(RB3LYP) =  -324.897455786     A.U. after    8 cycles
 SCF Done:  E(RB3LYP) =  -324.897456150     A.U. after    6 cycles
 Optimization completed.
    -- Stationary point found.
 Normal termination of Gaussian 09 at Fri Aug 26 12:10:40 2022.

 ----------------------------------------------------------
 #P Geom=AllCheck Guess=TCheck SCRF=Check B3LYP/GTBas3 Freq
 ----------------------------------------------------------

 Structure from the checkpoint file:  "G4.Frag_654.chk"
 --------
 Frag_654
 --------
 Charge =  0 Multiplicity = 1

 SCF Done:  E(RB3LYP) =  -324.897456150     A.U. after    1 cycles

  Exact polarizability:  53.696   1.405  49.824  -1.174   1.160  46.073
 Approx polarizability:  69.812   3.211  71.290   1.558   0.475  68.972

                      1                      2                      3
                      A                      A                      A
 Frequencies --    118.1554               230.6708               260.3498
 Red. masses --      3.0395                 1.1196                 1.4189
 Frc consts  --      0.0250                 0.0351                 0.0567
 IR Inten    --      2.6109                 1.4605                 0.7943

                      4                      5                      6
                      A                      A                      A
 Frequencies --    273.5569               308.8255               343.8277
 Red. masses --      2.9108                 1.7985                 1.1799
 Frc consts  --      0.1283                 0.1011                 0.0822
 IR Inten    --     10.3291                 0.0338                50.4358

                      7                      8                      9
                      A                      A                      A
 Frequencies --    381.2838               450.3353               538.5796
 Red. masses --      2.6754                 2.5738                 2.6796
 Frc consts  --      0.2292                 0.3075                 0.4580
 IR Inten    --     14.5697                 0.8458                 3.6535

                     10                     11                     12
                      A                      A                      A
 Frequencies --    559.3528               638.8629               776.5679
 Red. masses --      1.2428                 3.4691                 3.1818
 Frc consts  --      0.2291                 0.8342                 1.1305
 IR Inten    --    135.7194                17.4425                11.8379

                     13                     14                     15
                      A                      A                      A
 Frequencies --    867.2178               956.6571              1018.7976
 Red. masses --      2.9355                 2.3773                 2.0452
 Frc consts  --      1.3008                 1.2819                 1.2507
 IR Inten    --     56.1948                12.3671                13.6744

                     16                     17                     18
                      A                      A                      A
 Frequencies --   1067.9902              1107.0566              1140.7403
 Red. masses --      1.7939                 2.7792                 1.5137
 Frc consts  --      1.2055                 2.0068                 1.1605
 IR Inten    --     80.9009                25.7448                21.7403

                     19                     20                     21
                      A                      A                      A
 Frequencies --   1168.4521              1248.5775              1286.0661
 Red. masses --      1.7733                 2.8949                 1.4785
 Frc consts  --      1.4264                 2.6590                 1.4408
 IR Inten    --     17.0305                24.9673                15.3503

                     22                     23                     24
                      A                      A                      A
 Frequencies --   1376.1284              1406.4328              1425.8947
 Red. masses --      1.3146                 1.2568                 1.2279
 Frc consts  --      1.4668                 1.4647                 1.4709
 IR Inten    --      1.7056                 1.6162                52.9419

                     25                     26                     27
                      A                      A                      A
 Frequencies --   1428.5615              1447.5894              1484.1129
 Red. masses --      1.1479                 1.1707                 1.0679
 Frc consts  --      1.3802                 1.4454                 1.3859
 IR Inten    --     16.1146                35.2427                12.3475

                     28                     29                     30
                      A                      A                      A
 Frequencies --   1495.7262              1497.8172              1510.2952
 Red. masses --      1.0536                 1.0512                 1.0587
 Frc consts  --      1.3887                 1.3895                 1.4227
 IR Inten    --      6.9573                 1.9885                13.0902

                     31                     32                     33
                      A                      A                      A
 Frequencies --   2955.2115              3040.7137              3084.0153
 Red. masses --      1.0573                 1.0399                 1.0850
 Frc consts  --      5.4403                 5.6651                 6.0802
 IR Inten    --     59.5212                 9.0418                 9.7354

                     34                     35                     36
                      A                      A                      A
 Frequencies --   3089.4664              3115.2609              3136.8930
 Red. masses --      1.0762                 1.0959                 1.1028
 Frc consts  --      6.0521                 6.2660                 6.3938
 IR Inten    --     23.2542                32.1283                13.7958

                     37                     38                     39
                      A                      A                      A
 Frequencies --   3139.3081              3620.8617              3805.7168
 Red. masses --      1.1012                 1.0661                 1.0659
 Frc consts  --      6.3942                 8.2355                 9.0956
 IR Inten    --     10.5262                13.7352                15.7237

 - Thermochemistry -
 -------------------
 Temperature   298.150 Kelvin.  Pressure   1.00000 Atm.
 Atom     1 has atomic number  6 and mass  12.00000

 Molecular mass:    91.06333 amu.
 Principal axes and moments of inertia in atomic units:
                           1         2         3
     Eigenvalues --   376.16735 606.16825 737.90405
           X            0.99886   0.01684  -0.04474
           Y           -0.01438   0.99840   0.05476
           Z            0.04559  -0.05405   0.99750
 This molecule is an asymmetric top.
 Rotational symmetry number  1.
 Rotational temperatures (Kelvin)      0.23025     0.14289     0.11738
 Rotational constants (GHZ):           4.79771     2.97729     2.44577
 Zero-point vibrational energy     339751.0 (Joules/Mol)
                                   81.20243 (Kcal/Mol)
 Warning -- explicit consideration of  10 degrees of freedom as
           vibrations may cause significant error
 Vibrational temperatures:    170.00   331.88   374.58   393.59   444.33
          (Kelvin)            494.69   548.58   647.93   774.90   804.78
                              919.18  1117.31  1247.73  1376.41  1465.82
                             1536.60  1592.81  1641.27  1681.14  1796.42
                             1850.36  1979.94  2023.54  2051.54  2055.38
                             2082.76  2135.30  2152.01  2155.02  2172.98
                             4251.88  4374.90  4437.20  4445.05  4482.16
                             4513.28  4516.76  5209.61  5475.57

 Zero-point correction=                           0.129404 (Hartree/Particle)
 Thermal correction to Energy=                    0.136665
 Thermal correction to Enthalpy=                  0.137609
 Thermal correction to Gibbs Free Energy=         0.099037
 Sum of electronic and zero-point Energies=           -324.768052
 Sum of electronic and thermal Energies=              -324.760791
 Sum of electronic and thermal Enthalpies=            -324.759847
 Sum of electronic and thermal Free Energies=         -324.798419

                     E (Thermal)             CV                S
                      KCal/Mol        Cal/Mol-Kelvin    Cal/Mol-Kelvin
 Total                   85.759             26.719             81.182
 Electronic               0.000              0.000              0.000
 Translational            0.889              2.981             39.439
 Rotational               0.889              2.981             26.623
 Vibrational             83.981             20.757             15.120
 Vibration     1          0.608              1.934              3.130
 Vibration     2          0.652              1.794              1.874
 Vibration     3          0.668              1.745              1.659
 Vibration     4          0.676              1.722              1.574
 Vibration     5          0.698              1.657              1.369
 Vibration     6          0.723              1.588              1.194
 Vibration     7          0.751              1.510              1.034
 Vibration     8          0.809              1.360              0.795
 Vibration     9          0.894              1.165              0.568
 Vibration    10          0.915              1.119              0.525

 Optimization completed.
    -- Stationary point found.
 Normal termination of Gaussian 09 at Fri Aug 26 12:11:16 2022.

 -----------------------------------------------------------------
 #P Geom=AllCheck Guess=TCheck SCRF=Check CCSD(T,E4T,FrzG4)/GTBas1
 -----------------------------------------------------------------

 Structure from the checkpoint file:  "G4.Frag_654.chk"
 --------
 Frag_654
 --------
 Charge =  0 Multiplicity = 1

 SCF Done:  E(RHF) =  -322.932932823     A.U. after   12 cycles
 E2 =    -0.9213543779D+00 EUMP2 =    -0.32385428720051D+03
 CCSD(T)
 CCSD(T)= -0.32393276419D+03
 9060574\CCSD(T)=-323.9327642\RMSD=5.959e-09\PG=C01 [X(C3H9N1O2)]\\@
 Normal termination of Gaussian 09 at Fri Aug 26 12:13:40 2022.

 ---------------------------------------------------------
 #P Geom=AllCheck Guess=TCheck SCRF=Check MP4=FrzG4/GTBas2
 ---------------------------------------------------------

 Structure from the checkpoint file:  "G4.Frag_654.chk"
 --------
 Frag_654
 --------
 Charge =  0 Multiplicity = 1

 SCF Done:  E(RHF) =  -322.942887704     A.U. after   12 cycles
 E2 =    -0.9369318759D+00 EUMP2 =    -0.32387981957985D+03
 Normal termination of Gaussian 09 at Fri Aug 26 12:14:22 2022.

 ---------------------------------------------------------
 #P Geom=AllCheck Guess=TCheck SCRF=Check MP4=FrzG4/GTBas3
 ---------------------------------------------------------

 Structure from the checkpoint file:  "G4.Frag_654.chk"
 --------
 Frag_654
 --------
 Charge =  0 Multiplicity = 1

 SCF Done:  E(RHF) =  -322.977298658     A.U. after   11 cycles
 E2 =    -0.1144102955D+01 EUMP2 =    -0.32412140161363D+03
 Normal termination of Gaussian 09 at Fri Aug 26 12:18:39 2022.

 -----------------------------------------------------------
 #P Geom=AllCheck Guess=TCheck SCRF=Check MP2=Full/GTLargeXP
 -----------------------------------------------------------

 Structure from the checkpoint file:  "G4.Frag_654.chk"
 --------
 Frag_654
 --------
 Charge =  0 Multiplicity = 1

 SCF Done:  E(RHF) =  -323.064239250     A.U. after   11 cycles
 E2 =    -0.1490785661D+01 EUMP2 =    -0.32455502491141D+03
 Normal termination of Gaussian 09 at Fri Aug 26 12:20:38 2022.
 SCF Done:  E(RHF) =  -323.090268436     A.U. after    8 cycles
 Normal termination of Gaussian 09 at Fri Aug 26 12:22:41 2022.

                         Standard orientation:
 ---------------------------------------------------------------------
 Center     Atomic      Atomic             Coordinates (Angstroms)
 Number     Number       Type             X           Y           Z
 ---------------------------------------------------------------------
      1          6           0        1.807842    0.643793   -0.373765
      2          6           0        0.649486   -0.344326   -0.346968
      3          8           0        0.708363   -1.210205    0.795208
      4          7           0       -0.642403    0.312212   -0.480358
      5          6           0       -1.007589    1.221062    0.600157
      6          8           0       -1.629138   -0.713873   -0.541812
      7          1           0        2.751899    0.096031   -0.421405
      8          1           0        1.825786    1.271262    0.524558
      9          1           0        1.731485    1.298094   -1.245559
     10          1           0        0.711169   -1.025939   -1.199306
     11          1           0        0.926379   -0.677601    1.567899
     12          1           0       -2.017489    1.584294    0.404535
     13          1           0       -0.327658    2.077444    0.607757
     14          1           0       -1.000687    0.745891    1.596652
     15          1           0       -1.436304   -1.285517    0.223668
 ---------------------------------------------------------------------

 SCF Done:  E(RHF) =  -323.096050133     A.U. after    8 cycles

 The electronic state is 1-A.
 Alpha  occ. eigenvalues --  -20.57711 -20.57156 -15.60673 -11.31696 -11.25401
 Alpha  occ. eigenvalues --  -11.23360  -1.41620  -1.36550  -1.14062  -1.01352
 Alpha  occ. eigenvalues --   -0.92741  -0.82055  -0.72569  -0.68145  -0.65867
 Alpha  occ. eigenvalues --   -0.63465  -0.62322  -0.57226  -0.56116  -0.54411
 Alpha  occ. eigenvalues --   -0.52644  -0.50377  -0.49185  -0.46252  -0.39641
 Alpha virt. eigenvalues --    0.03044   0.04042   0.04703   0.05268   0.06777
 Alpha virt. eigenvalues --    0.07071   0.07112   0.07928   0.08476   0.09843
 Alpha virt. eigenvalues --    0.11737   0.13177   0.13662   0.14026   0.14616

 Mulliken charges:
               1
     1  C   -0.563964
     2  C    0.150862
     3  O   -0.619611
     4  N    0.059030
     5  C   -0.496241
     6  O   -0.552270
     7  H    0.193052
     8  H    0.163266
     9  H    0.202760
    10  H    0.196469
    11  H    0.364257
    12  H    0.201786
    13  H    0.177639
    14  H    0.140844
    15  H    0.382121
 Sum of Mulliken charges =  -0.00000

 Dipole moment (field-independent basis, Debye):
    X=              1.9537    Y=              1.5971    Z=              2.1379  Tot=              3.3073
 Quadrupole moment (field-independent basis, Debye-Ang):
   XX=            -39.0614   YY=            -38.7847   ZZ=            -36.7851
   XY=              0.7339   XZ=             -3.2802   YZ=              1.0212

 Normal termination of Gaussian 09 at Fri Aug 26 12:30:29 2022.
