 Gaussian 09, Revision E.01,
 Gaussian 09:  ES64L-G09RevE.01 30-Nov-2015

 -----
 #P G4
 -----

 --------
 Frag_999
 --------
 Symbolic Z-matrix:
 Charge =  0 Multiplicity = 1

 SCF Done:  E(RB3LYP) =  -363.021692172     A.U. after   13 cycles
 SCF Done:  E(RB3LYP) =  -363.054158491     A.U. after   12 cycles
 SCF Done:  E(RB3LYP) =  -363.056974110     A.U. after   11 cycles
 SCF Done:  E(RB3LYP) =  -363.057491506     A.U. after   11 cycles
 SCF Done:  E(RB3LYP) =  -363.057667688     A.U. after   11 cycles
 SCF Done:  E(RB3LYP) =  -363.039767120     A.U. after   14 cycles
 SCF Done:  E(RB3LYP) =  -363.057804833     A.U. after   12 cycles
 SCF Done:  E(RB3LYP) =  -363.058174431     A.U. after   13 cycles
 SCF Done:  E(RB3LYP) =  -363.058351521     A.U. after   10 cycles
 SCF Done:  E(RB3LYP) =  -363.058493309     A.U. after   11 cycles
 SCF Done:  E(RB3LYP) =  -363.059000799     A.U. after    8 cycles
 SCF Done:  E(RB3LYP) =  -363.059001579     A.U. after    8 cycles
 SCF Done:  E(RB3LYP) =  -363.059001718     A.U. after    7 cycles
 Optimization completed.
    -- Stationary point found.
 Normal termination of Gaussian 09 at Tue Aug 30 12:07:58 2022.

 ----------------------------------------------------------
 #P Geom=AllCheck Guess=TCheck SCRF=Check B3LYP/GTBas3 Freq
 ----------------------------------------------------------

 Structure from the checkpoint file:  "G4.Frag_999.chk"
 --------
 Frag_999
 --------
 Charge =  0 Multiplicity = 1

 SCF Done:  E(RB3LYP) =  -363.059001718     A.U. after    1 cycles

  Exact polarizability:  66.588  -2.934  59.728  -0.563   0.524  47.267
 Approx polarizability:  88.321  -6.363  92.280  -1.532   4.715  69.090

                      1                      2                      3
                      A                      A                      A
 Frequencies --     55.6293               198.3196               222.5009
 Red. masses --      5.7512                 1.0813                 1.0784
 Frc consts  --      0.0105                 0.0251                 0.0315
 IR Inten    --      0.6933               100.3454                 3.8027

                      4                      5                      6
                      A                      A                      A
 Frequencies --    240.3190               261.7536               282.9382
 Red. masses --      1.5445                 2.1830                 1.9329
 Frc consts  --      0.0526                 0.0881                 0.0912
 IR Inten    --      1.1400                 1.6713                 7.1995

                      7                      8                      9
                      A                      A                      A
 Frequencies --    352.9571               377.5278               403.4185
 Red. masses --      2.5245                 3.3975                 3.5002
 Frc consts  --      0.1853                 0.2853                 0.3356
 IR Inten    --      2.7271                 2.3288                 2.4888

                     10                     11                     12
                      A                      A                      A
 Frequencies --    479.3661               528.2330               563.8785
 Red. masses --      1.1416                 4.3220                 2.6941
 Frc consts  --      0.1546                 0.7105                 0.5047
 IR Inten    --     64.7765                17.7709                39.0248

                     13                     14                     15
                      A                      A                      A
 Frequencies --    718.8002               728.5962               870.1061
 Red. masses --      3.5481                 3.2365                 1.5723
 Frc consts  --      1.0801                 1.0123                 0.7013
 IR Inten    --      2.3267                17.7767                77.6586

                     16                     17                     18
                      A                      A                      A
 Frequencies --    886.4923               927.6864               976.8762
 Red. masses --      2.1972                 1.5008                 2.0587
 Frc consts  --      1.0173                 0.7610                 1.1575
 IR Inten    --      1.5119                 2.2398                20.0537

                     19                     20                     21
                      A                      A                      A
 Frequencies --   1014.8355              1101.3361              1145.4019
 Red. masses --      1.3110                 2.1789                 1.3636
 Frc consts  --      0.7955                 1.5571                 1.0540
 IR Inten    --      3.2028                73.4414                50.8329

                     22                     23                     24
                      A                      A                      A
 Frequencies --   1159.2530              1199.2155              1235.5442
 Red. masses --      1.6291                 2.7534                 2.6849
 Frc consts  --      1.2899                 2.3330                 2.4149
 IR Inten    --    280.9108                43.2831                 3.4815

                     25                     26                     27
                      A                      A                      A
 Frequencies --   1351.4209              1391.1790              1413.8351
 Red. masses --      1.5413                 1.2594                 1.2929
 Frc consts  --      1.6585                 1.4361                 1.5227
 IR Inten    --     43.9181                12.0423                 9.2972

                     28                     29                     30
                      A                      A                      A
 Frequencies --   1435.3545              1475.0145              1479.0133
 Red. masses --      1.9484                 1.0491                 1.0506
 Frc consts  --      2.3651                 1.3448                 1.3540
 IR Inten    --     28.4251                 0.5202                 0.3971

                     31                     32                     33
                      A                      A                      A
 Frequencies --   1491.9007              1513.6228              1751.3937
 Red. masses --      1.0527                 1.1668                 7.7205
 Frc consts  --      1.3805                 1.5751                13.9528
 IR Inten    --      1.5143                 9.3938               168.1186

                     34                     35                     36
                      A                      A                      A
 Frequencies --   3033.1368              3039.1113              3101.5772
 Red. masses --      1.0395                 1.0413                 1.0994
 Frc consts  --      5.6346                 5.6666                 6.2311
 IR Inten    --      8.4789                30.9720                16.6444

                     37                     38                     39
                      A                      A                      A
 Frequencies --   3118.6644              3140.3185              3148.1931
 Red. masses --      1.0923                 1.1007                 1.1025
 Frc consts  --      6.2591                 6.3955                 6.4379
 IR Inten    --     24.5857                12.0837                13.2875

                     40                     41                     42
                      A                      A                      A
 Frequencies --   3442.8106              3789.6410              3811.5105
 Red. masses --      1.0749                 1.0652                 1.0661
 Frc consts  --      7.5069                 9.0128                 9.1248
 IR Inten    --      7.3724                24.8433                15.3030

 - Thermochemistry -
 -------------------
 Temperature   298.150 Kelvin.  Pressure   1.00000 Atm.
 Atom     1 has atomic number  6 and mass  12.00000

 Molecular mass:   103.06333 amu.
 Principal axes and moments of inertia in atomic units:
                           1         2         3
     Eigenvalues --   532.18882 745.96781 904.30031
           X            0.99961   0.02154   0.01760
           Y           -0.02034   0.99762  -0.06589
           Z           -0.01898   0.06551   0.99767
 This molecule is an asymmetric top.
 Rotational symmetry number  1.
 Warning -- assumption of classical behavior for rotation
           may cause significant error
 Rotational temperatures (Kelvin)      0.16275     0.11611     0.09578
 Rotational constants (GHZ):           3.39117     2.41933     1.99573
 Zero-point vibrational energy     352053.1 (Joules/Mol)
                                   84.14271 (Kcal/Mol)
 Warning -- explicit consideration of  12 degrees of freedom as
           vibrations may cause significant error
 Vibrational temperatures:     80.04   285.34   320.13   345.77   376.60
          (Kelvin)            407.08   507.83   543.18   580.43   689.70
                              760.01   811.29  1034.19  1048.29  1251.89
                             1275.46  1334.73  1405.51  1460.12  1584.57
                             1647.98  1667.90  1725.40  1777.67  1944.39
                             2001.59  2034.19  2065.15  2122.21  2127.97
                             2146.51  2177.76  2519.86  4364.00  4372.60
                             4462.47  4487.06  4518.21  4529.54  4953.43
                             5452.44  5483.91

 Zero-point correction=                           0.134090 (Hartree/Particle)
 Thermal correction to Energy=                    0.142466
 Thermal correction to Enthalpy=                  0.143410
 Thermal correction to Gibbs Free Energy=         0.101902
 Sum of electronic and zero-point Energies=           -362.924912
 Sum of electronic and thermal Energies=              -362.916536
 Sum of electronic and thermal Enthalpies=            -362.915592
 Sum of electronic and thermal Free Energies=         -362.957100

                     E (Thermal)             CV                S
                      KCal/Mol        Cal/Mol-Kelvin    Cal/Mol-Kelvin
 Total                   89.398             30.727             87.360
 Electronic               0.000              0.000              0.000
 Translational            0.889              2.981             39.808
 Rotational               0.889              2.981             27.376
 Vibrational             87.621             24.766             20.177
 Vibration     1          0.596              1.975              4.607
 Vibration     2          0.637              1.842              2.149
 Vibration     3          0.648              1.807              1.939
 Vibration     4          0.657              1.779              1.801
 Vibration     5          0.669              1.743              1.650
 Vibration     6          0.682              1.705              1.516
 Vibration     7          0.729              1.569              1.153
 Vibration     8          0.748              1.518              1.049
 Vibration     9          0.769              1.463              0.950
 Vibration    10          0.836              1.296              0.712
 Vibration    11          0.883              1.188              0.591
 Vibration    12          0.920              1.109              0.516

 Optimization completed.
    -- Stationary point found.
 Normal termination of Gaussian 09 at Tue Aug 30 12:08:43 2022.

 -----------------------------------------------------------------
 #P Geom=AllCheck Guess=TCheck SCRF=Check CCSD(T,E4T,FrzG4)/GTBas1
 -----------------------------------------------------------------

 Structure from the checkpoint file:  "G4.Frag_999.chk"
 --------
 Frag_999
 --------
 Charge =  0 Multiplicity = 1

 SCF Done:  E(RHF) =  -360.862219220     A.U. after   13 cycles
 E2 =    -0.1041147566D+01 EUMP2 =    -0.36190336678530D+03
 CCSD(T)
 CCSD(T)= -0.36198877880D+03
 P4SDTQ=-361.9901918\MP4SDQ=-361.9560415\CCSD=-361.9557578\CCSD(T)=-361
 Normal termination of Gaussian 09 at Tue Aug 30 12:13:07 2022.

 ---------------------------------------------------------
 #P Geom=AllCheck Guess=TCheck SCRF=Check MP4=FrzG4/GTBas2
 ---------------------------------------------------------

 Structure from the checkpoint file:  "G4.Frag_999.chk"
 --------
 Frag_999
 --------
 Charge =  0 Multiplicity = 1

 SCF Done:  E(RHF) =  -360.873470832     A.U. after   12 cycles
 E2 =    -0.1057797515D+01 EUMP2 =    -0.36193126834720D+03
 Normal termination of Gaussian 09 at Tue Aug 30 12:14:28 2022.

 ---------------------------------------------------------
 #P Geom=AllCheck Guess=TCheck SCRF=Check MP4=FrzG4/GTBas3
 ---------------------------------------------------------

 Structure from the checkpoint file:  "G4.Frag_999.chk"
 --------
 Frag_999
 --------
 Charge =  0 Multiplicity = 1

 SCF Done:  E(RHF) =  -360.912936058     A.U. after   11 cycles
 E2 =    -0.1281687031D+01 EUMP2 =    -0.36219462308841D+03
 Normal termination of Gaussian 09 at Tue Aug 30 12:24:55 2022.

 -----------------------------------------------------------
 #P Geom=AllCheck Guess=TCheck SCRF=Check MP2=Full/GTLargeXP
 -----------------------------------------------------------

 Structure from the checkpoint file:  "G4.Frag_999.chk"
 --------
 Frag_999
 --------
 Charge =  0 Multiplicity = 1

 SCF Done:  E(RHF) =  -361.008015209     A.U. after   12 cycles
 E2 =    -0.1677590651D+01 EUMP2 =    -0.36268560586055D+03
 Normal termination of Gaussian 09 at Tue Aug 30 12:28:28 2022.
 SCF Done:  E(RHF) =  -361.036774401     A.U. after    8 cycles
 Normal termination of Gaussian 09 at Tue Aug 30 12:31:44 2022.

                         Standard orientation:
 ---------------------------------------------------------------------
 Center     Atomic      Atomic             Coordinates (Angstroms)
 Number     Number       Type             X           Y           Z
 ---------------------------------------------------------------------
      1          6           0       -1.017583    0.816724   -1.208898
      2          6           0       -0.578034    0.014193    0.029416
      3          6           0       -1.282650   -1.342002    0.093026
      4          8           0       -0.834731    0.768212    1.218323
      5          6           0        0.940320   -0.157497   -0.002639
      6          7           0        1.482417   -1.293961   -0.145609
      7          8           0        1.561626    1.044768    0.103937
      8          1           0       -2.102924    0.965868   -1.185433
      9          1           0       -0.772159    0.284687   -2.133304
     10          1           0       -0.529017    1.792652   -1.219138
     11          1           0       -2.367317   -1.185450    0.127784
     12          1           0       -1.048905   -1.955056   -0.779289
     13          1           0       -0.974351   -1.887866    0.986191
     14          1           0       -1.789005    0.882101    1.279323
     15          1           0        2.502881   -1.237075   -0.178724
     16          1           0        2.516400    0.905520    0.078340
 ---------------------------------------------------------------------

 SCF Done:  E(RHF) =  -361.043001046     A.U. after    8 cycles

 The electronic state is 1-A.
 Alpha  occ. eigenvalues --  -20.60197 -20.55797 -15.54092 -11.34369 -11.30252
 Alpha  occ. eigenvalues --  -11.22295 -11.21376  -1.43129  -1.36568  -1.19775
 Alpha  occ. eigenvalues --   -1.05419  -0.94324  -0.89596  -0.76945  -0.72519
 Alpha  occ. eigenvalues --   -0.67494  -0.66408  -0.61474  -0.60988  -0.59284
 Alpha  occ. eigenvalues --   -0.57350  -0.54450  -0.52074  -0.51263  -0.49259
 Alpha  occ. eigenvalues --   -0.44518  -0.43930  -0.41499
 Alpha virt. eigenvalues --    0.03151   0.03739   0.04472   0.05362   0.06482
 Alpha virt. eigenvalues --    0.06784   0.07026   0.07431   0.07820   0.09616
 Alpha virt. eigenvalues --    0.10499   0.10801   0.11136   0.12379   0.13566

 Mulliken charges:
               1
     1  C   -0.595132
     2  C    0.496433
     3  C   -0.588908
     4  O   -0.608331
     5  C    0.398518
     6  N   -0.675959
     7  O   -0.525039
     8  H    0.162074
     9  H    0.181501
    10  H    0.200589
    11  H    0.158971
    12  H    0.201387
    13  H    0.193069
    14  H    0.370102
    15  H    0.253534
    16  H    0.377190
 Sum of Mulliken charges =  -0.00000

 Dipole moment (field-independent basis, Debye):
    X=              0.0188    Y=              0.7132    Z=             -1.1163  Tot=              1.3248
 Quadrupole moment (field-independent basis, Debye-Ang):
   XX=            -29.9096   YY=            -49.0269   ZZ=            -45.5322
   XY=              0.7831   XZ=             -0.9473   YZ=             -1.4606

 Normal termination of Gaussian 09 at Tue Aug 30 12:43:32 2022.
