 Gaussian 09, Revision E.01,
 Gaussian 09:  ES64L-G09RevE.01 30-Nov-2015

 -----
 #P G4
 -----

 --------
 Frag_828
 --------
 Symbolic Z-matrix:
 Charge =  0 Multiplicity = 1

 SCF Done:  E(RB3LYP) =  -324.515687287     A.U. after   12 cycles
 SCF Done:  E(RB3LYP) =  -324.523658929     A.U. after   11 cycles
 SCF Done:  E(RB3LYP) =  -324.524704184     A.U. after   11 cycles
 SCF Done:  E(RB3LYP) =  -324.525276907     A.U. after   10 cycles
 SCF Done:  E(RB3LYP) =  -324.525844865     A.U. after   10 cycles
 SCF Done:  E(RB3LYP) =  -324.526272417     A.U. after   10 cycles
 SCF Done:  E(RB3LYP) =  -324.527187665     A.U. after   11 cycles
 SCF Done:  E(RB3LYP) =  -324.514772515     A.U. after   13 cycles
 SCF Done:  E(RB3LYP) =  -324.527728770     A.U. after   11 cycles
 SCF Done:  E(RB3LYP) =  -324.528778925     A.U. after   11 cycles
 SCF Done:  E(RB3LYP) =  -324.530463726     A.U. after    7 cycles
 SCF Done:  E(RB3LYP) =  -324.530464064     A.U. after    6 cycles
 SCF Done:  E(RB3LYP) =  -324.530464159     A.U. after    6 cycles
 Optimization completed.
    -- Stationary point found.
 Normal termination of Gaussian 09 at Fri Aug 26 04:19:22 2022.

 ----------------------------------------------------------
 #P Geom=AllCheck Guess=TCheck SCRF=Check B3LYP/GTBas3 Freq
 ----------------------------------------------------------

 Structure from the checkpoint file:  "G4.Frag_828.chk"
 --------
 Frag_828
 --------
 Charge =  0 Multiplicity = 1

 SCF Done:  E(RB3LYP) =  -324.530464159     A.U. after    1 cycles

  Exact polarizability:  72.300   0.748  65.471  -0.928   0.281  63.454
 Approx polarizability:  96.151   2.657  92.655  -1.487   0.727  92.243

                      1                      2                      3
                      A                      A                      A
 Frequencies --    109.0242               208.9883               231.4248
 Red. masses --      3.1574                 1.0392                 1.1040
 Frc consts  --      0.0221                 0.0267                 0.0348
 IR Inten    --      1.1921                 0.6210                 0.9662

                      4                      5                      6
                      A                      A                      A
 Frequencies --    247.0625               268.5328               283.3278
 Red. masses --      1.0928                 2.8022                 2.4036
 Frc consts  --      0.0393                 0.1191                 0.1137
 IR Inten    --     36.8920                 0.8806                14.1463

                      7                      8                      9
                      A                      A                      A
 Frequencies --    288.6734               329.8846               360.7624
 Red. masses --      1.0767                 1.2404                 2.2894
 Frc consts  --      0.0529                 0.0795                 0.1756
 IR Inten    --      3.8406                44.8686                 3.7903

                     10                     11                     12
                      A                      A                      A
 Frequencies --    382.4309               421.4578               486.0150
 Red. masses --      2.5177                 2.5929                 2.2239
 Frc consts  --      0.2170                 0.2714                 0.3095
 IR Inten    --      9.3338                 9.7901                29.2930

                     13                     14                     15
                      A                      A                      A
 Frequencies --    504.0824               582.5410               725.0915
 Red. masses --      3.1900                 2.7001                 2.8028
 Frc consts  --      0.4776                 0.5399                 0.8682
 IR Inten    --     12.6636                11.6349                 4.5758

                     16                     17                     18
                      A                      A                      A
 Frequencies --    856.5858               883.5005               912.2623
 Red. masses --      2.0910                 1.9577                 1.4792
 Frc consts  --      0.9040                 0.9004                 0.7253
 IR Inten    --     36.5022               108.7646               140.4461

                     19                     20                     21
                      A                      A                      A
 Frequencies --    925.4204               939.3049               967.9732
 Red. masses --      1.3171                 1.5021                 1.6834
 Frc consts  --      0.6646                 0.7808                 0.9293
 IR Inten    --     53.4158                24.9841                 0.6679

                     22                     23                     24
                      A                      A                      A
 Frequencies --   1014.4091              1048.7995              1079.9662
 Red. masses --      1.3234                 1.7199                 1.6820
 Frc consts  --      0.8024                 1.1146                 1.1558
 IR Inten    --      7.0772                26.8736                 9.4945

                     25                     26                     27
                      A                      A                      A
 Frequencies --   1104.1836              1175.0003              1219.0186
 Red. masses --      2.0427                 1.3322                 2.4862
 Frc consts  --      1.4674                 1.0837                 2.1768
 IR Inten    --     17.9365                 9.0683                17.9780

                     28                     29                     30
                      A                      A                      A
 Frequencies --   1255.9745              1269.8854              1356.4756
 Red. masses --      1.9782                 1.6471                 1.8070
 Frc consts  --      1.8386                 1.5650                 1.9590
 IR Inten    --     23.7237                 6.5464                 2.4344

                     31                     32                     33
                      A                      A                      A
 Frequencies --   1370.4757              1394.0666              1407.3771
 Red. masses --      1.2888                 1.3543                 1.2523
 Frc consts  --      1.4262                 1.5507                 1.4614
 IR Inten    --     14.3236                 7.9038                11.6262

                     34                     35                     36
                      A                      A                      A
 Frequencies --   1447.8463              1476.3985              1492.6362
 Red. masses --      1.4286                 1.0563                 1.0517
 Frc consts  --      1.7644                 1.3566                 1.3805
 IR Inten    --     14.4547                 0.3314                 0.5751

                     37                     38                     39
                      A                      A                      A
 Frequencies --   1495.9727              1514.3910              1628.3441
 Red. masses --      1.0564                 1.0713                 1.0961
 Frc consts  --      1.3929                 1.4476                 1.7124
 IR Inten    --      1.2383                 9.8308                50.2869

                     40                     41                     42
                      A                      A                      A
 Frequencies --   1652.7461              1664.9680              2921.0045
 Red. masses --      1.0920                 1.0937                 1.0822
 Frc consts  --      1.7575                 1.7862                 5.4405
 IR Inten    --     42.8814                 8.0311                77.0964

                     43                     44                     45
                      A                      A                      A
 Frequencies --   3021.4129              3036.6581              3082.1202
 Red. masses --      1.0389                 1.0410                 1.0998
 Frc consts  --      5.5878                 5.6558                 6.1554
 IR Inten    --     29.6239                22.0588                37.7161

                     46                     47                     48
                      A                      A                      A
 Frequencies --   3103.2166              3129.6375              3139.5241
 Red. masses --      1.0953                 1.0979                 1.1011
 Frc consts  --      6.2145                 6.3357                 6.3944
 IR Inten    --     21.1985                16.2850                14.0674

                     49                     50                     51
                      A                      A                      A
 Frequencies --   3469.1802              3478.1363              3484.6397
 Red. masses --      1.0499                 1.0489                 1.0493
 Frc consts  --      7.4445                 7.4758                 7.5069
 IR Inten    --      0.9025                12.3061                 0.8435

                     52                     53                     54
                      A                      A                      A
 Frequencies --   3548.2816              3560.5527              3565.7317
 Red. masses --      1.0910                 1.0911                 1.0924
 Frc consts  --      8.0932                 8.1495                 8.1836
 IR Inten    --      0.0790                 1.0018                 4.5256

 - Thermochemistry -
 -------------------
 Temperature   298.150 Kelvin.  Pressure   1.00000 Atm.
 Atom     1 has atomic number  6 and mass  12.00000

 Molecular mass:   103.11095 amu.
 Principal axes and moments of inertia in atomic units:
                           1         2         3
     Eigenvalues --   577.24384 789.81941 950.18401
           X            0.99964  -0.02538  -0.00821
           Y            0.02540   0.99967   0.00318
           Z            0.00812  -0.00339   0.99996
 This molecule is an asymmetric top.
 Rotational symmetry number  1.
 Warning -- assumption of classical behavior for rotation
           may cause significant error
 Rotational temperatures (Kelvin)      0.15005     0.10966     0.09115
 Rotational constants (GHZ):           3.12648     2.28500     1.89936
 Zero-point vibrational energy     481636.8 (Joules/Mol)
                                  115.11395 (Kcal/Mol)
 Warning -- explicit consideration of  14 degrees of freedom as
           vibrations may cause significant error
 Vibrational temperatures:    156.86   300.69   332.97   355.47   386.36
          (Kelvin)            407.65   415.34   474.63   519.06   550.23
                              606.38   699.27   725.26   838.15  1043.24
                             1232.43  1271.16  1312.54  1331.47  1351.45
                             1392.70  1459.51  1508.99  1553.83  1588.67
                             1690.56  1753.89  1807.06  1827.08  1951.66
                             1971.81  2005.75  2024.90  2083.13  2124.21
                             2147.57  2152.37  2178.87  2342.82  2377.93
                             2395.51  4202.67  4347.13  4369.07  4434.48
                             4464.83  4502.84  4517.07  4991.37  5004.26
                             5013.61  5105.18  5122.83  5130.29

 Zero-point correction=                           0.183446 (Hartree/Particle)
 Thermal correction to Energy=                    0.192514
 Thermal correction to Enthalpy=                  0.193459
 Thermal correction to Gibbs Free Energy=         0.151301
 Sum of electronic and zero-point Energies=           -324.347018
 Sum of electronic and thermal Energies=              -324.337950
 Sum of electronic and thermal Enthalpies=            -324.337006
 Sum of electronic and thermal Free Energies=         -324.379163

                     E (Thermal)             CV                S
                      KCal/Mol        Cal/Mol-Kelvin    Cal/Mol-Kelvin
 Total                  120.805             34.783             88.728
 Electronic               0.000              0.000              0.000
 Translational            0.889              2.981             39.809
 Rotational               0.889              2.981             27.562
 Vibrational            119.027             28.821             21.357
 Vibration     1          0.606              1.942              3.286
 Vibration     2          0.642              1.827              2.052
 Vibration     3          0.653              1.793              1.868
 Vibration     4          0.661              1.768              1.751
 Vibration     5          0.673              1.731              1.606
 Vibration     6          0.682              1.705              1.513
 Vibration     7          0.685              1.695              1.482
 Vibration     8          0.713              1.616              1.261
 Vibration     9          0.735              1.553              1.119
 Vibration    10          0.752              1.508              1.030
 Vibration    11          0.784              1.424              0.887
 Vibration    12          0.842              1.281              0.694
 Vibration    13          0.859              1.241              0.648
 Vibration    14          0.939              1.069              0.481

 Optimization completed.
    -- Stationary point found.
 Normal termination of Gaussian 09 at Fri Aug 26 04:20:25 2022.

 -----------------------------------------------------------------
 #P Geom=AllCheck Guess=TCheck SCRF=Check CCSD(T,E4T,FrzG4)/GTBas1
 -----------------------------------------------------------------

 Structure from the checkpoint file:  "G4.Frag_828.chk"
 --------
 Frag_828
 --------
 Charge =  0 Multiplicity = 1

 SCF Done:  E(RHF) =  -322.366020719     A.U. after   12 cycles
 E2 =    -0.1027673008D+01 EUMP2 =    -0.32339369372717D+03
 CCSD(T)
 CCSD(T)= -0.32349685054D+03
 \CCSD=-323.4657242\CCSD(T)=-323.4968505\RMSD=2.036e-09\PG=C01 [X(C4H13
 Normal termination of Gaussian 09 at Fri Aug 26 04:25:26 2022.

 ---------------------------------------------------------
 #P Geom=AllCheck Guess=TCheck SCRF=Check MP4=FrzG4/GTBas2
 ---------------------------------------------------------

 Structure from the checkpoint file:  "G4.Frag_828.chk"
 --------
 Frag_828
 --------
 Charge =  0 Multiplicity = 1

 SCF Done:  E(RHF) =  -322.377159265     A.U. after   12 cycles
 E2 =    -0.1045030532D+01 EUMP2 =    -0.32342218979688D+03
 Normal termination of Gaussian 09 at Fri Aug 26 04:27:11 2022.

 ---------------------------------------------------------
 #P Geom=AllCheck Guess=TCheck SCRF=Check MP4=FrzG4/GTBas3
 ---------------------------------------------------------

 Structure from the checkpoint file:  "G4.Frag_828.chk"
 --------
 Frag_828
 --------
 Charge =  0 Multiplicity = 1

 SCF Done:  E(RHF) =  -322.415533934     A.U. after   10 cycles
 E2 =    -0.1272116855D+01 EUMP2 =    -0.32368765078899D+03
 Normal termination of Gaussian 09 at Fri Aug 26 04:41:49 2022.

 -----------------------------------------------------------
 #P Geom=AllCheck Guess=TCheck SCRF=Check MP2=Full/GTLargeXP
 -----------------------------------------------------------

 Structure from the checkpoint file:  "G4.Frag_828.chk"
 --------
 Frag_828
 --------
 Charge =  0 Multiplicity = 1

 SCF Done:  E(RHF) =  -322.494635070     A.U. after   12 cycles
 E2 =    -0.1661241248D+01 EUMP2 =    -0.32415587631799D+03
 Normal termination of Gaussian 09 at Fri Aug 26 04:46:31 2022.
 SCF Done:  E(RHF) =  -322.519513626     A.U. after    8 cycles
 Normal termination of Gaussian 09 at Fri Aug 26 04:51:02 2022.

                         Standard orientation:
 ---------------------------------------------------------------------
 Center     Atomic      Atomic             Coordinates (Angstroms)
 Number     Number       Type             X           Y           Z
 ---------------------------------------------------------------------
      1          6           0       -1.356532    1.213088   -0.598794
      2          6           0       -0.627154   -0.004550   -0.007646
      3          6           0       -0.754306   -0.008991    1.521411
      4          7           0       -1.181468   -1.282360   -0.512211
      5          6           0        0.869630    0.024437   -0.441155
      6          7           0        1.526081    1.243494    0.027574
      7          7           0        1.540017   -1.178431    0.056361
      8          1           0       -1.312163    1.196640   -1.694830
      9          1           0       -2.412333    1.203391   -0.305930
     10          1           0       -0.903353    2.147681   -0.261856
     11          1           0       -0.352535    0.916173    1.943188
     12          1           0       -0.216279   -0.855078    1.952651
     13          1           0       -1.808194   -0.072294    1.816383
     14          1           0       -1.300575   -1.221614   -1.521383
     15          1           0       -2.114605   -1.418137   -0.132820
     16          1           0        0.867804    0.088380   -1.544887
     17          1           0        2.373664    1.402703   -0.508345
     18          1           0        1.830248    1.083170    0.985126
     19          1           0        2.420816   -1.314383   -0.429850
     20          1           0        0.945273   -1.979463   -0.142407
 ---------------------------------------------------------------------

 SCF Done:  E(RHF) =  -322.524987565     A.U. after    8 cycles

 The electronic state is 1-A.
 Alpha  occ. eigenvalues --  -15.53847 -15.53359 -15.52611 -11.27595 -11.25677
 Alpha  occ. eigenvalues --  -11.20381 -11.20362  -1.22861  -1.17277  -1.11497
 Alpha  occ. eigenvalues --   -1.01067  -0.92819  -0.87044  -0.74227  -0.67805
 Alpha  occ. eigenvalues --   -0.66671  -0.64155  -0.62239  -0.58226  -0.57158
 Alpha  occ. eigenvalues --   -0.55817  -0.54245  -0.52512  -0.50564  -0.47518
 Alpha  occ. eigenvalues --   -0.45874  -0.41401  -0.39758  -0.37625
 Alpha virt. eigenvalues --    0.03223   0.04054   0.04483   0.05038   0.06595
 Alpha virt. eigenvalues --    0.06817   0.07024   0.07374   0.07706   0.09754
 Alpha virt. eigenvalues --    0.10164   0.10461   0.10616   0.11862   0.12131

 Mulliken charges:
               1
     1  C   -0.600953
     2  C    0.467193
     3  C   -0.602734
     4  N   -0.814647
     5  C    0.105210
     6  N   -0.754825
     7  N   -0.743002
     8  H    0.150838
     9  H    0.158474
    10  H    0.204550
    11  H    0.174605
    12  H    0.195949
    13  H    0.154459
    14  H    0.285354
    15  H    0.294917
    16  H    0.127237
    17  H    0.282973
    18  H    0.305178
    19  H    0.276910
    20  H    0.332313
 Sum of Mulliken charges =  -0.00000

 Dipole moment (field-independent basis, Debye):
    X=             -0.0996    Y=             -0.1866    Z=             -1.3983  Tot=              1.4142
 Quadrupole moment (field-independent basis, Debye-Ang):
   XX=            -39.9008   YY=            -50.8142   ZZ=            -44.4856
   XY=              1.4435   XZ=             -2.0260   YZ=              2.2451

 Normal termination of Gaussian 09 at Fri Aug 26 05:06:46 2022.
