 Gaussian 09, Revision E.01,
 Gaussian 09:  ES64L-G09RevE.01 30-Nov-2015

 -----
 #P G4
 -----

 --------
 Frag_545
 --------
 Symbolic Z-matrix:
 Charge =  0 Multiplicity = 1

 SCF Done:  E(RB3LYP) =  -247.290701828     A.U. after   13 cycles
 SCF Done:  E(RB3LYP) =  -247.293026561     A.U. after   12 cycles
 SCF Done:  E(RB3LYP) =  -247.293223456     A.U. after   11 cycles
 SCF Done:  E(RB3LYP) =  -247.293385687     A.U. after   11 cycles
 SCF Done:  E(RB3LYP) =  -247.293465288     A.U. after   11 cycles
 SCF Done:  E(RB3LYP) =  -247.293491462     A.U. after    9 cycles
 SCF Done:  E(RB3LYP) =  -247.293493660     A.U. after    8 cycles
 SCF Done:  E(RB3LYP) =  -247.293493748     A.U. after    6 cycles
 Optimization completed.
    -- Stationary point found.
 Normal termination of Gaussian 09 at Fri Aug 19 09:02:52 2022.

 ----------------------------------------------------------
 #P Geom=AllCheck Guess=TCheck SCRF=Check B3LYP/GTBas3 Freq
 ----------------------------------------------------------

 Structure from the checkpoint file:  "G4.Frag_545.chk"
 --------
 Frag_545
 --------
 Charge =  0 Multiplicity = 1

 SCF Done:  E(RB3LYP) =  -247.293493748     A.U. after    1 cycles

  Exact polarizability:  49.110  -0.233  37.329   1.571   0.257  31.701
 Approx polarizability:  76.877   2.791  50.627   4.190  -0.270  46.596

                      1                      2                      3
                      A                      A                      A
 Frequencies --    187.0351               218.2705               272.0829
 Red. masses --      3.8589                 1.2765                 3.2087
 Frc consts  --      0.0795                 0.0358                 0.1400
 IR Inten    --      9.3256                 1.0162                 8.6044

                      4                      5                      6
                      A                      A                      A
 Frequencies --    321.5776               392.0675               565.8261
 Red. masses --      1.1082                 3.1408                 4.3128
 Frc consts  --      0.0675                 0.2845                 0.8135
 IR Inten    --    118.3938                 7.8188                 1.9853

                      7                      8                      9
                      A                      A                      A
 Frequencies --    598.8455               803.5008               935.1043
 Red. masses --      7.3164                 2.8128                 2.1985
 Frc consts  --      1.5459                 1.0699                 1.1326
 IR Inten    --      1.3676                 4.3231                14.5805

                     10                     11                     12
                      A                      A                      A
 Frequencies --   1043.8765              1085.2329              1147.1414
 Red. masses --      2.5229                 1.6365                 2.3234
 Frc consts  --      1.6197                 1.1356                 1.8014
 IR Inten    --     53.7681                 8.7673                40.6497

                     13                     14                     15
                      A                      A                      A
 Frequencies --   1282.8612              1361.2960              1394.8713
 Red. masses --      1.1664                 1.2733                 1.2827
 Frc consts  --      1.1310                 1.3902                 1.4705
 IR Inten    --     49.3494                22.7966                15.8212

                     16                     17                     18
                      A                      A                      A
 Frequencies --   1414.6961              1481.9796              1495.7910
 Red. masses --      1.3857                 1.0457                 1.0492
 Frc consts  --      1.6340                 1.3531                 1.3831
 IR Inten    --     12.9089                 4.4096                 1.2853

                     19                     20                     21
                      A                      A                      A
 Frequencies --   2353.8025              2987.9437              3058.5666
 Red. masses --     12.6577                 1.0816                 1.0336
 Frc consts  --     41.3185                 5.6893                 5.6967
 IR Inten    --      0.7368                26.1270                 7.1865

                     22                     23                     24
                      A                      A                      A
 Frequencies --   3141.8655              3144.2691              3813.6388
 Red. masses --      1.1032                 1.1034                 1.0665
 Frc consts  --      6.4164                 6.4275                 9.1387
 IR Inten    --     10.0855                10.4062                33.3341

 - Thermochemistry -
 -------------------
 Temperature   298.150 Kelvin.  Pressure   1.00000 Atm.
 Atom     1 has atomic number  6 and mass  12.00000

 Molecular mass:    71.03711 amu.
 Principal axes and moments of inertia in atomic units:
                           1         2         3
     Eigenvalues --   205.01232 451.88007 607.29380
           X            0.99795  -0.06400  -0.00090
           Y            0.06400   0.99769   0.02260
           Z           -0.00055  -0.02261   0.99974
 This molecule is an asymmetric top.
 Rotational symmetry number  1.
 Rotational temperatures (Kelvin)      0.42248     0.19167     0.14262
 Rotational constants (GHZ):           8.80309     3.99385     2.97178
 Zero-point vibrational energy     206368.6 (Joules/Mol)
                                   49.32329 (Kcal/Mol)
 Warning -- explicit consideration of   7 degrees of freedom as
           vibrations may cause significant error
 Vibrational temperatures:    269.10   314.04   391.47   462.68   564.10
          (Kelvin)            814.10   861.60  1156.06  1345.40  1501.90
                             1561.41  1650.48  1845.75  1958.60  2006.91
                             2035.43  2132.24  2152.11  3386.59  4298.98
                             4400.59  4520.44  4523.90  5486.97

 Zero-point correction=                           0.078602 (Hartree/Particle)
 Thermal correction to Energy=                    0.084304
 Thermal correction to Enthalpy=                  0.085249
 Thermal correction to Gibbs Free Energy=         0.050119
 Sum of electronic and zero-point Energies=           -247.214892
 Sum of electronic and thermal Energies=              -247.209189
 Sum of electronic and thermal Enthalpies=            -247.208245
 Sum of electronic and thermal Free Energies=         -247.243375

                     E (Thermal)             CV                S
                      KCal/Mol        Cal/Mol-Kelvin    Cal/Mol-Kelvin
 Total                   52.902             19.226             73.937
 Electronic               0.000              0.000              0.000
 Translational            0.889              2.981             38.699
 Rotational               0.889              2.981             25.534
 Vibrational             51.124             13.265              9.704
 Vibration     1          0.632              1.858              2.257
 Vibration     2          0.646              1.813              1.973
 Vibration     3          0.675              1.725              1.583
 Vibration     4          0.707              1.632              1.302
 Vibration     5          0.760              1.487              0.992
 Vibration     6          0.922              1.105              0.512
 Vibration     7          0.957              1.034              0.452

 Optimization completed.
    -- Stationary point found.
 Normal termination of Gaussian 09 at Fri Aug 19 09:03:52 2022.

 -----------------------------------------------------------------
 #P Geom=AllCheck Guess=TCheck SCRF=Check CCSD(T,E4T,FrzG4)/GTBas1
 -----------------------------------------------------------------

 Structure from the checkpoint file:  "G4.Frag_545.chk"
 --------
 Frag_545
 --------
 Charge =  0 Multiplicity = 1

 SCF Done:  E(RHF) =  -245.805086810     A.U. after   13 cycles
 E2 =    -0.7191530368D+00 EUMP2 =    -0.24652423984709D+03
 CCSD(T)
 CCSD(T)= -0.24658031967D+03
 Normal termination of Gaussian 09 at Fri Aug 19 09:05:12 2022.

 ---------------------------------------------------------
 #P Geom=AllCheck Guess=TCheck SCRF=Check MP4=FrzG4/GTBas2
 ---------------------------------------------------------

 Structure from the checkpoint file:  "G4.Frag_545.chk"
 --------
 Frag_545
 --------
 Charge =  0 Multiplicity = 1

 SCF Done:  E(RHF) =  -245.813003889     A.U. after   13 cycles
 E2 =    -0.7286350390D+00 EUMP2 =    -0.24654163892816D+03
 Normal termination of Gaussian 09 at Fri Aug 19 09:06:34 2022.

 ---------------------------------------------------------
 #P Geom=AllCheck Guess=TCheck SCRF=Check MP4=FrzG4/GTBas3
 ---------------------------------------------------------

 Structure from the checkpoint file:  "G4.Frag_545.chk"
 --------
 Frag_545
 --------
 Charge =  0 Multiplicity = 1

 SCF Done:  E(RHF) =  -245.834801033     A.U. after   12 cycles
 E2 =    -0.8704540534D+00 EUMP2 =    -0.24670525508592D+03
 Normal termination of Gaussian 09 at Fri Aug 19 09:36:46 2022.

 -----------------------------------------------------------
 #P Geom=AllCheck Guess=TCheck SCRF=Check MP2=Full/GTLargeXP
 -----------------------------------------------------------

 Structure from the checkpoint file:  "G4.Frag_545.chk"
 --------
 Frag_545
 --------
 Charge =  0 Multiplicity = 1

 SCF Done:  E(RHF) =  -245.898466601     A.U. after   13 cycles
 E2 =    -0.1144901406D+01 EUMP2 =    -0.24704336800773D+03
 Normal termination of Gaussian 09 at Fri Aug 19 09:38:51 2022.
 SCF Done:  E(RHF) =  -245.917889733     A.U. after   10 cycles
 Normal termination of Gaussian 09 at Fri Aug 19 09:41:47 2022.

                         Standard orientation:
 ---------------------------------------------------------------------
 Center     Atomic      Atomic             Coordinates (Angstroms)
 Number     Number       Type             X           Y           Z
 ---------------------------------------------------------------------
      1          6           0        1.187598   -1.114039   -0.131550
      2          6           0        0.380504    0.075842    0.384699
      3          8           0        0.904318    1.243165   -0.221778
      4          6           0       -1.059475   -0.078555    0.080812
      5          7           0       -2.189126   -0.168534   -0.145677
      6          1           0        0.836028   -2.043778    0.321412
      7          1           0        2.238967   -0.964012    0.124051
      8          1           0        1.094058   -1.187212   -1.217268
      9          1           0        0.471357    0.125692    1.480819
     10          1           0        0.397167    2.004240    0.081183
 ---------------------------------------------------------------------

 SCF Done:  E(RHF) =  -245.921818077     A.U. after    8 cycles

 The electronic state is 1-A.
 Alpha  occ. eigenvalues --  -20.59408 -15.58070 -11.34848 -11.27855 -11.24734
 Alpha  occ. eigenvalues --   -1.40449  -1.22637  -1.06562  -0.90818  -0.76304
 Alpha  occ. eigenvalues --   -0.72319  -0.62536  -0.58633  -0.56860  -0.56358
 Alpha  occ. eigenvalues --   -0.54778  -0.50498  -0.47612  -0.46438
 Alpha virt. eigenvalues --    0.03267   0.03784   0.04916   0.05307   0.07119
 Alpha virt. eigenvalues --    0.07370   0.07512   0.07772   0.08897   0.10055
 Alpha virt. eigenvalues --    0.13120   0.13808   0.14386   0.14766   0.15511

 Mulliken charges:
               1
     1  C   -0.512060
     2  C    0.099419
     3  O   -0.553570
     4  C    0.253455
     5  N   -0.428642
     6  H    0.187139
     7  H    0.192262
     8  H    0.192601
     9  H    0.189596
    10  H    0.379800
 Sum of Mulliken charges =  -0.00000

 Dipole moment (field-independent basis, Debye):
    X=              2.7916    Y=              0.1658    Z=              1.7308  Tot=              3.2888
 Quadrupole moment (field-independent basis, Debye-Ang):
   XX=            -40.1938   YY=            -26.4650   ZZ=            -29.4876
   XY=             -3.1290   XZ=              0.0832   YZ=              1.3965

 Normal termination of Gaussian 09 at Fri Aug 19 10:53:30 2022.
