 Gaussian 09, Revision E.01,
 Gaussian 09:  ES64L-G09RevE.01 30-Nov-2015

 -----
 #P G4
 -----

 --------
 Frag_833
 --------
 Symbolic Z-matrix:
 Charge =  0 Multiplicity = 1

 SCF Done:  E(RB3LYP) =  -186.867650589     A.U. after   14 cycles
 SCF Done:  E(RB3LYP) =  -186.871258493     A.U. after   14 cycles
 SCF Done:  E(RB3LYP) =  -186.872283859     A.U. after   12 cycles
 SCF Done:  E(RB3LYP) =  -186.872410962     A.U. after   10 cycles
 SCF Done:  E(RB3LYP) =  -186.872421924     A.U. after    9 cycles
 Optimization completed.
    -- Stationary point found.
 Normal termination of Gaussian 09 at Fri Aug 26 15:15:34 2022.

 ----------------------------------------------------------
 #P Geom=AllCheck Guess=TCheck SCRF=Check B3LYP/GTBas3 Freq
 ----------------------------------------------------------

 Structure from the checkpoint file:  "G4.Frag_833.chk"
 --------
 Frag_833
 --------
 Charge =  0 Multiplicity = 1

 SCF Done:  E(RB3LYP) =  -186.872421924     A.U. after    1 cycles

  Exact polarizability:  55.238  -1.350  24.683  -0.000   0.000  16.978
 Approx polarizability:  99.920  -1.434  38.600  -0.000   0.000  25.243

                      1                      2                      3
                      A                      A                      A
 Frequencies --    255.3127               386.5811               633.4137
 Red. masses --      3.9609                 2.6835                 6.6607
 Frc consts  --      0.1521                 0.2363                 1.5745
 IR Inten    --      5.3927                 9.3540                 6.2694

                      4                      5                      6
                      A                      A                      A
 Frequencies --    784.1317               959.8345              1090.7950
 Red. masses --      1.7393                 6.1304                 1.3458
 Frc consts  --      0.6301                 3.3276                 0.9434
 IR Inten    --      1.6998                 5.1338                15.9510

                      7                      8                      9
                      A                      A                      A
 Frequencies --   1223.5960              1505.0225              1708.5198
 Red. masses --      1.4753                 1.1651                 5.9746
 Frc consts  --      1.3014                 1.5549                10.2754
 IR Inten    --     10.7150                10.8219                31.5645

                     10                     11                     12
                      A                      A                      A
 Frequencies --   2312.4158              3076.6846              3192.5809
 Red. masses --     12.5703                 1.0585                 1.1166
 Frc consts  --     39.6031                 5.9037                 6.7054
 IR Inten    --     26.3609                14.6214                 6.2687

 - Thermochemistry -
 -------------------
 Temperature   298.150 Kelvin.  Pressure   1.00000 Atm.
 Atom     1 has atomic number  6 and mass  12.00000

 Molecular mass:    54.02180 amu.
 Principal axes and moments of inertia in atomic units:
                           1         2         3
     Eigenvalues --    26.29868 335.98196 362.28064
           X            0.99981  -0.01943   0.00000
           Y            0.01943   0.99981  -0.00000
           Z           -0.00000   0.00000   1.00000
 This molecule is an asymmetric top.
 Rotational symmetry number  1.
 Rotational temperatures (Kelvin)      3.29347     0.25779     0.23908
 Rotational constants (GHZ):          68.62479     5.37154     4.98161
 Zero-point vibrational energy     102453.5 (Joules/Mol)
                                   24.48697 (Kcal/Mol)
 Warning -- explicit consideration of   2 degrees of freedom as
           vibrations may cause significant error
 Vibrational temperatures:    367.34   556.20   911.34  1128.19  1380.99
          (Kelvin)           1569.41  1760.48  2165.39  2458.18  3327.05
                             4426.66  4593.41

 Zero-point correction=                           0.039022 (Hartree/Particle)
 Thermal correction to Energy=                    0.042973
 Thermal correction to Enthalpy=                  0.043918
 Thermal correction to Gibbs Free Energy=         0.013452
 Sum of electronic and zero-point Energies=           -186.833399
 Sum of electronic and thermal Energies=              -186.829448
 Sum of electronic and thermal Enthalpies=            -186.828504
 Sum of electronic and thermal Free Energies=         -186.858970

                     E (Thermal)             CV                S
                      KCal/Mol        Cal/Mol-Kelvin    Cal/Mol-Kelvin
 Total                   26.966             11.867             64.121
 Electronic               0.000              0.000              0.000
 Translational            0.889              2.981             37.883
 Rotational               0.889              2.981             22.686
 Vibrational             25.189              5.906              3.552
 Vibration     1          0.666              1.754              1.694
 Vibration     2          0.755              1.499              1.013

 Optimization completed.
    -- Stationary point found.
 Normal termination of Gaussian 09 at Fri Aug 26 15:15:44 2022.

 -----------------------------------------------------------------
 #P Geom=AllCheck Guess=TCheck SCRF=Check CCSD(T,E4T,FrzG4)/GTBas1
 -----------------------------------------------------------------

 Structure from the checkpoint file:  "G4.Frag_833.chk"
 --------
 Frag_833
 --------
 Charge =  0 Multiplicity = 1

 SCF Done:  E(RHF) =  -185.748357550     A.U. after   14 cycles
 E2 =    -0.5632823960D+00 EUMP2 =    -0.18631163994644D+03
 CCSD(T)
 CCSD(T)= -0.18635364655D+03
 -186.3293886\CCSD=-186.3286712\CCSD(T)=-186.3536465\RMSD=2.380e-09\PG=
 Normal termination of Gaussian 09 at Fri Aug 26 15:15:58 2022.

 ---------------------------------------------------------
 #P Geom=AllCheck Guess=TCheck SCRF=Check MP4=FrzG4/GTBas2
 ---------------------------------------------------------

 Structure from the checkpoint file:  "G4.Frag_833.chk"
 --------
 Frag_833
 --------
 Charge =  0 Multiplicity = 1

 SCF Done:  E(RHF) =  -185.753904271     A.U. after   13 cycles
 E2 =    -0.5688790513D+00 EUMP2 =    -0.18632278332201D+03
 Normal termination of Gaussian 09 at Fri Aug 26 15:16:03 2022.

 ---------------------------------------------------------
 #P Geom=AllCheck Guess=TCheck SCRF=Check MP4=FrzG4/GTBas3
 ---------------------------------------------------------

 Structure from the checkpoint file:  "G4.Frag_833.chk"
 --------
 Frag_833
 --------
 Charge =  0 Multiplicity = 1

 SCF Done:  E(RHF) =  -185.767313860     A.U. after   13 cycles
 E2 =    -0.6594552581D+00 EUMP2 =    -0.18642676911817D+03
 Normal termination of Gaussian 09 at Fri Aug 26 15:16:18 2022.

 -----------------------------------------------------------
 #P Geom=AllCheck Guess=TCheck SCRF=Check MP2=Full/GTLargeXP
 -----------------------------------------------------------

 Structure from the checkpoint file:  "G4.Frag_833.chk"
 --------
 Frag_833
 --------
 Charge =  0 Multiplicity = 1

 SCF Done:  E(RHF) =  -185.812929797     A.U. after   13 cycles
 E2 =    -0.8711419111D+00 EUMP2 =    -0.18668407170796D+03
 Normal termination of Gaussian 09 at Fri Aug 26 15:16:30 2022.
 SCF Done:  E(RHF) =  -185.826644970     A.U. after   10 cycles
 Normal termination of Gaussian 09 at Fri Aug 26 15:16:47 2022.

                         Standard orientation:
 ---------------------------------------------------------------------
 Center     Atomic      Atomic             Coordinates (Angstroms)
 Number     Number       Type             X           Y           Z
 ---------------------------------------------------------------------
      1          6           0       -1.537291    0.278767    0.000013
      2          7           0       -0.554436   -0.533899    0.000001
      3          6           0        0.705841   -0.084872   -0.000003
      4          7           0        1.834438    0.191917   -0.000000
      5          1           0       -1.427696    1.365804   -0.000018
      6          1           0       -2.543626   -0.135302   -0.000046
 ---------------------------------------------------------------------

 SCF Done:  E(RHF) =  -185.829181759     A.U. after    7 cycles

 The electronic state is 1-A.
 Alpha  occ. eigenvalues --  -15.63709 -15.57318 -11.35339 -11.30807  -1.31730
 Alpha  occ. eigenvalues --   -1.20695  -0.95812  -0.77481  -0.69869  -0.58069
 Alpha  occ. eigenvalues --   -0.57134  -0.53506  -0.43627  -0.43325
 Alpha virt. eigenvalues --    0.02534   0.03154   0.04490   0.05578   0.06544
 Alpha virt. eigenvalues --    0.06961   0.07485   0.08603   0.12078   0.13077
 Alpha virt. eigenvalues --    0.13649   0.14308   0.15175   0.16398   0.17192

 Mulliken charges:
               1
     1  C   -0.111103
     2  N   -0.365904
     3  C    0.435544
     4  N   -0.429420
     5  H    0.220514
     6  H    0.250369
 Sum of Mulliken charges =  -0.00000

 Dipole moment (field-independent basis, Debye):
    X=             -5.1060    Y=              1.2111    Z=             -0.0000  Tot=              5.2476
 Quadrupole moment (field-independent basis, Debye-Ang):
   XX=            -24.3844   YY=            -23.4072   ZZ=            -23.2722
   XY=             -2.9920   XZ=              0.0001   YZ=             -0.0000

 Normal termination of Gaussian 09 at Fri Aug 26 15:18:00 2022.
