 Gaussian 09, Revision E.01,
 Gaussian 09:  ES64L-G09RevE.01 30-Nov-2015

 -----
 #P G4
 -----

 --------
 Frag_541
 --------
 Symbolic Z-matrix:
 Charge =  0 Multiplicity = 1

 SCF Done:  E(RB3LYP) =  -248.430472663     A.U. after   13 cycles
 SCF Done:  E(RB3LYP) =  -248.439438355     A.U. after   12 cycles
 SCF Done:  E(RB3LYP) =  -248.442207984     A.U. after   12 cycles
 SCF Done:  E(RB3LYP) =  -248.443678573     A.U. after   13 cycles
 SCF Done:  E(RB3LYP) =  -248.443987927     A.U. after   11 cycles
 SCF Done:  E(RB3LYP) =  -248.444111440     A.U. after   11 cycles
 SCF Done:  E(RB3LYP) =  -248.444136961     A.U. after   11 cycles
 SCF Done:  E(RB3LYP) =  -248.444148873     A.U. after   10 cycles
 SCF Done:  E(RB3LYP) =  -248.444165556     A.U. after   10 cycles
 SCF Done:  E(RB3LYP) =  -248.444175814     A.U. after   10 cycles
 SCF Done:  E(RB3LYP) =  -248.444179472     A.U. after    8 cycles
 SCF Done:  E(RB3LYP) =  -248.444180208     A.U. after    8 cycles
 SCF Done:  E(RB3LYP) =  -248.444180241     A.U. after    6 cycles
 Optimization completed.
    -- Stationary point found.
 Normal termination of Gaussian 09 at Fri Aug 26 14:44:11 2022.

 ----------------------------------------------------------
 #P Geom=AllCheck Guess=TCheck SCRF=Check B3LYP/GTBas3 Freq
 ----------------------------------------------------------

 Structure from the checkpoint file:  "G4.Frag_541.chk"
 --------
 Frag_541
 --------
 Charge =  0 Multiplicity = 1

 SCF Done:  E(RB3LYP) =  -248.444180241     A.U. after    1 cycles

  Exact polarizability:  61.505  -6.474  46.096   0.977  -1.434  30.912
 Approx polarizability:  85.604 -12.925  63.403   2.382  -1.584  46.138

                      1                      2                      3
                      A                      A                      A
 Frequencies --     72.7099               180.4721               208.7043
 Red. masses --      4.0335                 1.0944                 1.0605
 Frc consts  --      0.0126                 0.0210                 0.0272
 IR Inten    --      3.1945                39.7625                 2.0686

                      4                      5                      6
                      A                      A                      A
 Frequencies --    325.0365               419.9554               487.9272
 Red. masses --      3.0163                 2.1579                 2.5607
 Frc consts  --      0.1878                 0.2242                 0.3592
 IR Inten    --      4.1400                 0.9869                 4.0695

                      7                      8                      9
                      A                      A                      A
 Frequencies --    560.5096               736.9610               817.4472
 Red. masses --      3.1175                 1.1895                 3.8554
 Frc consts  --      0.5771                 0.3806                 1.5179
 IR Inten    --      4.0916                 3.0414                 8.9809

                     10                     11                     12
                      A                      A                      A
 Frequencies --    853.5502               919.7715               985.2753
 Red. masses --      1.3870                 2.2594                 2.5170
 Frc consts  --      0.5954                 1.1262                 1.4396
 IR Inten    --     49.5801                 0.6107                35.8402

                     13                     14                     15
                      A                      A                      A
 Frequencies --   1025.1491              1069.6340              1209.1501
 Red. masses --      1.5836                 1.5175                 1.5154
 Frc consts  --      0.9805                 1.0229                 1.3054
 IR Inten    --      3.5797                 1.4926                53.7996

                     16                     17                     18
                      A                      A                      A
 Frequencies --   1316.4167              1336.0848              1401.7282
 Red. masses --      1.7685                 1.4340                 1.2246
 Frc consts  --      1.8057                 1.5082                 1.4177
 IR Inten    --     53.0027                62.9832                15.4058

                     19                     20                     21
                      A                      A                      A
 Frequencies --   1431.7983              1468.9542              1485.3342
 Red. masses --      1.2443                 1.0473                 1.0533
 Frc consts  --      1.5029                 1.3315                 1.3692
 IR Inten    --      2.7059                 5.9139                 7.0645

                     22                     23                     24
                      A                      A                      A
 Frequencies --   1657.5154              1723.7831              3044.2026
 Red. masses --      1.0711                 5.8185                 1.0396
 Frc consts  --      1.7338                10.1865                 5.6762
 IR Inten    --     19.9913                88.4033                16.5214

                     25                     26                     27
                      A                      A                      A
 Frequencies --   3106.4032              3138.5369              3174.5585
 Red. masses --      1.0945                 1.1021                 1.0608
 Frc consts  --      6.2225                 6.3962                 6.2989
 IR Inten    --     12.2577                16.4091                 0.3692

                     28                     29                     30
                      A                      A                      A
 Frequencies --   3265.5185              3426.6947              3514.2835
 Red. masses --      1.1159                 1.0492                 1.0938
 Frc consts  --      7.0112                 7.2587                 7.9594
 IR Inten    --      6.6071                 0.8220                 1.3205

 - Thermochemistry -
 -------------------
 Temperature   298.150 Kelvin.  Pressure   1.00000 Atm.
 Atom     1 has atomic number  6 and mass  12.00000

 Molecular mass:    73.05276 amu.
 Principal axes and moments of inertia in atomic units:
                           1         2         3
     Eigenvalues --   213.77350 420.99845 601.76359
           X            0.99998   0.00649   0.00055
           Y           -0.00648   0.99983  -0.01700
           Z           -0.00066   0.01699   0.99986
 This molecule is an asymmetric top.
 Rotational symmetry number  1.
 Rotational temperatures (Kelvin)      0.40517     0.20573     0.14393
 Rotational constants (GHZ):           8.44231     4.28681     2.99909
 Zero-point vibrational energy     265356.0 (Joules/Mol)
                                   63.42162 (Kcal/Mol)
 Warning -- explicit consideration of   7 degrees of freedom as
           vibrations may cause significant error
 Vibrational temperatures:    104.61   259.66   300.28   467.65   604.22
          (Kelvin)            702.02   806.45  1060.32  1176.12  1228.07
                             1323.34  1417.59  1474.96  1538.96  1739.70
                             1894.03  1922.33  2016.77  2060.04  2113.49
                             2137.06  2384.79  2480.14  4379.92  4469.42
                             4515.65  4567.48  4698.35  4930.24  5056.26

 Zero-point correction=                           0.101069 (Hartree/Particle)
 Thermal correction to Energy=                    0.107378
 Thermal correction to Enthalpy=                  0.108322
 Thermal correction to Gibbs Free Energy=         0.071597
 Sum of electronic and zero-point Energies=           -248.343111
 Sum of electronic and thermal Energies=              -248.336802
 Sum of electronic and thermal Enthalpies=            -248.335858
 Sum of electronic and thermal Free Energies=         -248.372583

                     E (Thermal)             CV                S
                      KCal/Mol        Cal/Mol-Kelvin    Cal/Mol-Kelvin
 Total                   67.381             21.452             77.293
 Electronic               0.000              0.000              0.000
 Translational            0.889              2.981             38.782
 Rotational               0.889              2.981             25.496
 Vibrational             65.603             15.490             13.015
 Vibration     1          0.599              1.967              4.079
 Vibration     2          0.629              1.866              2.324
 Vibration     3          0.642              1.827              2.055
 Vibration     4          0.709              1.625              1.285
 Vibration     5          0.783              1.427              0.892
 Vibration     6          0.844              1.277              0.689
 Vibration     7          0.916              1.117              0.523

 Optimization completed.
    -- Stationary point found.
 Normal termination of Gaussian 09 at Fri Aug 26 14:44:31 2022.

 -----------------------------------------------------------------
 #P Geom=AllCheck Guess=TCheck SCRF=Check CCSD(T,E4T,FrzG4)/GTBas1
 -----------------------------------------------------------------

 Structure from the checkpoint file:  "G4.Frag_541.chk"
 --------
 Frag_541
 --------
 Charge =  0 Multiplicity = 1

 SCF Done:  E(RHF) =  -246.892405384     A.U. after   12 cycles
 E2 =    -0.7282534888D+00 EUMP2 =    -0.24762065887258D+03
 CCSD(T)
 CCSD(T)= -0.24769075061D+03
 247.666524\CCSD(T)=-247.6907506\RMSD=9.242e-09\PG=C01 [X(C3H7N1O1)]\\@
 Normal termination of Gaussian 09 at Fri Aug 26 14:45:27 2022.

 ---------------------------------------------------------
 #P Geom=AllCheck Guess=TCheck SCRF=Check MP4=FrzG4/GTBas2
 ---------------------------------------------------------

 Structure from the checkpoint file:  "G4.Frag_541.chk"
 --------
 Frag_541
 --------
 Charge =  0 Multiplicity = 1

 SCF Done:  E(RHF) =  -246.900741953     A.U. after   12 cycles
 E2 =    -0.7389171297D+00 EUMP2 =    -0.24763965908263D+03
 Normal termination of Gaussian 09 at Fri Aug 26 14:45:44 2022.

 ---------------------------------------------------------
 #P Geom=AllCheck Guess=TCheck SCRF=Check MP4=FrzG4/GTBas3
 ---------------------------------------------------------

 Structure from the checkpoint file:  "G4.Frag_541.chk"
 --------
 Frag_541
 --------
 Charge =  0 Multiplicity = 1

 SCF Done:  E(RHF) =  -246.923904449     A.U. after   11 cycles
 E2 =    -0.8957914181D+00 EUMP2 =    -0.24781969586687D+03
 Normal termination of Gaussian 09 at Fri Aug 26 14:47:09 2022.

 -----------------------------------------------------------
 #P Geom=AllCheck Guess=TCheck SCRF=Check MP2=Full/GTLargeXP
 -----------------------------------------------------------

 Structure from the checkpoint file:  "G4.Frag_541.chk"
 --------
 Frag_541
 --------
 Charge =  0 Multiplicity = 1

 SCF Done:  E(RHF) =  -246.988242934     A.U. after   12 cycles
 E2 =    -0.1173616571D+01 EUMP2 =    -0.24816185950552D+03
 Normal termination of Gaussian 09 at Fri Aug 26 14:48:04 2022.
 SCF Done:  E(RHF) =  -247.008350664     A.U. after    9 cycles
 Normal termination of Gaussian 09 at Fri Aug 26 14:49:06 2022.

                         Standard orientation:
 ---------------------------------------------------------------------
 Center     Atomic      Atomic             Coordinates (Angstroms)
 Number     Number       Type             X           Y           Z
 ---------------------------------------------------------------------
      1          6           0        1.635724   -0.835959    0.106390
      2          6           0        0.551583   -0.072870   -0.028981
      3          6           0        0.550202    1.426463   -0.022562
      4          8           0       -0.641054   -0.721161   -0.272127
      5          7           0       -1.787099    0.023719    0.185846
      6          1           0        1.562227   -1.916279    0.102169
      7          1           0        2.616644   -0.388033    0.188262
      8          1           0        1.576599    1.793142    0.037870
      9          1           0        0.084591    1.820589   -0.932667
     10          1           0       -0.020531    1.824866    0.819728
     11          1           0       -2.436972   -0.069527   -0.593828
     12          1           0       -2.169489   -0.567304    0.925477
 ---------------------------------------------------------------------

 SCF Done:  E(RHF) =  -247.012556212     A.U. after    8 cycles

 The electronic state is 1-A.
 Alpha  occ. eigenvalues --  -20.59949 -15.61674 -11.28987 -11.22084 -11.19916
 Alpha  occ. eigenvalues --   -1.42481  -1.12970  -1.02250  -0.93550  -0.74681
 Alpha  occ. eigenvalues --   -0.70527  -0.66526  -0.64912  -0.58663  -0.55659
 Alpha  occ. eigenvalues --   -0.53885  -0.52018  -0.50773  -0.43451  -0.33401
 Alpha virt. eigenvalues --    0.04163   0.04499   0.04803   0.06155   0.06997
 Alpha virt. eigenvalues --    0.07407   0.08312   0.08410   0.09187   0.10378
 Alpha virt. eigenvalues --    0.11345   0.11897   0.12835   0.15869   0.16400

 Mulliken charges:
               1
     1  C   -0.496021
     2  C    0.213526
     3  C   -0.479567
     4  O   -0.269564
     5  N   -0.525591
     6  H    0.194782
     7  H    0.177544
     8  H    0.176448
     9  H    0.175245
    10  H    0.201602
    11  H    0.318967
    12  H    0.312630
 Sum of Mulliken charges =  -0.00000

 Dipole moment (field-independent basis, Debye):
    X=             -1.4745    Y=              0.4826    Z=              0.2130  Tot=              1.5660
 Quadrupole moment (field-independent basis, Debye-Ang):
   XX=            -25.2482   YY=            -31.7744   ZZ=            -32.0676
   XY=              2.1091   XZ=              0.0869   YZ=             -1.4018

 Normal termination of Gaussian 09 at Fri Aug 26 14:55:50 2022.
