 Gaussian 09, Revision E.01,
 Gaussian 09:  ES64L-G09RevE.01 30-Nov-2015

 -----
 #P G4
 -----

 --------
 Frag_589
 --------
 Symbolic Z-matrix:
 Charge =  0 Multiplicity = 1

 SCF Done:  E(RB3LYP) =  -302.619291316     A.U. after   14 cycles
 SCF Done:  E(RB3LYP) =  -302.641775067     A.U. after   13 cycles
 SCF Done:  E(RB3LYP) =  -302.646274264     A.U. after   13 cycles
 SCF Done:  E(RB3LYP) =  -302.647941840     A.U. after   12 cycles
 SCF Done:  E(RB3LYP) =  -302.649202054     A.U. after   12 cycles
 SCF Done:  E(RB3LYP) =  -302.649916447     A.U. after   11 cycles
 SCF Done:  E(RB3LYP) =  -302.650034329     A.U. after   11 cycles
 SCF Done:  E(RB3LYP) =  -302.650055878     A.U. after   10 cycles
 SCF Done:  E(RB3LYP) =  -302.650058074     A.U. after    9 cycles
 SCF Done:  E(RB3LYP) =  -302.650059018     A.U. after    8 cycles
 Optimization completed.
    -- Stationary point found.
 Normal termination of Gaussian 09 at Fri Aug 26 10:42:31 2022.

 ----------------------------------------------------------
 #P Geom=AllCheck Guess=TCheck SCRF=Check B3LYP/GTBas3 Freq
 ----------------------------------------------------------

 Structure from the checkpoint file:  "G4.Frag_589.chk"
 --------
 Frag_589
 --------
 Charge =  0 Multiplicity = 1

 SCF Done:  E(RB3LYP) =  -302.650059018     A.U. after    1 cycles

  Exact polarizability:  57.326  -0.875  61.395   3.082  -1.758  30.581
 Approx polarizability:  83.762  -2.737 101.248   7.065  -1.457  47.107

                      1                      2                      3
                      A                      A                      A
 Frequencies --    105.1993               284.2159               300.4382
 Red. masses --      4.5946                 3.7699                 1.5178
 Frc consts  --      0.0300                 0.1794                 0.0807
 IR Inten    --      0.7706                10.5559                40.4214

                      4                      5                      6
                      A                      A                      A
 Frequencies --    382.5334               413.8407               554.4062
 Red. masses --      1.9995                 2.6071                 2.9453
 Frc consts  --      0.1724                 0.2631                 0.5334
 IR Inten    --      9.3761                12.2587                11.9871

                      7                      8                      9
                      A                      A                      A
 Frequencies --    599.6512               619.5451               697.1938
 Red. masses --      3.2967                 1.2198                 1.1506
 Frc consts  --      0.6984                 0.2759                 0.3295
 IR Inten    --     36.9960                68.0601                61.6714

                     10                     11                     12
                      A                      A                      A
 Frequencies --    771.5724               792.3359               817.9760
 Red. masses --      3.3507                 3.8363                 1.6960
 Frc consts  --      1.1753                 1.4190                 0.6686
 IR Inten    --      5.2373                 4.8438               113.0125

                     13                     14                     15
                      A                      A                      A
 Frequencies --    870.3452               880.7699               980.0799
 Red. masses --      1.2733                 1.1888                 1.6487
 Frc consts  --      0.5683                 0.5434                 0.9331
 IR Inten    --     82.0033                30.5471                 4.3486

                     16                     17                     18
                      A                      A                      A
 Frequencies --   1087.8715              1138.4369              1266.3758
 Red. masses --      1.7823                 1.4314                 1.7341
 Frc consts  --      1.2428                 1.0930                 1.6385
 IR Inten    --    159.5463                12.0678                86.1697

                     19                     20                     21
                      A                      A                      A
 Frequencies --   1338.9317              1414.4844              1448.2917
 Red. masses --      1.8552                 2.0639                 1.2774
 Frc consts  --      1.9595                 2.4329                 1.5787
 IR Inten    --     50.8244               217.5311                68.0004

                     22                     23                     24
                      A                      A                      A
 Frequencies --   1643.5651              1710.6535              1751.3236
 Red. masses --      1.1594                 4.7928                 7.1897
 Frc consts  --      1.8453                 8.2635                12.9925
 IR Inten    --     31.3837                68.0165               102.6571

                     25                     26                     27
                      A                      A                      A
 Frequencies --   3164.3790              3257.0357              3514.3117
 Red. masses --      1.0622                 1.1137                 1.0742
 Frc consts  --      6.2669                 6.9606                 7.8168
 IR Inten    --      3.0472                 3.8713                 2.1149

                     28                     29                     30
                      A                      A                      A
 Frequencies --   3517.8530              3618.0907              3733.9551
 Red. masses --      1.0487                 1.0953                 1.0651
 Frc consts  --      7.6467                 8.4481                 8.7497
 IR Inten    --     10.7337                10.2177                93.3912

 - Thermochemistry -
 -------------------
 Temperature   298.150 Kelvin.  Pressure   1.00000 Atm.
 Atom     1 has atomic number  6 and mass  12.00000

 Molecular mass:    86.04801 amu.
 Principal axes and moments of inertia in atomic units:
                           1         2         3
     Eigenvalues --   339.36412 519.58842 801.25237
           X            1.00000   0.00067  -0.00044
           Y           -0.00068   0.99984  -0.01802
           Z            0.00043   0.01802   0.99984
 This molecule is an asymmetric top.
 Rotational symmetry number  1.
 Rotational temperatures (Kelvin)      0.25522     0.16670     0.10810
 Rotational constants (GHZ):           5.31801     3.47341     2.25240
 Zero-point vibrational energy     255257.1 (Joules/Mol)
                                   61.00792 (Kcal/Mol)
 Warning -- explicit consideration of   8 degrees of freedom as
           vibrations may cause significant error
 Vibrational temperatures:    151.36   408.92   432.26   550.38   595.42
          (Kelvin)            797.67   862.76   891.39  1003.11  1110.12
                             1139.99  1176.88  1252.23  1267.23  1410.11
                             1565.20  1637.95  1822.03  1926.42  2035.13
                             2083.77  2364.72  2461.25  2519.76  4552.83
                             4686.14  5056.30  5061.40  5205.62  5372.32

 Zero-point correction=                           0.097222 (Hartree/Particle)
 Thermal correction to Energy=                    0.103361
 Thermal correction to Enthalpy=                  0.104306
 Thermal correction to Gibbs Free Energy=         0.067759
 Sum of electronic and zero-point Energies=           -302.552837
 Sum of electronic and thermal Energies=              -302.546698
 Sum of electronic and thermal Enthalpies=            -302.545753
 Sum of electronic and thermal Free Energies=         -302.582301

                     E (Thermal)             CV                S
                      KCal/Mol        Cal/Mol-Kelvin    Cal/Mol-Kelvin
 Total                   64.860             22.806             76.920
 Electronic               0.000              0.000              0.000
 Translational            0.889              2.981             39.270
 Rotational               0.889              2.981             26.449
 Vibrational             63.083             16.844             11.200
 Vibration     1          0.605              1.945              3.356
 Vibration     2          0.683              1.703              1.508
 Vibration     3          0.693              1.673              1.414
 Vibration     4          0.752              1.507              1.029
 Vibration     5          0.777              1.440              0.913
 Vibration     6          0.910              1.130              0.535
 Vibration     7          0.958              1.033              0.450
 Vibration     8          0.980              0.991              0.417

 Optimization completed.
    -- Stationary point found.
 Normal termination of Gaussian 09 at Fri Aug 26 10:42:57 2022.

 -----------------------------------------------------------------
 #P Geom=AllCheck Guess=TCheck SCRF=Check CCSD(T,E4T,FrzG4)/GTBas1
 -----------------------------------------------------------------

 Structure from the checkpoint file:  "G4.Frag_589.chk"
 --------
 Frag_589
 --------
 Charge =  0 Multiplicity = 1

 SCF Done:  E(RHF) =  -300.812607197     A.U. after   13 cycles
 E2 =    -0.8832092389D+00 EUMP2 =    -0.30169581643556D+03
 CCSD(T)
 CCSD(T)= -0.30176610917D+03
 \CCSD=-301.7347778\CCSD(T)=-301.7661092\RMSD=4.942e-09\PG=C01 [X(C3H6N
 Normal termination of Gaussian 09 at Fri Aug 26 10:44:34 2022.

 ---------------------------------------------------------
 #P Geom=AllCheck Guess=TCheck SCRF=Check MP4=FrzG4/GTBas2
 ---------------------------------------------------------

 Structure from the checkpoint file:  "G4.Frag_589.chk"
 --------
 Frag_589
 --------
 Charge =  0 Multiplicity = 1

 SCF Done:  E(RHF) =  -300.824016137     A.U. after   13 cycles
 E2 =    -0.8970412649D+00 EUMP2 =    -0.30172105740206D+03
 Normal termination of Gaussian 09 at Fri Aug 26 10:45:09 2022.

 ---------------------------------------------------------
 #P Geom=AllCheck Guess=TCheck SCRF=Check MP4=FrzG4/GTBas3
 ---------------------------------------------------------

 Structure from the checkpoint file:  "G4.Frag_589.chk"
 --------
 Frag_589
 --------
 Charge =  0 Multiplicity = 1

 SCF Done:  E(RHF) =  -300.856782042     A.U. after   12 cycles
 E2 =    -0.1070066095D+01 EUMP2 =    -0.30192684813712D+03
 Normal termination of Gaussian 09 at Fri Aug 26 10:47:54 2022.

 -----------------------------------------------------------
 #P Geom=AllCheck Guess=TCheck SCRF=Check MP2=Full/GTLargeXP
 -----------------------------------------------------------

 Structure from the checkpoint file:  "G4.Frag_589.chk"
 --------
 Frag_589
 --------
 Charge =  0 Multiplicity = 1

 SCF Done:  E(RHF) =  -300.936955880     A.U. after   13 cycles
 E2 =    -0.1404136936D+01 EUMP2 =    -0.30234109281545D+03
 Normal termination of Gaussian 09 at Fri Aug 26 10:49:38 2022.
 SCF Done:  E(RHF) =  -300.960686603     A.U. after    9 cycles
 Normal termination of Gaussian 09 at Fri Aug 26 10:51:11 2022.

                         Standard orientation:
 ---------------------------------------------------------------------
 Center     Atomic      Atomic             Coordinates (Angstroms)
 Number     Number       Type             X           Y           Z
 ---------------------------------------------------------------------
      1          6           0       -1.391277    1.223003   -0.296531
      2          6           0       -0.702001    0.122892    0.020135
      3          7           0       -1.281487   -1.142173    0.248480
      4          6           0        0.799584    0.095604    0.014174
      5          7           0        1.583716    1.039973    0.329682
      6          8           0        1.326629   -1.093507   -0.363277
      7          1           0       -2.475505    1.241910   -0.280612
      8          1           0       -0.882478    2.119970   -0.622942
      9          1           0       -0.950262   -1.595791    1.092913
     10          1           0       -2.293304   -1.130238    0.231526
     11          1           0        1.042558    1.843468    0.642951
     12          1           0        0.592519   -1.664843   -0.631429
 ---------------------------------------------------------------------

 SCF Done:  E(RHF) =  -300.965660890     A.U. after    8 cycles

 The electronic state is 1-A.
 Alpha  occ. eigenvalues --  -20.59133 -15.59415 -15.53548 -11.34543 -11.30381
 Alpha  occ. eigenvalues --  -11.24145  -1.42395  -1.24393  -1.19499  -1.03278
 Alpha  occ. eigenvalues --   -0.87766  -0.80356  -0.73616  -0.68504  -0.65882
 Alpha  occ. eigenvalues --   -0.64137  -0.60022  -0.59303  -0.55836  -0.51134
 Alpha  occ. eigenvalues --   -0.43669  -0.41332  -0.35523
 Alpha virt. eigenvalues --    0.02767   0.03965   0.05245   0.05304   0.06948
 Alpha virt. eigenvalues --    0.07283   0.07489   0.08300   0.08662   0.10036
 Alpha virt. eigenvalues --    0.10940   0.12247   0.12551   0.13076   0.13613

 Mulliken charges:
               1
     1  C   -0.487117
     2  C    0.234843
     3  N   -0.762470
     4  C    0.419807
     5  N   -0.624048
     6  O   -0.511481
     7  H    0.176920
     8  H    0.205998
     9  H    0.333724
    10  H    0.318853
    11  H    0.292165
    12  H    0.402806
 Sum of Mulliken charges =  -0.00000

 Dipole moment (field-independent basis, Debye):
    X=             -5.1062    Y=             -0.8991    Z=              0.7114  Tot=              5.2333
 Quadrupole moment (field-independent basis, Debye-Ang):
   XX=            -41.3256   YY=            -32.2347   ZZ=            -36.5547
   XY=              0.0969   XZ=             -1.2680   YZ=             -1.6612

 Normal termination of Gaussian 09 at Fri Aug 26 10:57:16 2022.
