 Gaussian 09, Revision E.01,
 Gaussian 09:  ES64L-G09RevE.01 30-Nov-2015

 -----
 #P G4
 -----

 --------
 Frag_847
 --------
 Symbolic Z-matrix:
 Charge =  0 Multiplicity = 1

 SCF Done:  E(RB3LYP) =  -318.567892710     A.U. after   16 cycles
 SCF Done:  E(RB3LYP) =  -318.603911482     A.U. after   13 cycles
 SCF Done:  E(RB3LYP) =  -318.613422888     A.U. after   13 cycles
 SCF Done:  E(RB3LYP) =  -318.614341461     A.U. after   13 cycles
 SCF Done:  E(RB3LYP) =  -318.613867180     A.U. after   14 cycles
 SCF Done:  E(RB3LYP) =  -318.614474253     A.U. after    9 cycles
 SCF Done:  E(RB3LYP) =  -318.614641338     A.U. after   11 cycles
 SCF Done:  E(RB3LYP) =  -318.614642878     A.U. after   11 cycles
 SCF Done:  E(RB3LYP) =  -318.614655095     A.U. after   11 cycles
 SCF Done:  E(RB3LYP) =  -318.614661115     A.U. after    9 cycles
 SCF Done:  E(RB3LYP) =  -318.614665138     A.U. after   10 cycles
 SCF Done:  E(RB3LYP) =  -318.614666134     A.U. after   11 cycles
 SCF Done:  E(RB3LYP) =  -318.614666355     A.U. after    9 cycles
 Optimization completed.
    -- Stationary point found.
 Normal termination of Gaussian 09 at Sat Aug 20 16:23:32 2022.

 ----------------------------------------------------------
 #P Geom=AllCheck Guess=TCheck SCRF=Check B3LYP/GTBas3 Freq
 ----------------------------------------------------------

 Structure from the checkpoint file:  "G4.Frag_847.chk"
 --------
 Frag_847
 --------
 Charge =  0 Multiplicity = 1

 SCF Done:  E(RB3LYP) =  -318.614666355     A.U. after    1 cycles

  Exact polarizability:  54.540  -4.787  60.008   0.000  -0.001  27.459
 Approx polarizability:  72.879  -3.651 122.789  -0.002  -0.008  42.217

                      1                      2                      3
                      A                      A                      A
 Frequencies --     30.9938               181.3895               328.0093
 Red. masses --      6.0870                 1.0382                 4.3320
 Frc consts  --      0.0034                 0.0201                 0.2746
 IR Inten    --      0.4568                 0.1963                 2.7957

                      4                      5                      6
                      A                      A                      A
 Frequencies --    408.4909               429.2150               547.1496
 Red. masses --      2.9909                 4.1638                 5.8374
 Frc consts  --      0.2940                 0.4520                 1.0296
 IR Inten    --      1.4447                 1.5190                 9.5370

                      7                      8                      9
                      A                      A                      A
 Frequencies --    595.3645               666.8600               785.3524
 Red. masses --      3.3534                 2.4421                 3.6497
 Frc consts  --      0.7003                 0.6398                 1.3263
 IR Inten    --     48.9242                14.5422                17.5805

                     10                     11                     12
                      A                      A                      A
 Frequencies --    916.2922               940.4542               976.1994
 Red. masses --      1.4549                 1.2648                 2.7949
 Frc consts  --      0.7197                 0.6591                 1.5692
 IR Inten    --     70.8329                16.9241                11.5143

                     13                     14                     15
                      A                      A                      A
 Frequencies --   1049.8968              1078.5512              1266.4899
 Red. masses --      1.2907                 1.5580                 3.9244
 Frc consts  --      0.8383                 1.0678                 3.7087
 IR Inten    --     62.8519                16.0199                39.5430

                     16                     17                     18
                      A                      A                      A
 Frequencies --   1293.2940              1410.3284              1461.4515
 Red. masses --      1.8398                 1.2577                 1.0445
 Frc consts  --      1.8131                 1.4739                 1.3145
 IR Inten    --     95.3305                20.9718                 7.1429

                     19                     20                     21
                      A                      A                      A
 Frequencies --   1467.4254              1508.7616              1612.7924
 Red. masses --      1.0823                 1.7451                11.7060
 Frc consts  --      1.3731                 2.3405                17.9397
 IR Inten    --     22.2110                 3.3775               228.6952

                     22                     23                     24
                      A                      A                      A
 Frequencies --   1776.8810              3059.2153              3136.2165
 Red. masses --      9.2206                 1.0350                 1.0993
 Frc consts  --     17.1524                 5.7072                 6.3703
 IR Inten    --     52.0004                 5.0614                 1.1050

                     25                     26                     27
                      A                      A                      A
 Frequencies --   3142.1984              3413.1812              3486.3998
 Red. masses --      1.1039                 1.0715                 1.0756
 Frc consts  --      6.4217                 7.3544                 7.7031
 IR Inten    --     11.0304                 5.1203                 3.3825

 - Thermochemistry -
 -------------------
 Temperature   298.150 Kelvin.  Pressure   1.00000 Atm.
 Atom     1 has atomic number  6 and mass  12.00000

 Molecular mass:    87.04326 amu.
 Principal axes and moments of inertia in atomic units:
                           1         2         3
     Eigenvalues --   319.39640 479.75183 788.10165
           X            0.99994   0.01133   0.00001
           Y           -0.01133   0.99994   0.00001
           Z           -0.00001  -0.00001   1.00000
 This molecule is an asymmetric top.
 Rotational symmetry number  1.
 Rotational temperatures (Kelvin)      0.27118     0.18054     0.10990
 Rotational constants (GHZ):           5.65047     3.76182     2.28999
 Zero-point vibrational energy     221122.9 (Joules/Mol)
                                   52.84963 (Kcal/Mol)
 Warning -- explicit consideration of   7 degrees of freedom as
           vibrations may cause significant error
 Vibrational temperatures:     44.59   260.98   471.93   587.73   617.54
          (Kelvin)            787.23   856.60   959.46  1129.95  1318.34
                             1353.10  1404.53  1510.57  1551.79  1822.19
                             1860.76  2029.15  2102.70  2111.30  2170.77
                             2320.45  2556.53  4401.52  4512.31  4520.92
                             4910.80  5016.15

 Zero-point correction=                           0.084221 (Hartree/Particle)
 Thermal correction to Energy=                    0.090300
 Thermal correction to Enthalpy=                  0.091244
 Thermal correction to Gibbs Free Energy=         0.053738
 Sum of electronic and zero-point Energies=           -318.530445
 Sum of electronic and thermal Energies=              -318.524367
 Sum of electronic and thermal Enthalpies=            -318.523422
 Sum of electronic and thermal Free Energies=         -318.560929

                     E (Thermal)             CV                S
                      KCal/Mol        Cal/Mol-Kelvin    Cal/Mol-Kelvin
 Total                   56.664             20.738             78.938
 Electronic               0.000              0.000              0.000
 Translational            0.889              2.981             39.304
 Rotational               0.889              2.981             26.293
 Vibrational             54.886             14.776             13.341
 Vibration     1          0.594              1.984              5.765
 Vibration     2          0.630              1.865              2.314
 Vibration     3          0.711              1.620              1.270
 Vibration     4          0.773              1.452              0.932
 Vibration     5          0.791              1.407              0.861
 Vibration     6          0.902              1.146              0.550
 Vibration     7          0.953              1.042              0.458

 Optimization completed.
    -- Stationary point found.
 Normal termination of Gaussian 09 at Sat Aug 20 16:25:29 2022.

 -----------------------------------------------------------------
 #P Geom=AllCheck Guess=TCheck SCRF=Check CCSD(T,E4T,FrzG4)/GTBas1
 -----------------------------------------------------------------

 Structure from the checkpoint file:  "G4.Frag_847.chk"
 --------
 Frag_847
 --------
 Charge =  0 Multiplicity = 1

 SCF Done:  E(RHF) =  -316.713095156     A.U. after   14 cycles
 E2 =    -0.9458284636D+00 EUMP2 =    -0.31765892361919D+03
 CCSD(T)
 CCSD(T)= -0.31772178083D+03
 657\MP4SDQ=-317.6857947\CCSD=-317.6825051\CCSD(T)=-317.7217808\RMSD=9.
 Normal termination of Gaussian 09 at Sat Aug 20 16:30:52 2022.

 ---------------------------------------------------------
 #P Geom=AllCheck Guess=TCheck SCRF=Check MP4=FrzG4/GTBas2
 ---------------------------------------------------------

 Structure from the checkpoint file:  "G4.Frag_847.chk"
 --------
 Frag_847
 --------
 Charge =  0 Multiplicity = 1

 SCF Done:  E(RHF) =  -316.723218055     A.U. after   13 cycles
 E2 =    -0.9582460807D+00 EUMP2 =    -0.31768146413582D+03
 Normal termination of Gaussian 09 at Sat Aug 20 16:36:53 2022.

 ---------------------------------------------------------
 #P Geom=AllCheck Guess=TCheck SCRF=Check MP4=FrzG4/GTBas3
 ---------------------------------------------------------

 Structure from the checkpoint file:  "G4.Frag_847.chk"
 --------
 Frag_847
 --------
 Charge =  0 Multiplicity = 1

 SCF Done:  E(RHF) =  -316.751402046     A.U. after   13 cycles
 E2 =    -0.1130736211D+01 EUMP2 =    -0.31788213825734D+03
 Normal termination of Gaussian 09 at Sat Aug 20 18:14:40 2022.

 -----------------------------------------------------------
 #P Geom=AllCheck Guess=TCheck SCRF=Check MP2=Full/GTLargeXP
 -----------------------------------------------------------

 Structure from the checkpoint file:  "G4.Frag_847.chk"
 --------
 Frag_847
 --------
 Charge =  0 Multiplicity = 1

 SCF Done:  E(RHF) =  -316.833903684     A.U. after   13 cycles
 E2 =    -0.1467604425D+01 EUMP2 =    -0.31830150810937D+03
 Normal termination of Gaussian 09 at Sat Aug 20 18:18:45 2022.
 SCF Done:  E(RHF) =  -316.859238568     A.U. after   11 cycles
 Normal termination of Gaussian 09 at Sat Aug 20 18:24:02 2022.

                         Standard orientation:
 ---------------------------------------------------------------------
 Center     Atomic      Atomic             Coordinates (Angstroms)
 Number     Number       Type             X           Y           Z
 ---------------------------------------------------------------------
      1          6           0        1.566523    0.989420    0.000189
      2          6           0        0.691542   -0.229120    0.000020
      3          7           0        0.994365   -1.447243   -0.000245
      4          7           0       -0.794782    0.043018    0.000022
      5          7           0       -1.093927    1.280899   -0.000276
      6          8           0       -1.565719   -0.917548    0.000267
      7          1           0        1.368145    1.610707   -0.875958
      8          1           0        1.367509    1.610990    0.875992
      9          1           0        2.614164    0.680297    0.000659
     10          1           0        2.008408   -1.563940   -0.000305
     11          1           0       -2.120455    1.303815   -0.000282
 ---------------------------------------------------------------------

 SCF Done:  E(RHF) =  -316.864300897     A.U. after    8 cycles

 The electronic state is 1-A.
 Alpha  occ. eigenvalues --  -20.56427 -15.80027 -15.61590 -15.58967 -11.35770
 Alpha  occ. eigenvalues --  -11.26169  -1.53428  -1.28303  -1.26076  -1.03677
 Alpha  occ. eigenvalues --   -0.97155  -0.78790  -0.73146  -0.69886  -0.68700
 Alpha  occ. eigenvalues --   -0.66593  -0.60353  -0.59608  -0.52556  -0.46716
 Alpha  occ. eigenvalues --   -0.46709  -0.45610  -0.39923
 Alpha virt. eigenvalues --    0.02798   0.04321   0.04645   0.05364   0.06419
 Alpha virt. eigenvalues --    0.07446   0.07792   0.07977   0.08534   0.10509
 Alpha virt. eigenvalues --    0.11665   0.12095   0.12846   0.14099   0.14469

 Mulliken charges:
               1
     1  C   -0.501802
     2  C    0.284109
     3  N   -0.494147
     4  N    0.476891
     5  N   -0.524011
     6  O   -0.497962
     7  H    0.221357
     8  H    0.221382
     9  H    0.180816
    10  H    0.300463
    11  H    0.332904
 Sum of Mulliken charges =  -0.00000

 Dipole moment (field-independent basis, Debye):
    X=              3.2560    Y=              2.6845    Z=              0.0001  Tot=              4.2200
 Quadrupole moment (field-independent basis, Debye-Ang):
   XX=            -29.7484   YY=            -40.8639   ZZ=            -35.4663
   XY=             -4.6499   XZ=              0.0011   YZ=              0.0009

 Normal termination of Gaussian 09 at Sat Aug 20 20:26:41 2022.
