 Gaussian 09, Revision E.01,
 Gaussian 09:  ES64L-G09RevE.01 30-Nov-2015

 -----
 #P G4
 -----

 ---------
 Frag_1112
 ---------
 Symbolic Z-matrix:
 Charge =  0 Multiplicity = 1

 SCF Done:  E(RB3LYP) =  -419.618010712     A.U. after   12 cycles
 SCF Done:  E(RB3LYP) =  -419.626237728     A.U. after   11 cycles
 SCF Done:  E(RB3LYP) =  -419.627211536     A.U. after   10 cycles
 SCF Done:  E(RB3LYP) =  -419.627936731     A.U. after   10 cycles
 SCF Done:  E(RB3LYP) =  -419.628355599     A.U. after   11 cycles
 SCF Done:  E(RB3LYP) =  -419.628476920     A.U. after   10 cycles
 SCF Done:  E(RB3LYP) =  -419.628582908     A.U. after   10 cycles
 SCF Done:  E(RB3LYP) =  -419.628742267     A.U. after   10 cycles
 SCF Done:  E(RB3LYP) =  -419.628764491     A.U. after   10 cycles
 SCF Done:  E(RB3LYP) =  -419.628848410     A.U. after    9 cycles
 SCF Done:  E(RB3LYP) =  -419.643711212     A.U. after    7 cycles
 SCF Done:  E(RB3LYP) =  -419.643711017     A.U. after    7 cycles
 SCF Done:  E(RB3LYP) =  -419.643711261     A.U. after    6 cycles
 Optimization completed.
    -- Stationary point found.
 Normal termination of Gaussian 09 at Fri Aug 26 01:57:59 2022.

 ----------------------------------------------------------
 #P Geom=AllCheck Guess=TCheck SCRF=Check B3LYP/GTBas3 Freq
 ----------------------------------------------------------

 Structure from the checkpoint file:  "G4.Frag_1112.chk"
 ---------
 Frag_1112
 ---------
 Charge =  0 Multiplicity = 1

 SCF Done:  E(RB3LYP) =  -419.643711261     A.U. after    1 cycles

  Exact polarizability:  70.657   0.260  65.345   1.561   0.302  62.964
 Approx polarizability:  95.567   0.529  93.548   2.089   0.207  91.241

                      1                      2                      3
                      A                      A                      A
 Frequencies --     89.0423               118.1761               221.2568
 Red. masses --      1.1435                 3.1139                 1.0462
 Frc consts  --      0.0053                 0.0256                 0.0302
 IR Inten    --     45.8960                 2.3226                 4.3718

                      4                      5                      6
                      A                      A                      A
 Frequencies --    244.4734               254.6914               279.9304
 Red. masses --      1.4943                 2.7839                 1.6744
 Frc consts  --      0.0526                 0.1064                 0.0773
 IR Inten    --      1.9882                 2.0187                 6.9157

                      7                      8                      9
                      A                      A                      A
 Frequencies --    308.1987               321.0426               351.6244
 Red. masses --      1.3949                 1.3320                 2.6940
 Frc consts  --      0.0781                 0.0809                 0.1962
 IR Inten    --     61.7369                 2.2696                 2.2275

                     10                     11                     12
                      A                      A                      A
 Frequencies --    369.9416               384.1706               442.8887
 Red. masses --      2.5202                 2.0363                 3.4711
 Frc consts  --      0.2032                 0.1771                 0.4012
 IR Inten    --      3.2384                12.7595                 1.1952

                     13                     14                     15
                      A                      A                      A
 Frequencies --    454.4721               542.3978               549.4400
 Red. masses --      2.6353                 3.4200                 2.8725
 Frc consts  --      0.3207                 0.5928                 0.5109
 IR Inten    --     30.2973                 5.5580                 2.8221

                     16                     17                     18
                      A                      A                      A
 Frequencies --    585.0871               704.1428               732.1936
 Red. masses --      4.4353                 1.8778                 1.5433
 Frc consts  --      0.8946                 0.5486                 0.4875
 IR Inten    --      7.6059                25.4233                62.8657

                     19                     20                     21
                      A                      A                      A
 Frequencies --    844.2230               859.4212               932.5695
 Red. masses --      2.6485                 1.6590                 1.3139
 Frc consts  --      1.1121                 0.7220                 0.6732
 IR Inten    --     20.5147               104.6965                98.8859

                     22                     23                     24
                      A                      A                      A
 Frequencies --    944.9726               971.6999               983.6976
 Red. masses --      1.5079                 1.7696                 2.3478
 Frc consts  --      0.7934                 0.9845                 1.3385
 IR Inten    --     21.0767                 4.7480               122.1005

                     25                     26                     27
                      A                      A                      A
 Frequencies --   1022.7345              1028.2196              1093.9220
 Red. masses --      1.3996                 2.4394                 1.4606
 Frc consts  --      0.8626                 1.5195                 1.0298
 IR Inten    --     30.0548                80.6675                 1.9603

                     28                     29                     30
                      A                      A                      A
 Frequencies --   1135.6690              1225.9823              1253.7163
 Red. masses --      2.6585                 2.5939                 2.6706
 Frc consts  --      2.0202                 2.2971                 2.4732
 IR Inten    --     93.9977                41.7447                37.2165

                     31                     32                     33
                      A                      A                      A
 Frequencies --   1297.5630              1337.3428              1369.3475
 Red. masses --      1.7366                 1.7000                 1.6534
 Frc consts  --      1.7227                 1.7914                 1.8266
 IR Inten    --     55.2830                20.4497                17.7731

                     34                     35                     36
                      A                      A                      A
 Frequencies --   1391.4097              1406.4056              1448.4580
 Red. masses --      1.3121                 1.2638                 1.6106
 Frc consts  --      1.4967                 1.4729                 1.9908
 IR Inten    --      3.3650                12.1459               189.7443

                     37                     38                     39
                      A                      A                      A
 Frequencies --   1477.3613              1493.8890              1499.0143
 Red. masses --      1.0505                 1.0516                 1.0515
 Frc consts  --      1.3508                 1.3827                 1.3921
 IR Inten    --      0.1394                 1.7306                 1.9705

                     40                     41                     42
                      A                      A                      A
 Frequencies --   1519.4017              1628.8554              1640.5071
 Red. masses --      1.0832                 1.0992                 1.1135
 Frc consts  --      1.4734                 1.7183                 1.7657
 IR Inten    --     21.7262                71.6981                 1.2733

                     43                     44                     45
                      A                      A                      A
 Frequencies --   3035.5683              3041.9247              3106.8662
 Red. masses --      1.0382                 1.0387                 1.0971
 Frc consts  --      5.6366                 5.6629                 6.2394
 IR Inten    --     17.6515                28.1989                 8.7197

                     46                     47                     48
                      A                      A                      A
 Frequencies --   3110.9550              3129.6277              3137.3618
 Red. masses --      1.0971                 1.1018                 1.1016
 Frc consts  --      6.2561                 6.3585                 6.3887
 IR Inten    --     32.5085                12.2264                16.3691

                     49                     50                     51
                      A                      A                      A
 Frequencies --   3492.7896              3514.9614              3576.3333
 Red. masses --      1.0486                 1.0486                 1.0931
 Frc consts  --      7.5373                 7.6329                 8.2374
 IR Inten    --      0.5233                 2.6075                 2.0140

                     52                     53                     54
                      A                      A                      A
 Frequencies --   3589.7248              3603.2601              3803.1462
 Red. masses --      1.0639                 1.0932                 1.0653
 Frc consts  --      8.0777                 8.3628                 9.0781
 IR Inten    --    120.1072                 5.6315                35.3776

 - Thermochemistry -
 -------------------
 Temperature   298.150 Kelvin.  Pressure   1.00000 Atm.
 Atom     1 has atomic number  6 and mass  12.00000

 Molecular mass:   120.08988 amu.
 Principal axes and moments of inertia in atomic units:
                           1         2         3
     Eigenvalues --   722.881321000.481161001.78763
           X            1.00000   0.00247   0.00082
           Y           -0.00130   0.19937   0.97992
           Z           -0.00226   0.97992  -0.19938
 This molecule is an asymmetric top.
 Rotational symmetry number  1.
 Warning -- assumption of classical behavior for rotation
           may cause significant error
 Rotational temperatures (Kelvin)      0.11982     0.08657     0.08646
 Rotational constants (GHZ):           2.49659     1.80387     1.80152
 Zero-point vibrational energy     459976.5 (Joules/Mol)
                                  109.93703 (Kcal/Mol)
 Warning -- explicit consideration of  16 degrees of freedom as
           vibrations may cause significant error
 Vibrational temperatures:    128.11   170.03   318.34   351.74   366.44
          (Kelvin)            402.76   443.43   461.91   505.91   532.26
                              552.74   637.22   653.88   780.39   790.52
                              841.81  1013.10  1053.46  1214.65  1236.51
                             1341.76  1359.60  1398.06  1415.32  1471.49
                             1479.38  1573.91  1633.97  1763.91  1803.82
                             1866.90  1924.14  1970.18  2001.93  2023.50
                             2084.01  2125.59  2149.37  2156.74  2186.08
                             2343.56  2360.32  4367.50  4376.65  4470.08
                             4475.96  4502.83  4513.96  5025.34  5057.24
                             5145.54  5164.81  5184.28  5471.87

 Zero-point correction=                           0.175196 (Hartree/Particle)
 Thermal correction to Energy=                    0.185077
 Thermal correction to Enthalpy=                  0.186022
 Thermal correction to Gibbs Free Energy=         0.141781
 Sum of electronic and zero-point Energies=           -419.468515
 Sum of electronic and thermal Energies=              -419.458634
 Sum of electronic and thermal Enthalpies=            -419.457690
 Sum of electronic and thermal Free Energies=         -419.501930

                     E (Thermal)             CV                S
                      KCal/Mol        Cal/Mol-Kelvin    Cal/Mol-Kelvin
 Total                  116.138             38.014             93.113
 Electronic               0.000              0.000              0.000
 Translational            0.889              2.981             40.264
 Rotational               0.889              2.981             28.073
 Vibrational            114.360             32.052             24.775
 Vibration     1          0.602              1.957              3.681
 Vibration     2          0.608              1.934              3.130
 Vibration     3          0.648              1.809              1.949
 Vibration     4          0.660              1.772              1.770
 Vibration     5          0.665              1.755              1.698
 Vibration     6          0.680              1.711              1.534
 Vibration     7          0.698              1.658              1.372
 Vibration     8          0.707              1.633              1.305
 Vibration     9          0.728              1.572              1.159
 Vibration    10          0.742              1.534              1.080
 Vibration    11          0.753              1.504              1.023
 Vibration    12          0.803              1.377              0.818
 Vibration    13          0.813              1.351              0.782
 Vibration    14          0.898              1.156              0.560
 Vibration    15          0.905              1.141              0.545
 Vibration    16          0.942              1.064              0.476

 Normal termination of Gaussian 09 at Fri Aug 26 01:59:20 2022.

 -----------------------------------------------------------------
 #P Geom=AllCheck Guess=TCheck SCRF=Check CCSD(T,E4T,FrzG4)/GTBas1
 -----------------------------------------------------------------

 Structure from the checkpoint file:  "G4.Frag_1112.chk"
 ---------
 Frag_1112
 ---------
 Charge =  0 Multiplicity = 1

 SCF Done:  E(RHF) =  -417.072686339     A.U. after   12 cycles
 E2 =    -0.1222142073D+01 EUMP2 =    -0.41829482841211D+03
 CCSD(T)
 CCSD(T)= -0.41839551361D+03
 CCSD=-418.3600198\CCSD(T)=-418.3955136\RMSD=3.815e-09\PG=C01 [X(C4H12N
 Normal termination of Gaussian 09 at Fri Aug 26 02:08:20 2022.

 ---------------------------------------------------------
 #P Geom=AllCheck Guess=TCheck SCRF=Check MP4=FrzG4/GTBas2
 ---------------------------------------------------------

 Structure from the checkpoint file:  "G4.Frag_1112.chk"
 ---------
 Frag_1112
 ---------
 Charge =  0 Multiplicity = 1

 SCF Done:  E(RHF) =  -417.086621724     A.U. after   12 cycles
 E2 =    -0.1244835040D+01 EUMP2 =    -0.41833145676487D+03
 Normal termination of Gaussian 09 at Fri Aug 26 02:11:33 2022.

 ---------------------------------------------------------
 #P Geom=AllCheck Guess=TCheck SCRF=Check MP4=FrzG4/GTBas3
 ---------------------------------------------------------

 Structure from the checkpoint file:  "G4.Frag_1112.chk"
 ---------
 Frag_1112
 ---------
 Charge =  0 Multiplicity = 1

 SCF Done:  E(RHF) =  -417.133261843     A.U. after   10 cycles
 E2 =    -0.1514338532D+01 EUMP2 =    -0.41864760037488D+03
 Normal termination of Gaussian 09 at Fri Aug 26 02:37:36 2022.

 -----------------------------------------------------------
 #P Geom=AllCheck Guess=TCheck SCRF=Check MP2=Full/GTLargeXP
 -----------------------------------------------------------

 Structure from the checkpoint file:  "G4.Frag_1112.chk"
 ---------
 Frag_1112
 ---------
 Charge =  0 Multiplicity = 1

 SCF Done:  E(RHF) =  -417.243411361     A.U. after   12 cycles
 E2 =    -0.1973050314D+01 EUMP2 =    -0.41921646167560D+03
 Normal termination of Gaussian 09 at Fri Aug 26 02:45:14 2022.
 SCF Done:  E(RHF) =  -417.276148478     A.U. after    8 cycles
 Normal termination of Gaussian 09 at Fri Aug 26 02:52:02 2022.

                         Standard orientation:
 ---------------------------------------------------------------------
 Center     Atomic      Atomic             Coordinates (Angstroms)
 Number     Number       Type             X           Y           Z
 ---------------------------------------------------------------------
      1          6           0       -1.322483    1.346997   -0.455097
      2          6           0       -0.772636   -0.001257    0.025152
      3          6           0       -1.286277   -0.314570    1.437903
      4          7           0       -1.143367   -1.030411   -0.972205
      5          6           0        0.788483    0.021965   -0.002795
      6          7           0        1.330218    1.116530    0.779248
      7          8           0        1.223500   -1.208120    0.558705
      8          8           0        1.233173    0.114965   -1.332455
      9          1           0       -0.956951    1.586514   -1.456712
     10          1           0       -1.024709    2.143185    0.230457
     11          1           0       -2.417411    1.320356   -0.483831
     12          1           0       -0.940326   -1.296792    1.768848
     13          1           0       -0.928082    0.430402    2.152967
     14          1           0       -2.381803   -0.308395    1.449604
     15          1           0       -0.935086   -1.949023   -0.591077
     16          1           0       -2.140730   -0.998401   -1.157998
     17          1           0        1.538725    1.893877    0.161467
     18          1           0        2.199360    0.812402    1.203175
     19          1           0        2.024301   -1.432369    0.070483
     20          1           0        0.558853   -0.378156   -1.837669
 ---------------------------------------------------------------------

 SCF Done:  E(RHF) =  -417.283419446     A.U. after    8 cycles

 The electronic state is 1-A.
 Alpha  occ. eigenvalues --  -20.56074 -20.55364 -15.54839 -15.54027 -11.36139
 Alpha  occ. eigenvalues --  -11.26546 -11.21293 -11.20600  -1.42242  -1.33103
 Alpha  occ. eigenvalues --   -1.19608  -1.16916  -1.02166  -0.93347  -0.88099
 Alpha  occ. eigenvalues --   -0.76873  -0.72996  -0.68780  -0.66983  -0.63858
 Alpha  occ. eigenvalues --   -0.63749  -0.61224  -0.58232  -0.56080  -0.54837
 Alpha  occ. eigenvalues --   -0.53560  -0.52011  -0.50643  -0.48949  -0.47651
 Alpha  occ. eigenvalues --   -0.45022  -0.42395  -0.39636
 Alpha virt. eigenvalues --    0.03263   0.04100   0.04415   0.04897   0.06484
 Alpha virt. eigenvalues --    0.06630   0.06920   0.07197   0.07580   0.09592
 Alpha virt. eigenvalues --    0.10009   0.10396   0.10580   0.11904   0.12025

 Mulliken charges:
               1
     1  C   -0.635296
     2  C    0.482396
     3  C   -0.622637
     4  N   -0.836880
     5  C    0.589180
     6  N   -0.791673
     7  O   -0.668133
     8  O   -0.645489
     9  H    0.186984
    10  H    0.191964
    11  H    0.162488
    12  H    0.187726
    13  H    0.194855
    14  H    0.161504
    15  H    0.316067
    16  H    0.301268
    17  H    0.314756
    18  H    0.299852
    19  H    0.393635
    20  H    0.417433
 Sum of Mulliken charges =  -0.00000

 Dipole moment (field-independent basis, Debye):
    X=             -0.6471    Y=             -0.4105    Z=             -0.3575  Tot=              0.8456
 Quadrupole moment (field-independent basis, Debye-Ang):
   XX=            -43.9915   YY=            -48.5241   ZZ=            -54.9981
   XY=              0.7391   XZ=              2.1971   YZ=              0.9942

 Normal termination of Gaussian 09 at Fri Aug 26 03:12:07 2022.
