 Gaussian 09, Revision E.01,
 Gaussian 09:  ES64L-G09RevE.01 30-Nov-2015

 -----
 #P G4
 -----

 --------
 Frag_642
 --------
 Symbolic Z-matrix:
 Charge =  0 Multiplicity = 1

 SCF Done:  E(RB3LYP) =  -287.816692114     A.U. after   14 cycles
 SCF Done:  E(RB3LYP) =  -287.822149877     A.U. after   13 cycles
 SCF Done:  E(RB3LYP) =  -287.820373886     A.U. after   13 cycles
 SCF Done:  E(RB3LYP) =  -287.822343333     A.U. after    9 cycles
 SCF Done:  E(RB3LYP) =  -287.822638837     A.U. after   12 cycles
 SCF Done:  E(RB3LYP) =  -287.822733936     A.U. after   12 cycles
 SCF Done:  E(RB3LYP) =  -287.820949321     A.U. after   15 cycles
 SCF Done:  E(RB3LYP) =  -287.823935890     A.U. after   13 cycles
 SCF Done:  E(RB3LYP) =  -287.824594363     A.U. after   13 cycles
 SCF Done:  E(RB3LYP) =  -287.826768521     A.U. after   14 cycles
 SCF Done:  E(RB3LYP) =  -287.830079699     A.U. after    9 cycles
 SCF Done:  E(RB3LYP) =  -287.830084210     A.U. after    9 cycles
 SCF Done:  E(RB3LYP) =  -287.830084837     A.U. after    7 cycles
 Optimization completed.
    -- Stationary point found.
 Normal termination of Gaussian 09 at Thu Aug 25 22:04:31 2022.

 ----------------------------------------------------------
 #P Geom=AllCheck Guess=TCheck SCRF=Check B3LYP/GTBas3 Freq
 ----------------------------------------------------------

 Structure from the checkpoint file:  "G4.Frag_642.chk"
 --------
 Frag_642
 --------
 Charge =  0 Multiplicity = 1

 SCF Done:  E(RB3LYP) =  -287.830084837     A.U. after    1 cycles

  Exact polarizability:  57.975  -0.699  51.650   1.472  -3.701  50.991
 Approx polarizability:  86.864  -2.518  71.315   4.659  -7.071  72.727

                      1                      2                      3
                      A                      A                      A
 Frequencies --     94.7334               186.8469               222.3189
 Red. masses --      2.5156                 1.2274                 1.0407
 Frc consts  --      0.0133                 0.0252                 0.0303
 IR Inten    --      9.2147                27.1029                 4.3049

                      4                      5                      6
                      A                      A                      A
 Frequencies --    254.5899               299.7499               324.4625
 Red. masses --      1.1206                 2.7477                 2.0757
 Frc consts  --      0.0428                 0.1455                 0.1288
 IR Inten    --      0.4536                 4.1272                 1.9598

                      7                      8                      9
                      A                      A                      A
 Frequencies --    350.4021               396.9886               447.7736
 Red. masses --      2.9000                 2.5166                 2.3717
 Frc consts  --      0.2098                 0.2337                 0.2802
 IR Inten    --      4.2127                 0.9465                 6.0313

                     10                     11                     12
                      A                      A                      A
 Frequencies --    615.1178               788.5353               866.5309
 Red. masses --      3.9317                 3.8984                 1.8687
 Frc consts  --      0.8765                 1.4282                 0.8267
 IR Inten    --      4.7120                62.6188                49.1222

                     13                     14                     15
                      A                      A                      A
 Frequencies --    888.8988               919.6065               955.7730
 Red. masses --      1.6357                 1.7104                 1.3089
 Frc consts  --      0.7615                 0.8522                 0.7045
 IR Inten    --     67.1598                10.3544                 0.4762

                     16                     17                     18
                      A                      A                      A
 Frequencies --    997.1850              1051.1234              1134.5118
 Red. masses --      1.6153                 1.5441                 1.3993
 Frc consts  --      0.9464                 1.0051                 1.0612
 IR Inten    --      1.8686                 1.7164                 2.9375

                     19                     20                     21
                      A                      A                      A
 Frequencies --   1177.1972              1264.3249              1345.4865
 Red. masses --      3.0286                 3.0880                 1.7587
 Frc consts  --      2.4728                 2.9084                 1.8758
 IR Inten    --     16.8275                12.0634                 2.1804

                     22                     23                     24
                      A                      A                      A
 Frequencies --   1387.0850              1404.1543              1425.0502
 Red. masses --      1.2106                 1.2391                 1.2253
 Frc consts  --      1.3723                 1.4394                 1.4660
 IR Inten    --      3.1607                 6.9137                 1.0958

                     25                     26                     27
                      A                      A                      A
 Frequencies --   1477.3456              1483.3096              1500.9478
 Red. masses --      1.0495                 1.0477                 1.0642
 Frc consts  --      1.3495                 1.3582                 1.4126
 IR Inten    --      0.7081                 1.1303                 3.9963

                     28                     29                     30
                      A                      A                      A
 Frequencies --   1505.6820              1638.3178              1829.9518
 Red. masses --      1.0742                 1.1067                 9.6629
 Frc consts  --      1.4348                 1.7501                19.0650
 IR Inten    --      8.9290                45.0252               151.6887

                     31                     32                     33
                      A                      A                      A
 Frequencies --   2884.2487              3025.2954              3034.6601
 Red. masses --      1.0836                 1.0340                 1.0357
 Frc consts  --      5.3110                 5.5759                 5.6194
 IR Inten    --     91.4405                17.1972                19.3955

                     34                     35                     36
                      A                      A                      A
 Frequencies --   3093.9804              3104.2449              3109.0193
 Red. masses --      1.1012                 1.1005                 1.1027
 Frc consts  --      6.2109                 6.2482                 6.2797
 IR Inten    --     10.0092                33.9947                20.9832

                     37                     38                     39
                      A                      A                      A
 Frequencies --   3124.2447              3490.9486              3581.7454
 Red. masses --      1.1020                 1.0495                 1.0920
 Frc consts  --      6.3373                 7.5357                 8.2541
 IR Inten    --     16.8471                 8.8136                 7.1206

 - Thermochemistry -
 -------------------
 Temperature   298.150 Kelvin.  Pressure   1.00000 Atm.
 Atom     1 has atomic number  6 and mass  12.00000

 Molecular mass:    87.06841 amu.
 Principal axes and moments of inertia in atomic units:
                           1         2         3
     Eigenvalues --   392.38788 645.53838 646.77403
           X            0.99964   0.02678   0.00183
           Y            0.01743  -0.69959   0.71433
           Z           -0.02041   0.71404   0.69981
 This molecule is an asymmetric top.
 Rotational symmetry number  1.
 Rotational temperatures (Kelvin)      0.22074     0.13417     0.13392
 Rotational constants (GHZ):           4.59938     2.79571     2.79037
 Zero-point vibrational energy     339036.0 (Joules/Mol)
                                   81.03154 (Kcal/Mol)
 Warning -- explicit consideration of  10 degrees of freedom as
           vibrations may cause significant error
 Vibrational temperatures:    136.30   268.83   319.87   366.30   431.27
          (Kelvin)            466.83   504.15   571.18   644.25   885.02
                             1134.53  1246.74  1278.93  1323.11  1375.14
                             1434.72  1512.33  1632.31  1693.72  1819.08
                             1935.85  1995.70  2020.26  2050.33  2125.57
                             2134.15  2159.53  2166.34  2357.17  2632.89
                             4149.79  4352.72  4366.19  4451.54  4466.31
                             4473.18  4495.09  5022.69  5153.33

 Zero-point correction=                           0.129132 (Hartree/Particle)
 Thermal correction to Energy=                    0.136668
 Thermal correction to Enthalpy=                  0.137613
 Thermal correction to Gibbs Free Energy=         0.098353
 Sum of electronic and zero-point Energies=           -287.700953
 Sum of electronic and thermal Energies=              -287.693417
 Sum of electronic and thermal Enthalpies=            -287.692472
 Sum of electronic and thermal Free Energies=         -287.731732

                     E (Thermal)             CV                S
                      KCal/Mol        Cal/Mol-Kelvin    Cal/Mol-Kelvin
 Total                   85.761             26.847             82.629
 Electronic               0.000              0.000              0.000
 Translational            0.889              2.981             39.305
 Rotational               0.889              2.981             26.596
 Vibrational             83.983             20.886             16.727
 Vibration     1          0.603              1.953              3.560
 Vibration     2          0.632              1.858              2.259
 Vibration     3          0.648              1.807              1.940
 Vibration     4          0.665              1.755              1.699
 Vibration     5          0.692              1.674              1.418
 Vibration     6          0.709              1.627              1.288
 Vibration     7          0.727              1.574              1.164
 Vibration     8          0.763              1.477              0.974
 Vibration     9          0.807              1.366              0.803
 Vibration    10          0.975              1.000              0.424

 Optimization completed.
    -- Stationary point found.
 Normal termination of Gaussian 09 at Thu Aug 25 22:07:26 2022.

 -----------------------------------------------------------------
 #P Geom=AllCheck Guess=TCheck SCRF=Check CCSD(T,E4T,FrzG4)/GTBas1
 -----------------------------------------------------------------

 Structure from the checkpoint file:  "G4.Frag_642.chk"
 --------
 Frag_642
 --------
 Charge =  0 Multiplicity = 1

 SCF Done:  E(RHF) =  -286.005908950     A.U. after   14 cycles
 E2 =    -0.8622216873D+00 EUMP2 =    -0.28686813063722D+03
 CCSD(T)
 CCSD(T)= -0.28694850381D+03
 D=-286.9201055\CCSD(T)=-286.9485038\RMSD=4.480e-09\PG=C01 [X(C4H9N1O1)
 Normal termination of Gaussian 09 at Thu Aug 25 22:14:02 2022.

 ---------------------------------------------------------
 #P Geom=AllCheck Guess=TCheck SCRF=Check MP4=FrzG4/GTBas2
 ---------------------------------------------------------

 Structure from the checkpoint file:  "G4.Frag_642.chk"
 --------
 Frag_642
 --------
 Charge =  0 Multiplicity = 1

 SCF Done:  E(RHF) =  -286.014613030     A.U. after   13 cycles
 E2 =    -0.8745188123D+00 EUMP2 =    -0.28688913184227D+03
 Normal termination of Gaussian 09 at Thu Aug 25 22:20:36 2022.

 ---------------------------------------------------------
 #P Geom=AllCheck Guess=TCheck SCRF=Check MP4=FrzG4/GTBas3
 ---------------------------------------------------------

 Structure from the checkpoint file:  "G4.Frag_642.chk"
 --------
 Frag_642
 --------
 Charge =  0 Multiplicity = 1

 SCF Done:  E(RHF) =  -286.042667305     A.U. after   12 cycles
 E2 =    -0.1062801340D+01 EUMP2 =    -0.28710546864569D+03
 Normal termination of Gaussian 09 at Fri Aug 26 01:36:57 2022.

 -----------------------------------------------------------
 #P Geom=AllCheck Guess=TCheck SCRF=Check MP2=Full/GTLargeXP
 -----------------------------------------------------------

 Structure from the checkpoint file:  "G4.Frag_642.chk"
 --------
 Frag_642
 --------
 Charge =  0 Multiplicity = 1

 SCF Done:  E(RHF) =  -286.114183584     A.U. after   12 cycles
 E2 =    -0.1393663436D+01 EUMP2 =    -0.28750784701968D+03
 Normal termination of Gaussian 09 at Fri Aug 26 01:43:14 2022.
 SCF Done:  E(RHF) =  -286.136529639     A.U. after    9 cycles
 Normal termination of Gaussian 09 at Fri Aug 26 01:50:00 2022.

                         Standard orientation:
 ---------------------------------------------------------------------
 Center     Atomic      Atomic             Coordinates (Angstroms)
 Number     Number       Type             X           Y           Z
 ---------------------------------------------------------------------
      1          6           0       -0.942497   -0.900655   -1.063647
      2          6           0       -0.337788   -0.016085    0.055281
      3          6           0       -1.241183    1.208229    0.300587
      4          7           0       -0.111960   -0.733563    1.307309
      5          6           0        1.004417    0.471747   -0.475182
      6          8           0        2.075973    0.103577   -0.067341
      7          1           0       -1.935906   -1.246272   -0.757278
      8          1           0       -0.312683   -1.776152   -1.248688
      9          1           0       -1.059899   -0.353010   -2.005295
     10          1           0       -2.230952    0.875232    0.627712
     11          1           0       -0.821422    1.837528    1.089241
     12          1           0       -1.369123    1.807680   -0.607653
     13          1           0       -0.752684   -1.514274    1.395680
     14          1           0        0.835197   -1.103284    1.305544
     15          1           0        0.925709    1.199465   -1.313932
 ---------------------------------------------------------------------

 SCF Done:  E(RHF) =  -286.141279712     A.U. after    8 cycles

 The electronic state is 1-A.
 Alpha  occ. eigenvalues --  -20.56260 -15.53988 -11.33368 -11.28154 -11.23668
 Alpha  occ. eigenvalues --  -11.22689  -1.40409  -1.19910  -1.04307  -0.95092
 Alpha  occ. eigenvalues --   -0.88247  -0.76373  -0.69724  -0.66496  -0.62362
 Alpha  occ. eigenvalues --   -0.60463  -0.59035  -0.56428  -0.54687  -0.52775
 Alpha  occ. eigenvalues --   -0.51832  -0.49811  -0.42109  -0.39801
 Alpha virt. eigenvalues --    0.03009   0.03956   0.04423   0.05115   0.06777
 Alpha virt. eigenvalues --    0.07135   0.07215   0.07480   0.07570   0.09846
 Alpha virt. eigenvalues --    0.10120   0.10875   0.11265   0.11841   0.14091

 Mulliken charges:
               1
     1  C   -0.588357
     2  C    0.346331
     3  C   -0.533596
     4  N   -0.758483
     5  C    0.221499
     6  O   -0.545369
     7  H    0.176508
     8  H    0.188825
     9  H    0.175213
    10  H    0.169463
    11  H    0.182741
    12  H    0.164224
    13  H    0.289982
    14  H    0.328288
    15  H    0.182730
 Sum of Mulliken charges =  -0.00000

 Dipole moment (field-independent basis, Debye):
    X=             -2.8044    Y=             -0.2872    Z=             -1.7685  Tot=              3.3279
 Quadrupole moment (field-independent basis, Debye-Ang):
   XX=            -44.0117   YY=            -34.6355   ZZ=            -39.7315
   XY=              0.7060   XZ=             -0.1929   YZ=             -1.8781

 Normal termination of Gaussian 09 at Fri Aug 26 04:53:10 2022.
