 Gaussian 09, Revision E.01,
 Gaussian 09:  ES64L-G09RevE.01 30-Nov-2015

 -----
 #P G4
 -----

 --------
 Frag_737
 --------
 Symbolic Z-matrix:
 Charge =  0 Multiplicity = 1

 SCF Done:  E(RB3LYP) =  -225.009590608     A.U. after   14 cycles
 SCF Done:  E(RB3LYP) =  -225.125960131     A.U. after   14 cycles
 SCF Done:  E(RB3LYP) =  -225.169248064     A.U. after   13 cycles
 SCF Done:  E(RB3LYP) =  -225.186196212     A.U. after   12 cycles
 SCF Done:  E(RB3LYP) =  -225.190121062     A.U. after   12 cycles
 SCF Done:  E(RB3LYP) =  -225.191503833     A.U. after   12 cycles
 SCF Done:  E(RB3LYP) =  -225.191928156     A.U. after   11 cycles
 SCF Done:  E(RB3LYP) =  -225.192306088     A.U. after   12 cycles
 SCF Done:  E(RB3LYP) =  -225.192382961     A.U. after   10 cycles
 SCF Done:  E(RB3LYP) =  -225.192421899     A.U. after   10 cycles
 SCF Done:  E(RB3LYP) =  -225.192430713     A.U. after    9 cycles
 SCF Done:  E(RB3LYP) =  -225.192433401     A.U. after    8 cycles
 SCF Done:  E(RB3LYP) =  -225.192434125     A.U. after    7 cycles
 Optimization completed.
    -- Stationary point found.
 Normal termination of Gaussian 09 at Tue Aug 30 12:21:33 2022.

 ----------------------------------------------------------
 #P Geom=AllCheck Guess=TCheck SCRF=Check B3LYP/GTBas3 Freq
 ----------------------------------------------------------

 Structure from the checkpoint file:  "G4.Frag_737.chk"
 --------
 Frag_737
 --------
 Charge =  0 Multiplicity = 1

 SCF Done:  E(RB3LYP) =  -225.192434125     A.U. after    1 cycles

  Exact polarizability:  49.187   3.125  28.107   0.416   0.103  16.912
 Approx polarizability:  72.731   8.199  42.738  -0.654  -0.044  24.613

                      1                      2                      3
                      A                      A                      A
 Frequencies --    257.4298               311.5697               348.0875
 Red. masses --      1.9493                 1.7016                 1.9583
 Frc consts  --      0.0761                 0.0973                 0.1398
 IR Inten    --     34.6597                55.6351                71.0073

                      4                      5                      6
                      A                      A                      A
 Frequencies --    421.6431               593.2714               686.4245
 Red. masses --      1.4833                 4.6662                 1.4068
 Frc consts  --      0.1554                 0.9677                 0.3905
 IR Inten    --     44.4199                 8.2502               271.7400

                      7                      8                      9
                      A                      A                      A
 Frequencies --    957.2351               979.4051              1122.1863
 Red. masses --      2.6702                 1.7061                 1.8665
 Frc consts  --      1.4415                 0.9642                 1.3849
 IR Inten    --     38.2326                43.1027                73.5156

                     10                     11                     12
                      A                      A                      A
 Frequencies --   1280.4981              1299.1221              1451.1336
 Red. masses --      1.8561                 1.2235                 1.4365
 Frc consts  --      1.7931                 1.2166                 1.7822
 IR Inten    --     72.7667                 5.5763                10.2650

                     13                     14                     15
                      A                      A                      A
 Frequencies --   1634.5650              1746.3366              3127.4288
 Red. masses --      1.1650                 5.8166                 1.0903
 Frc consts  --      1.8339                10.4514                 6.2830
 IR Inten    --     31.4383               104.1253                14.4669

                     16                     17                     18
                      A                      A                      A
 Frequencies --   3548.2690              3655.4183              3833.4088
 Red. masses --      1.0468                 1.0976                 1.0678
 Frc consts  --      7.7654                 8.6413                 9.2448
 IR Inten    --     14.1370                17.9465                67.0791

 - Thermochemistry -
 -------------------
 Temperature   298.150 Kelvin.  Pressure   1.00000 Atm.
 Atom     1 has atomic number  7 and mass  14.00307

 Molecular mass:    60.03236 amu.
 Principal axes and moments of inertia in atomic units:
                           1         2         3
     Eigenvalues --    33.84073 408.43284 440.09379
           X            0.99992   0.00838   0.00974
           Y           -0.00847   0.99992   0.00886
           Z           -0.00966  -0.00894   0.99991
 This molecule is an asymmetric top.
 Rotational symmetry number  1.
 Rotational temperatures (Kelvin)      2.55945     0.21206     0.19681
 Rotational constants (GHZ):          53.33045     4.41870     4.10081
 Zero-point vibrational energy     163011.7 (Joules/Mol)
                                   38.96074 (Kcal/Mol)
 Warning -- explicit consideration of   5 degrees of freedom as
           vibrations may cause significant error
 Vibrational temperatures:    370.38   448.28   500.82   606.65   853.58
          (Kelvin)            987.61  1377.25  1409.14  1614.57  1842.35
                             1869.14  2087.86  2351.77  2512.59  4499.67
                             5105.16  5259.33  5515.41

 Zero-point correction=                           0.062088 (Hartree/Particle)
 Thermal correction to Energy=                    0.066877
 Thermal correction to Enthalpy=                  0.067821
 Thermal correction to Gibbs Free Energy=         0.035630
 Sum of electronic and zero-point Energies=           -225.130346
 Sum of electronic and thermal Energies=              -225.125557
 Sum of electronic and thermal Enthalpies=            -225.124613
 Sum of electronic and thermal Free Energies=         -225.156804

                     E (Thermal)             CV                S
                      KCal/Mol        Cal/Mol-Kelvin    Cal/Mol-Kelvin
 Total                   41.966             15.828             67.751
 Electronic               0.000              0.000              0.000
 Translational            0.889              2.981             38.197
 Rotational               0.889              2.981             23.324
 Vibrational             40.188              9.867              6.230
 Vibration     1          0.667              1.750              1.679
 Vibration     2          0.700              1.652              1.354
 Vibration     3          0.726              1.579              1.175
 Vibration     4          0.784              1.423              0.886
 Vibration     5          0.951              1.046              0.461

 Optimization completed.
    -- Stationary point found.
 Normal termination of Gaussian 09 at Tue Aug 30 12:21:45 2022.

 -----------------------------------------------------------------
 #P Geom=AllCheck Guess=TCheck SCRF=Check CCSD(T,E4T,FrzG4)/GTBas1
 -----------------------------------------------------------------

 Structure from the checkpoint file:  "G4.Frag_737.chk"
 --------
 Frag_737
 --------
 Charge =  0 Multiplicity = 1

 SCF Done:  E(RHF) =  -223.876011123     A.U. after   13 cycles
 E2 =    -0.6325699448D+00 EUMP2 =    -0.22450858106795D+03
 CCSD(T)
 CCSD(T)= -0.22455533224D+03
 24.5556852\MP4SDQ=-224.5350737\CCSD=-224.5351846\CCSD(T)=-224.5553322\
 Normal termination of Gaussian 09 at Tue Aug 30 12:22:06 2022.

 ---------------------------------------------------------
 #P Geom=AllCheck Guess=TCheck SCRF=Check MP4=FrzG4/GTBas2
 ---------------------------------------------------------

 Structure from the checkpoint file:  "G4.Frag_737.chk"
 --------
 Frag_737
 --------
 Charge =  0 Multiplicity = 1

 SCF Done:  E(RHF) =  -223.885870644     A.U. after   13 cycles
 E2 =    -0.6444122063D+00 EUMP2 =    -0.22453028285067D+03
 Normal termination of Gaussian 09 at Tue Aug 30 12:22:13 2022.

 ---------------------------------------------------------
 #P Geom=AllCheck Guess=TCheck SCRF=Check MP4=FrzG4/GTBas3
 ---------------------------------------------------------

 Structure from the checkpoint file:  "G4.Frag_737.chk"
 --------
 Frag_737
 --------
 Charge =  0 Multiplicity = 1

 SCF Done:  E(RHF) =  -223.907460495     A.U. after   12 cycles
 E2 =    -0.7664296348D+00 EUMP2 =    -0.22467389013025D+03
 Normal termination of Gaussian 09 at Tue Aug 30 12:22:36 2022.

 -----------------------------------------------------------
 #P Geom=AllCheck Guess=TCheck SCRF=Check MP2=Full/GTLargeXP
 -----------------------------------------------------------

 Structure from the checkpoint file:  "G4.Frag_737.chk"
 --------
 Frag_737
 --------
 Charge =  0 Multiplicity = 1

 SCF Done:  E(RHF) =  -223.971842883     A.U. after   12 cycles
 E2 =    -0.9997000180D+00 EUMP2 =    -0.22497154290134D+03
 Normal termination of Gaussian 09 at Tue Aug 30 12:22:52 2022.
 SCF Done:  E(RHF) =  -223.990529244     A.U. after    9 cycles
 Normal termination of Gaussian 09 at Tue Aug 30 12:23:14 2022.

                         Standard orientation:
 ---------------------------------------------------------------------
 Center     Atomic      Atomic             Coordinates (Angstroms)
 Number     Number       Type             X           Y           Z
 ---------------------------------------------------------------------
      1          7           0        1.776375   -0.071611   -0.092454
      2          6           0        0.459948    0.345710    0.000589
      3          7           0       -0.502752   -0.490744    0.028378
      4          8           0       -1.741648    0.192093   -0.011484
      5          1           0        1.897598   -1.059571    0.089996
      6          1           0        2.435226    0.496682    0.420150
      7          1           0        0.294347    1.423575   -0.016061
      8          1           0       -2.369034   -0.535195    0.042781
 ---------------------------------------------------------------------

 SCF Done:  E(RHF) =  -223.994395164     A.U. after    8 cycles

 The electronic state is 1-A.
 Alpha  occ. eigenvalues --  -20.58289 -15.59718 -15.58084 -11.31023  -1.40653
 Alpha  occ. eigenvalues --   -1.24500  -1.10441  -0.81726  -0.73683  -0.67864
 Alpha  occ. eigenvalues --   -0.63720  -0.60248  -0.58705  -0.50353  -0.44050
 Alpha  occ. eigenvalues --   -0.35403
 Alpha virt. eigenvalues --    0.03921   0.05107   0.05791   0.06312   0.09251
 Alpha virt. eigenvalues --    0.09586   0.10803   0.12166   0.12441   0.12935
 Alpha virt. eigenvalues --    0.15066   0.16425   0.16780   0.17870   0.19006

 Mulliken charges:
               1
     1  N   -0.647865
     2  C    0.208420
     3  N   -0.324336
     4  O   -0.485191
     5  H    0.326257
     6  H    0.312039
     7  H    0.211126
     8  H    0.399550
 Sum of Mulliken charges =  -0.00000

 Dipole moment (field-independent basis, Debye):
    X=              1.7280    Y=              0.2600    Z=              1.1143  Tot=              2.0725
 Quadrupole moment (field-independent basis, Debye-Ang):
   XX=            -17.9325   YY=            -22.2630   ZZ=            -25.9475
   XY=              2.7524   XZ=              2.6000   YZ=              0.2387

 Normal termination of Gaussian 09 at Tue Aug 30 12:25:11 2022.
