 Gaussian 09, Revision E.01,
 Gaussian 09:  ES64L-G09RevE.01 30-Nov-2015

 -----
 #P G4
 -----

 --------
 Frag_472
 --------
 Symbolic Z-matrix:
 Charge =  0 Multiplicity = 1

 SCF Done:  E(RB3LYP) =  -289.030081168     A.U. after   12 cycles
 SCF Done:  E(RB3LYP) =  -289.036117377     A.U. after   11 cycles
 SCF Done:  E(RB3LYP) =  -289.036774677     A.U. after   10 cycles
 SCF Done:  E(RB3LYP) =  -289.036911684     A.U. after   10 cycles
 SCF Done:  E(RB3LYP) =  -289.036956109     A.U. after    9 cycles
 SCF Done:  E(RB3LYP) =  -289.036972293     A.U. after    9 cycles
 SCF Done:  E(RB3LYP) =  -289.036993365     A.U. after   10 cycles
 SCF Done:  E(RB3LYP) =  -289.037009915     A.U. after    9 cycles
 SCF Done:  E(RB3LYP) =  -289.037016077     A.U. after    9 cycles
 SCF Done:  E(RB3LYP) =  -289.037016878     A.U. after    7 cycles
 SCF Done:  E(RB3LYP) =  -289.037017204     A.U. after    6 cycles
 SCF Done:  E(RB3LYP) =  -289.037017110     A.U. after    6 cycles
 SCF Done:  E(RB3LYP) =  -289.037017194     A.U. after    6 cycles
 Optimization completed.
    -- Stationary point found.
 Normal termination of Gaussian 09 at Fri Aug 26 07:27:09 2022.

 ----------------------------------------------------------
 #P Geom=AllCheck Guess=TCheck SCRF=Check B3LYP/GTBas3 Freq
 ----------------------------------------------------------

 Structure from the checkpoint file:  "G4.Frag_472.chk"
 --------
 Frag_472
 --------
 Charge =  0 Multiplicity = 1

 SCF Done:  E(RB3LYP) =  -289.037017194     A.U. after    1 cycles

  Exact polarizability:  63.366  -0.017  53.811   0.951   0.846  52.142
 Approx polarizability:  83.365  -0.487  72.754  -0.111   2.287  76.854

                      1                      2                      3
                      A                      A                      A
 Frequencies --     75.6014               202.1441               248.3651
 Red. masses --      1.8449                 1.0315                 1.0535
 Frc consts  --      0.0062                 0.0248                 0.0383
 IR Inten    --      1.4454                 0.0240                83.2332

                      4                      5                      6
                      A                      A                      A
 Frequencies --    255.7431               265.8498               276.2289
 Red. masses --      1.4479                 1.0570                 1.9428
 Frc consts  --      0.0558                 0.0440                 0.0873
 IR Inten    --      1.5053                 6.3489                 6.6246

                      7                      8                      9
                      A                      A                      A
 Frequencies --    351.5085               363.0421               454.6869
 Red. masses --      2.6053                 2.4643                 2.6568
 Frc consts  --      0.1897                 0.1914                 0.3236
 IR Inten    --      0.7964                 2.6755                 8.7500

                     10                     11                     12
                      A                      A                      A
 Frequencies --    486.1749               514.7845               721.6755
 Red. masses --      2.7076                 3.3352                 2.6488
 Frc consts  --      0.3771                 0.5207                 0.8128
 IR Inten    --     13.0105                 5.1956                43.1744

                     13                     14                     15
                      A                      A                      A
 Frequencies --    774.2307               896.6441               914.6014
 Red. masses --      1.5892                 1.6933                 1.9359
 Frc consts  --      0.5613                 0.8021                 0.9541
 IR Inten    --     47.0973                 8.1942                30.7815

                     16                     17                     18
                      A                      A                      A
 Frequencies --    966.4694              1000.6870              1101.3463
 Red. masses --      1.8115                 1.3089                 1.9352
 Frc consts  --      0.9969                 0.7722                 1.3830
 IR Inten    --      6.0776                 2.6144                 6.8708

                     19                     20                     21
                      A                      A                      A
 Frequencies --   1110.0412              1155.5358              1178.7673
 Red. masses --      1.5244                 1.4468                 2.3105
 Frc consts  --      1.1067                 1.1382                 1.8915
 IR Inten    --     42.3201                 0.9007                76.2311

                     22                     23                     24
                      A                      A                      A
 Frequencies --   1215.0651              1260.5957              1368.2079
 Red. masses --      2.9388                 2.2734                 1.6814
 Frc consts  --      2.5563                 2.1285                 1.8545
 IR Inten    --    109.4408                12.9137                50.6718

                     25                     26                     27
                      A                      A                      A
 Frequencies --   1390.3113              1407.9149              1460.0109
 Red. masses --      1.2682                 1.2775                 1.1436
 Frc consts  --      1.4443                 1.4920                 1.4363
 IR Inten    --     13.8056                18.6087                 0.6717

                     28                     29                     30
                      A                      A                      A
 Frequencies --   1467.6150              1475.4414              1487.4895
 Red. masses --      1.1595                 1.0485                 1.0898
 Frc consts  --      1.4715                 1.3448                 1.4207
 IR Inten    --     14.8184                 0.1156                 1.8316

                     31                     32                     33
                      A                      A                      A
 Frequencies --   1498.7766              1507.6184              1511.7892
 Red. masses --      1.0510                 1.1150                 1.0927
 Frc consts  --      1.3909                 1.4932                 1.4715
 IR Inten    --      1.7023                 3.2540                 5.1476

                     34                     35                     36
                      A                      A                      A
 Frequencies --   1523.6907              2949.3603              3025.9085
 Red. masses --      1.0669                 1.0603                 1.0374
 Frc consts  --      1.4594                 5.4341                 5.5964
 IR Inten    --     15.6319                75.1549                17.1218

                     37                     38                     39
                      A                      A                      A
 Frequencies --   3041.8223              3066.2645              3091.8483
 Red. masses --      1.0366                 1.0717                 1.0980
 Frc consts  --      5.6508                 5.9369                 6.1844
 IR Inten    --     13.6463                35.3430                17.0618

                     40                     41                     42
                      A                      A                      A
 Frequencies --   3103.8811              3109.2243              3115.7831
 Red. masses --      1.1011                 1.1007                 1.1015
 Frc consts  --      6.2501                 6.2693                 6.3003
 IR Inten    --     50.7896                 9.5101                32.2411

                     43                     44                     45
                      A                      A                      A
 Frequencies --   3136.2623              3527.6469              3823.5644
 Red. masses --      1.1022                 1.0736                 1.0658
 Frc consts  --      6.3873                 7.8716                 9.1802
 IR Inten    --     16.8379                 0.2877                13.5958

 - Thermochemistry -
 -------------------
 Temperature   298.150 Kelvin.  Pressure   1.00000 Atm.
 Atom     1 has atomic number  6 and mass  12.00000

 Molecular mass:    89.08406 amu.
 Principal axes and moments of inertia in atomic units:
                           1         2         3
     Eigenvalues --   402.18289 670.33673 676.99970
           X            0.99960   0.01014   0.02644
           Y           -0.00728   0.99430  -0.10633
           Z           -0.02737   0.10610   0.99398
 This molecule is an asymmetric top.
 Rotational symmetry number  1.
 Rotational temperatures (Kelvin)      0.21536     0.12921     0.12794
 Rotational constants (GHZ):           4.48736     2.69229     2.66579
 Zero-point vibrational energy     400032.6 (Joules/Mol)
                                   95.61007 (Kcal/Mol)
 Warning -- explicit consideration of  11 degrees of freedom as
           vibrations may cause significant error
 Vibrational temperatures:    108.77   290.84   357.34   367.96   382.50
          (Kelvin)            397.43   505.74   522.34   654.19   699.50
                              740.66  1038.33  1113.94  1290.07  1315.91
                             1390.53  1439.76  1584.59  1597.10  1662.56
                             1695.98  1748.21  1813.71  1968.54  2000.35
                             2025.67  2100.63  2111.57  2122.83  2140.16
                             2156.40  2169.12  2175.12  2192.25  4243.47
                             4353.60  4376.50  4411.67  4448.47  4465.79
                             4473.47  4482.91  4512.38  5075.49  5501.25

 Zero-point correction=                           0.152364 (Hartree/Particle)
 Thermal correction to Energy=                    0.160389
 Thermal correction to Enthalpy=                  0.161333
 Thermal correction to Gibbs Free Energy=         0.121138
 Sum of electronic and zero-point Energies=           -288.884653
 Sum of electronic and thermal Energies=              -288.876628
 Sum of electronic and thermal Enthalpies=            -288.875684
 Sum of electronic and thermal Free Energies=         -288.915879

                     E (Thermal)             CV                S
                      KCal/Mol        Cal/Mol-Kelvin    Cal/Mol-Kelvin
 Total                  100.646             29.283             84.598
 Electronic               0.000              0.000              0.000
 Translational            0.889              2.981             39.374
 Rotational               0.889              2.981             26.704
 Vibrational             98.868             23.322             18.521
 Vibration     1          0.599              1.965              4.002
 Vibration     2          0.639              1.837              2.113
 Vibration     3          0.662              1.765              1.742
 Vibration     4          0.666              1.753              1.691
 Vibration     5          0.672              1.736              1.623
 Vibration     6          0.678              1.717              1.557
 Vibration     7          0.728              1.572              1.159
 Vibration     8          0.737              1.548              1.109
 Vibration     9          0.813              1.351              0.782
 Vibration    10          0.842              1.281              0.694
 Vibration    11          0.870              1.217              0.622

 Optimization completed.
    -- Stationary point found.
 Normal termination of Gaussian 09 at Fri Aug 26 07:27:50 2022.

 -----------------------------------------------------------------
 #P Geom=AllCheck Guess=TCheck SCRF=Check CCSD(T,E4T,FrzG4)/GTBas1
 -----------------------------------------------------------------

 Structure from the checkpoint file:  "G4.Frag_472.chk"
 --------
 Frag_472
 --------
 Charge =  0 Multiplicity = 1

 SCF Done:  E(RHF) =  -287.164080425     A.U. after   12 cycles
 E2 =    -0.8727643725D+00 EUMP2 =    -0.28803684479749D+03
 CCSD(T)
 CCSD(T)= -0.28812409927D+03
 974489\CCSD=-288.098328\CCSD(T)=-288.1240993\RMSD=3.995e-09\PG=C01 [X(
 Normal termination of Gaussian 09 at Fri Aug 26 07:30:29 2022.

 ---------------------------------------------------------
 #P Geom=AllCheck Guess=TCheck SCRF=Check MP4=FrzG4/GTBas2
 ---------------------------------------------------------

 Structure from the checkpoint file:  "G4.Frag_472.chk"
 --------
 Frag_472
 --------
 Charge =  0 Multiplicity = 1

 SCF Done:  E(RHF) =  -287.172692565     A.U. after   12 cycles
 E2 =    -0.8862059515D+00 EUMP2 =    -0.28805889851610D+03
 Normal termination of Gaussian 09 at Fri Aug 26 07:31:16 2022.

 ---------------------------------------------------------
 #P Geom=AllCheck Guess=TCheck SCRF=Check MP4=FrzG4/GTBas3
 ---------------------------------------------------------

 Structure from the checkpoint file:  "G4.Frag_472.chk"
 --------
 Frag_472
 --------
 Charge =  0 Multiplicity = 1

 SCF Done:  E(RHF) =  -287.205281517     A.U. after   11 cycles
 E2 =    -0.1088060283D+01 EUMP2 =    -0.28829334179984D+03
 Normal termination of Gaussian 09 at Fri Aug 26 07:36:19 2022.

 -----------------------------------------------------------
 #P Geom=AllCheck Guess=TCheck SCRF=Check MP2=Full/GTLargeXP
 -----------------------------------------------------------

 Structure from the checkpoint file:  "G4.Frag_472.chk"
 --------
 Frag_472
 --------
 Charge =  0 Multiplicity = 1

 SCF Done:  E(RHF) =  -287.277225933     A.U. after   11 cycles
 E2 =    -0.1423843333D+01 EUMP2 =    -0.28870106926625D+03
 Normal termination of Gaussian 09 at Fri Aug 26 07:38:50 2022.
 SCF Done:  E(RHF) =  -287.300056134     A.U. after    8 cycles
 Normal termination of Gaussian 09 at Fri Aug 26 07:41:23 2022.

                         Standard orientation:
 ---------------------------------------------------------------------
 Center     Atomic      Atomic             Coordinates (Angstroms)
 Number     Number       Type             X           Y           Z
 ---------------------------------------------------------------------
      1          6           0       -2.082708   -0.007490    0.035327
      2          7           0       -0.861494   -0.143363   -0.743233
      3          6           0        0.411624    0.007553   -0.048109
      4          6           0        0.641191   -1.032209    1.068391
      5          6           0        0.554863    1.438440    0.488610
      6          8           0        1.359851   -0.215858   -1.093095
      7          1           0       -2.190516    1.019911    0.396868
      8          1           0       -2.935518   -0.208333   -0.619567
      9          1           0       -2.167170   -0.679316    0.907356
     10          1           0       -0.842307   -1.036564   -1.223986
     11          1           0       -0.110228   -0.948103    1.858873
     12          1           0        0.596509   -2.042196    0.649141
     13          1           0        1.622550   -0.897632    1.539022
     14          1           0        0.376531    2.148168   -0.321942
     15          1           0       -0.143040    1.645041    1.305385
     16          1           0        1.567565    1.590512    0.875775
     17          1           0        2.227456   -0.298841   -0.684842
 ---------------------------------------------------------------------

 SCF Done:  E(RHF) =  -287.305105368     A.U. after    8 cycles

 The electronic state is 1-A.
 Alpha  occ. eigenvalues --  -20.55035 -15.53537 -11.31354 -11.24298 -11.21897
 Alpha  occ. eigenvalues --  -11.21214  -1.36777  -1.19237  -1.01966  -0.94320
 Alpha  occ. eigenvalues --   -0.91237  -0.77552  -0.68373  -0.66095  -0.63189
 Alpha  occ. eigenvalues --   -0.59522  -0.57676  -0.55480  -0.54857  -0.53152
 Alpha  occ. eigenvalues --   -0.51796  -0.50958  -0.48798  -0.44413  -0.36649
 Alpha virt. eigenvalues --    0.03277   0.04074   0.04262   0.05393   0.06558
 Alpha virt. eigenvalues --    0.06769   0.07006   0.07255   0.07555   0.09677
 Alpha virt. eigenvalues --    0.09753   0.10480   0.10908   0.13098   0.13521

 Mulliken charges:
               1
     1  C   -0.453528
     2  N   -0.420079
     3  C    0.445739
     4  C   -0.568146
     5  C   -0.572231
     6  O   -0.609876
     7  H    0.167445
     8  H    0.177926
     9  H    0.141026
    10  H    0.287894
    11  H    0.178153
    12  H    0.174663
    13  H    0.161522
    14  H    0.195465
    15  H    0.172073
    16  H    0.160078
    17  H    0.361875
 Sum of Mulliken charges =  -0.00000

 Dipole moment (field-independent basis, Debye):
    X=              0.1992    Y=             -0.6992    Z=              2.3076  Tot=              2.4194
 Quadrupole moment (field-independent basis, Debye-Ang):
   XX=            -34.7826   YY=            -38.6749   ZZ=            -43.5268
   XY=              0.5216   XZ=              1.5608   YZ=              1.4064

 Normal termination of Gaussian 09 at Fri Aug 26 07:50:39 2022.
