 Gaussian 09, Revision E.01,
 Gaussian 09:  ES64L-G09RevE.01 30-Nov-2015

 -----
 #P G4
 -----

 --------
 Frag_609
 --------
 Symbolic Z-matrix:
 Charge =  0 Multiplicity = 1

 SCF Done:  E(RB3LYP) =  -346.970456314     A.U. after   13 cycles
 SCF Done:  E(RB3LYP) =  -347.015338639     A.U. after   13 cycles
 SCF Done:  E(RB3LYP) =  -347.014852756     A.U. after   14 cycles
 SCF Done:  E(RB3LYP) =  -347.023014441     A.U. after    9 cycles
 SCF Done:  E(RB3LYP) =  -347.022483385     A.U. after   12 cycles
 SCF Done:  E(RB3LYP) =  -347.023933318     A.U. after   10 cycles
 SCF Done:  E(RB3LYP) =  -347.024860473     A.U. after   12 cycles
 SCF Done:  E(RB3LYP) =  -347.025436968     A.U. after   11 cycles
 SCF Done:  E(RB3LYP) =  -347.026315600     A.U. after   12 cycles
 SCF Done:  E(RB3LYP) =  -347.026577713     A.U. after   13 cycles
 SCF Done:  E(RB3LYP) =  -347.027153725     A.U. after    7 cycles
 SCF Done:  E(RB3LYP) =  -347.027153806     A.U. after    7 cycles
 SCF Done:  E(RB3LYP) =  -347.027153841     A.U. after    7 cycles
 Optimization completed.
    -- Stationary point found.
 Normal termination of Gaussian 09 at Tue Aug 30 11:17:15 2022.

 ----------------------------------------------------------
 #P Geom=AllCheck Guess=TCheck SCRF=Check B3LYP/GTBas3 Freq
 ----------------------------------------------------------

 Structure from the checkpoint file:  "G4.Frag_609.chk"
 --------
 Frag_609
 --------
 Charge =  0 Multiplicity = 1

 SCF Done:  E(RB3LYP) =  -347.027153841     A.U. after    1 cycles

  Exact polarizability:  66.449   0.592  60.890   0.001  -0.001  53.978
 Approx polarizability:  86.693  -3.749  96.868   0.001  -0.001  74.534

                      1                      2                      3
                      A                      A                      A
 Frequencies --     22.0920               167.7480               217.0729
 Red. masses --      3.7760                 1.0252                 1.4306
 Frc consts  --      0.0011                 0.0170                 0.0397
 IR Inten    --      5.7761                 1.5153                 0.5608

                      4                      5                      6
                      A                      A                      A
 Frequencies --    236.1858               243.3904               250.6296
 Red. masses --      1.0415                 1.6870                 1.5129
 Frc consts  --      0.0342                 0.0589                 0.0560
 IR Inten    --     89.8310                 6.0097                 5.8908

                      7                      8                      9
                      A                      A                      A
 Frequencies --    280.3116               319.2570               366.1344
 Red. masses --      1.7382                 2.3682                 3.0507
 Frc consts  --      0.0805                 0.1422                 0.2410
 IR Inten    --      3.6755                 1.2793                 1.6639

                     10                     11                     12
                      A                      A                      A
 Frequencies --    425.5647               485.5382               548.3482
 Red. masses --      3.6852                 3.2045                 3.9148
 Frc consts  --      0.3932                 0.4451                 0.6935
 IR Inten    --     15.4886                 4.0612                10.1163

                     13                     14                     15
                      A                      A                      A
 Frequencies --    602.0868               680.4690               847.8039
 Red. masses --      2.2525                 3.2996                 2.7656
 Frc consts  --      0.4811                 0.9002                 1.1712
 IR Inten    --      0.0097                 2.9220                 4.8697

                     16                     17                     18
                      A                      A                      A
 Frequencies --    924.8440               960.0067               988.6706
 Red. masses --      1.5888                 2.1396                 1.7787
 Frc consts  --      0.8007                 1.1618                 1.0244
 IR Inten    --      0.2014                30.5806                 2.4368

                     19                     20                     21
                      A                      A                      A
 Frequencies --    989.1252              1047.0846              1130.3834
 Red. masses --      1.3394                 1.7268                 1.5526
 Frc consts  --      0.7721                 1.1155                 1.1688
 IR Inten    --      0.5419                 5.3039                61.9519

                     22                     23                     24
                      A                      A                      A
 Frequencies --   1190.6208              1192.8818              1223.4333
 Red. masses --      3.5961                 2.2288                 2.8916
 Frc consts  --      3.0035                 1.8686                 2.5500
 IR Inten    --     10.5960               120.5803                33.2468

                     25                     26                     27
                      A                      A                      A
 Frequencies --   1369.4283              1382.3619              1384.5591
 Red. masses --      1.4445                 1.5522                 1.2390
 Frc consts  --      1.5961                 1.7476                 1.3994
 IR Inten    --     42.7782                16.9026                 6.1231

                     28                     29                     30
                      A                      A                      A
 Frequencies --   1406.6494              1454.3341              1462.8114
 Red. masses --      1.2528                 1.0575                 1.0518
 Frc consts  --      1.4605                 1.3178                 1.3261
 IR Inten    --      8.6749                14.5432                 9.4361

                     31                     32                     33
                      A                      A                      A
 Frequencies --   1477.7350              1483.4468              1496.0372
 Red. masses --      1.0461                 1.0487                 1.0595
 Frc consts  --      1.3459                 1.3597                 1.3971
 IR Inten    --      0.9436                 1.2607                 5.1642

                     34                     35                     36
                      A                      A                      A
 Frequencies --   1512.0610              1807.6629              3029.8433
 Red. masses --      1.0923                11.0285                 1.0379
 Frc consts  --      1.4714                21.2324                 5.6138
 IR Inten    --     13.1063               117.5847                14.8995

                     37                     38                     39
                      A                      A                      A
 Frequencies --   3034.4934              3049.3441              3101.0090
 Red. masses --      1.0379                 1.0346                 1.0989
 Frc consts  --      5.6307                 5.6682                 6.2262
 IR Inten    --     25.1710                 0.9625                13.4772

                     40                     41                     42
                      A                      A                      A
 Frequencies --   3104.5531              3111.8757              3133.5855
 Red. masses --      1.0993                 1.0968                 1.1014
 Frc consts  --      6.2428                 6.2580                 6.3722
 IR Inten    --     30.1469                 4.3318                 3.5561

                     43                     44                     45
                      A                      A                      A
 Frequencies --   3138.2436              3158.5797              3816.3186
 Red. masses --      1.1006                 1.1051                 1.0663
 Frc consts  --      6.3861                 6.4961                 9.1500
 IR Inten    --     16.2734                11.7393                15.1080

 - Thermochemistry -
 -------------------
 Temperature   298.150 Kelvin.  Pressure   1.00000 Atm.
 Atom     1 has atomic number  6 and mass  12.00000

 Molecular mass:   102.06808 amu.
 Principal axes and moments of inertia in atomic units:
                           1         2         3
     Eigenvalues --   550.59485 767.78347 916.19929
           X            0.99170   0.12855  -0.00000
           Y           -0.12855   0.99170  -0.00000
           Z            0.00000   0.00000   1.00000
 This molecule is an asymmetric top.
 Rotational symmetry number  1.
 Warning -- assumption of classical behavior for rotation
           may cause significant error
 Rotational temperatures (Kelvin)      0.15731     0.11281     0.09454
 Rotational constants (GHZ):           3.27780     2.35059     1.96981
 Zero-point vibrational energy     378346.6 (Joules/Mol)
                                   90.42701 (Kcal/Mol)
 Warning -- explicit consideration of  13 degrees of freedom as
           vibrations may cause significant error
 Vibrational temperatures:     31.79   241.35   312.32   339.82   350.18
          (Kelvin)            360.60   403.31   459.34   526.79   612.29
                              698.58   788.95   866.27   979.04  1219.80
                             1330.64  1381.23  1422.47  1423.13  1506.52
                             1626.37  1713.04  1716.29  1760.25  1970.30
                             1988.91  1992.07  2023.85  2092.46  2104.66
                             2126.13  2134.35  2152.46  2175.52  2600.82
                             4359.26  4365.95  4387.32  4461.65  4466.75
                             4477.29  4508.52  4515.23  4544.49  5490.82

 Zero-point correction=                           0.144105 (Hartree/Particle)
 Thermal correction to Energy=                    0.153046
 Thermal correction to Enthalpy=                  0.153990
 Thermal correction to Gibbs Free Energy=         0.110612
 Sum of electronic and zero-point Energies=           -346.883049
 Sum of electronic and thermal Energies=              -346.874108
 Sum of electronic and thermal Enthalpies=            -346.873164
 Sum of electronic and thermal Free Energies=         -346.916542

                     E (Thermal)             CV                S
                      KCal/Mol        Cal/Mol-Kelvin    Cal/Mol-Kelvin
 Total                   96.038             31.978             91.296
 Electronic               0.000              0.000              0.000
 Translational            0.889              2.981             39.779
 Rotational               0.889              2.981             27.451
 Vibrational             94.260             26.017             24.066
 Vibration     1          0.593              1.985              6.437
 Vibration     2          0.624              1.882              2.461
 Vibration     3          0.646              1.815              1.983
 Vibration     4          0.655              1.785              1.831
 Vibration     5          0.659              1.774              1.778
 Vibration     6          0.663              1.762              1.726
 Vibration     7          0.680              1.710              1.532
 Vibration     8          0.705              1.637              1.314
 Vibration     9          0.739              1.542              1.096
 Vibration    10          0.787              1.415              0.873
 Vibration    11          0.842              1.282              0.695
 Vibration    12          0.904              1.143              0.548
 Vibration    13          0.960              1.027              0.446

 Optimization completed.
    -- Stationary point found.
 Normal termination of Gaussian 09 at Tue Aug 30 11:18:05 2022.

 -----------------------------------------------------------------
 #P Geom=AllCheck Guess=TCheck SCRF=Check CCSD(T,E4T,FrzG4)/GTBas1
 -----------------------------------------------------------------

 Structure from the checkpoint file:  "G4.Frag_609.chk"
 --------
 Frag_609
 --------
 Charge =  0 Multiplicity = 1

 SCF Done:  E(RHF) =  -344.883019446     A.U. after   12 cycles
 E2 =    -0.1007001819D+01 EUMP2 =    -0.34589002126498D+03
 CCSD(T)
 CCSD(T)= -0.34598045546D+03
 345.9490641\CCSD=-345.9479297\CCSD(T)=-345.9804555\RMSD=6.491e-09\PG=C
 Normal termination of Gaussian 09 at Tue Aug 30 11:22:32 2022.

 ---------------------------------------------------------
 #P Geom=AllCheck Guess=TCheck SCRF=Check MP4=FrzG4/GTBas2
 ---------------------------------------------------------

 Structure from the checkpoint file:  "G4.Frag_609.chk"
 --------
 Frag_609
 --------
 Charge =  0 Multiplicity = 1

 SCF Done:  E(RHF) =  -344.892471587     A.U. after   12 cycles
 E2 =    -0.1021909465D+01 EUMP2 =    -0.34591438105224D+03
 Normal termination of Gaussian 09 at Tue Aug 30 11:23:53 2022.

 ---------------------------------------------------------
 #P Geom=AllCheck Guess=TCheck SCRF=Check MP4=FrzG4/GTBas3
 ---------------------------------------------------------

 Structure from the checkpoint file:  "G4.Frag_609.chk"
 --------
 Frag_609
 --------
 Charge =  0 Multiplicity = 1

 SCF Done:  E(RHF) =  -344.925245787     A.U. after   12 cycles
 E2 =    -0.1246218095D+01 EUMP2 =    -0.34617146388132D+03
 Normal termination of Gaussian 09 at Tue Aug 30 11:35:10 2022.

 -----------------------------------------------------------
 #P Geom=AllCheck Guess=TCheck SCRF=Check MP2=Full/GTLargeXP
 -----------------------------------------------------------

 Structure from the checkpoint file:  "G4.Frag_609.chk"
 --------
 Frag_609
 --------
 Charge =  0 Multiplicity = 1

 SCF Done:  E(RHF) =  -345.012314624     A.U. after   12 cycles
 E2 =    -0.1635546746D+01 EUMP2 =    -0.34664786136999D+03
 Normal termination of Gaussian 09 at Tue Aug 30 11:38:44 2022.
 SCF Done:  E(RHF) =  -345.039644225     A.U. after    9 cycles
 Normal termination of Gaussian 09 at Tue Aug 30 11:42:49 2022.

                         Standard orientation:
 ---------------------------------------------------------------------
 Center     Atomic      Atomic             Coordinates (Angstroms)
 Number     Number       Type             X           Y           Z
 ---------------------------------------------------------------------
      1          6           0        1.952550    0.784334    0.000013
      2          6           0        0.907395   -0.307539    0.000025
      3          8           0        1.191907   -1.483793    0.000039
      4          6           0       -0.579755    0.109370    0.000011
      5          6           0       -1.240740   -0.451187    1.268507
      6          6           0       -1.240662   -0.451290   -1.268527
      7          8           0       -0.616778    1.536388   -0.000023
      8          1           0        2.946002    0.335002    0.000112
      9          1           0        1.821387    1.431213    0.872952
     10          1           0        1.821549    1.430988   -0.873128
     11          1           0       -2.314150   -0.229327    1.265850
     12          1           0       -0.799302    0.000368    2.161744
     13          1           0       -1.107746   -1.534041    1.318888
     14          1           0       -2.314114   -0.229660   -1.265863
     15          1           0       -0.799277    0.000399   -2.161717
     16          1           0       -1.107399   -1.534107   -1.318857
     17          1           0       -1.540714    1.806278   -0.000277
 ---------------------------------------------------------------------

 SCF Done:  E(RHF) =  -345.045480177     A.U. after    7 cycles

 The electronic state is 1-A.
 Alpha  occ. eigenvalues --  -20.56827 -20.54219 -11.32825 -11.30327 -11.22693
 Alpha  occ. eigenvalues --  -11.22692 -11.22602  -1.39376  -1.37452  -1.06434
 Alpha  occ. eigenvalues --   -1.00280  -0.95072  -0.85899  -0.72739  -0.68460
 Alpha  occ. eigenvalues --   -0.67359  -0.62945  -0.60451  -0.59059  -0.58333
 Alpha  occ. eigenvalues --   -0.57433  -0.55479  -0.52359  -0.52294  -0.51611
 Alpha  occ. eigenvalues --   -0.49438  -0.44779  -0.40379
 Alpha virt. eigenvalues --    0.03114   0.03989   0.04177   0.04846   0.06479
 Alpha virt. eigenvalues --    0.06587   0.06709   0.06982   0.07352   0.09443
 Alpha virt. eigenvalues --    0.09509   0.09812   0.10420   0.10669   0.11888

 Mulliken charges:
               1
     1  C   -0.606442
     2  C    0.451841
     3  O   -0.547680
     4  C    0.390310
     5  C   -0.579946
     6  C   -0.579978
     7  O   -0.635770
     8  H    0.214413
     9  H    0.204678
    10  H    0.204652
    11  H    0.161542
    12  H    0.180885
    13  H    0.212688
    14  H    0.161552
    15  H    0.180890
    16  H    0.212704
    17  H    0.373661
 Sum of Mulliken charges =  -0.00000

 Dipole moment (field-independent basis, Debye):
    X=             -2.2056    Y=              1.9868    Z=             -0.0004  Tot=              2.9685
 Quadrupole moment (field-independent basis, Debye-Ang):
   XX=            -40.1661   YY=            -49.3462   ZZ=            -42.6706
   XY=              2.5022   XZ=              0.0005   YZ=             -0.0007

 Normal termination of Gaussian 09 at Tue Aug 30 11:53:56 2022.
