 Gaussian 09, Revision E.01,
 Gaussian 09:  ES64L-G09RevE.01 30-Nov-2015

 -----
 #P G4
 -----

 ---------
 Frag_1042
 ---------
 Symbolic Z-matrix:
 Charge =  0 Multiplicity = 1

 SCF Done:  E(RB3LYP) =  -246.250711937     A.U. after   12 cycles
 SCF Done:  E(RB3LYP) =  -246.256407520     A.U. after   11 cycles
 SCF Done:  E(RB3LYP) =  -246.257240225     A.U. after   10 cycles
 SCF Done:  E(RB3LYP) =  -246.257435966     A.U. after   10 cycles
 SCF Done:  E(RB3LYP) =  -246.257472627     A.U. after   10 cycles
 SCF Done:  E(RB3LYP) =  -246.257488188     A.U. after    9 cycles
 SCF Done:  E(RB3LYP) =  -246.257502642     A.U. after   10 cycles
 SCF Done:  E(RB3LYP) =  -246.257506481     A.U. after    9 cycles
 SCF Done:  E(RB3LYP) =  -246.257506699     A.U. after    7 cycles
 SCF Done:  E(RB3LYP) =  -246.257506775     A.U. after    7 cycles
 Optimization completed.
    -- Stationary point found.
 Normal termination of Gaussian 09 at Thu Aug 25 01:36:18 2022.

 ----------------------------------------------------------
 #P Geom=AllCheck Guess=TCheck SCRF=Check B3LYP/GTBas3 Freq
 ----------------------------------------------------------

 Structure from the checkpoint file:  "G4.Frag_1042.chk"
 ---------
 Frag_1042
 ---------
 Charge =  0 Multiplicity = 1

 SCF Done:  E(RB3LYP) =  -246.257506775     A.U. after    1 cycles

  Exact polarizability:  37.071   0.434  24.925  -0.349  -1.966  25.522
 Approx polarizability:  46.277   1.922  35.102   0.586  -2.497  35.588

                      1                      2                      3
                      A                      A                      A
 Frequencies --     91.9868               182.4438               310.5400
 Red. masses --      3.3004                 1.1324                 1.9596
 Frc consts  --      0.0165                 0.0222                 0.1113
 IR Inten    --      3.8284                38.9895                44.6326

                      4                      5                      6
                      A                      A                      A
 Frequencies --    389.2598               528.5107               942.5347
 Red. masses --      1.6962                 5.9399                 6.3852
 Frc consts  --      0.1514                 0.9775                 3.3421
 IR Inten    --     85.7791                12.6644                 4.6805

                      7                      8                      9
                      A                      A                      A
 Frequencies --    995.9514              1075.5596              1147.7949
 Red. masses --      2.8615                 1.5036                 3.7825
 Frc consts  --      1.6723                 1.0249                 2.9360
 IR Inten    --    112.8727                86.3825               139.1052

                     10                     11                     12
                      A                      A                      A
 Frequencies --   1233.6260              1240.0360              1324.3100
 Red. masses --      1.1586                 1.5245                 1.1323
 Frc consts  --      1.0388                 1.3812                 1.1700
 IR Inten    --      3.1755                41.9762                 3.7031

                     13                     14                     15
                      A                      A                      A
 Frequencies --   1395.7766              1444.8485              1540.2398
 Red. masses --      1.2941                 1.2051                 1.0966
 Frc consts  --      1.4854                 1.4822                 1.5327
 IR Inten    --     19.8536                68.6549                 2.3738

                     16                     17                     18
                      A                      A                      A
 Frequencies --   1656.9025              2974.0337              3040.8309
 Red. masses --      1.0678                 1.0619                 1.1022
 Frc consts  --      1.7271                 5.5338                 6.0046
 IR Inten    --     17.1843                69.0087                63.3436

                     19                     20                     21
                      A                      A                      A
 Frequencies --   3430.4596              3512.7433              3805.6025
 Red. masses --      1.0478                 1.0954                 1.0654
 Frc consts  --      7.2648                 7.9639                 9.0906
 IR Inten    --      1.1973                 0.1386                24.2201

 - Thermochemistry -
 -------------------
 Temperature   298.150 Kelvin.  Pressure   1.00000 Atm.
 Atom     1 has atomic number  7 and mass  14.00307

 Molecular mass:    63.03203 amu.
 Principal axes and moments of inertia in atomic units:
                           1         2         3
     Eigenvalues --    51.83551 418.06688 443.57978
           X            0.99992  -0.00640  -0.01101
           Y            0.00500   0.99241  -0.12284
           Z            0.01171   0.12278   0.99237
 This molecule is an asymmetric top.
 Rotational symmetry number  1.
 Rotational temperatures (Kelvin)      1.67094     0.20718     0.19526
 Rotational constants (GHZ):          34.81670     4.31687     4.06858
 Zero-point vibrational energy     192981.5 (Joules/Mol)
                                   46.12369 (Kcal/Mol)
 Warning -- explicit consideration of   5 degrees of freedom as
           vibrations may cause significant error
 Vibrational temperatures:    132.35   262.50   446.80   560.06   760.41
          (Kelvin)           1356.10  1432.95  1547.49  1651.42  1774.91
                             1784.13  1905.38  2008.21  2078.81  2216.06
                             2383.91  4278.97  4375.07  4935.66  5054.05
                             5475.41

 Zero-point correction=                           0.073503 (Hartree/Particle)
 Thermal correction to Energy=                    0.078796
 Thermal correction to Enthalpy=                  0.079740
 Thermal correction to Gibbs Free Energy=         0.045781
 Sum of electronic and zero-point Energies=           -246.184004
 Sum of electronic and thermal Energies=              -246.178711
 Sum of electronic and thermal Enthalpies=            -246.177767
 Sum of electronic and thermal Free Energies=         -246.211725

                     E (Thermal)             CV                S
                      KCal/Mol        Cal/Mol-Kelvin    Cal/Mol-Kelvin
 Total                   49.445             16.290             71.472
 Electronic               0.000              0.000              0.000
 Translational            0.889              2.981             38.342
 Rotational               0.889              2.981             23.779
 Vibrational             47.668             10.329              9.351
 Vibration     1          0.602              1.955              3.617
 Vibration     2          0.630              1.864              2.303
 Vibration     3          0.699              1.654              1.359
 Vibration     4          0.757              1.493              1.003
 Vibration     5          0.883              1.187              0.591

 Normal termination of Gaussian 09 at Thu Aug 25 01:36:50 2022.

 -----------------------------------------------------------------
 #P Geom=AllCheck Guess=TCheck SCRF=Check CCSD(T,E4T,FrzG4)/GTBas1
 -----------------------------------------------------------------

 Structure from the checkpoint file:  "G4.Frag_1042.chk"
 ---------
 Frag_1042
 ---------
 Charge =  0 Multiplicity = 1

 SCF Done:  E(RHF) =  -244.863362745     A.U. after   12 cycles
 E2 =    -0.6511794784D+00 EUMP2 =    -0.24551454222388D+03
 CCSD(T)
 CCSD(T)= -0.24556181856D+03
 5451394\CCSD=-245.5454101\CCSD(T)=-245.5618186\RMSD=5.670e-09\PG=C01 [
 Normal termination of Gaussian 09 at Thu Aug 25 01:37:18 2022.

 ---------------------------------------------------------
 #P Geom=AllCheck Guess=TCheck SCRF=Check MP4=FrzG4/GTBas2
 ---------------------------------------------------------

 Structure from the checkpoint file:  "G4.Frag_1042.chk"
 ---------
 Frag_1042
 ---------
 Charge =  0 Multiplicity = 1

 SCF Done:  E(RHF) =  -244.873985002     A.U. after   12 cycles
 E2 =    -0.6643953021D+00 EUMP2 =    -0.24553838030416D+03
 Normal termination of Gaussian 09 at Thu Aug 25 01:37:31 2022.

 ---------------------------------------------------------
 #P Geom=AllCheck Guess=TCheck SCRF=Check MP4=FrzG4/GTBas3
 ---------------------------------------------------------

 Structure from the checkpoint file:  "G4.Frag_1042.chk"
 ---------
 Frag_1042
 ---------
 Charge =  0 Multiplicity = 1

 SCF Done:  E(RHF) =  -244.896485319     A.U. after   12 cycles
 E2 =    -0.8088705737D+00 EUMP2 =    -0.24570535589242D+03
 Normal termination of Gaussian 09 at Thu Aug 25 01:44:26 2022.

 -----------------------------------------------------------
 #P Geom=AllCheck Guess=TCheck SCRF=Check MP2=Full/GTLargeXP
 -----------------------------------------------------------

 Structure from the checkpoint file:  "G4.Frag_1042.chk"
 ---------
 Frag_1042
 ---------
 Charge =  0 Multiplicity = 1

 SCF Done:  E(RHF) =  -244.970234848     A.U. after   12 cycles
 E2 =    -0.1049964961D+01 EUMP2 =    -0.24602019980910D+03
 Normal termination of Gaussian 09 at Thu Aug 25 01:45:09 2022.
 SCF Done:  E(RHF) =  -244.990830476     A.U. after    9 cycles
 Normal termination of Gaussian 09 at Thu Aug 25 01:46:29 2022.

                         Standard orientation:
 ---------------------------------------------------------------------
 Center     Atomic      Atomic             Coordinates (Angstroms)
 Number     Number       Type             X           Y           Z
 ---------------------------------------------------------------------
      1          7           0        1.732182    0.151377    0.099511
      2          8           0        0.466512   -0.479264   -0.161340
      3          6           0       -0.553800    0.494159    0.035160
      4          8           0       -1.778050   -0.149580   -0.057893
      5          1           0        2.195167   -0.497664    0.734909
      6          1           0        2.234990    0.067147   -0.784224
      7          1           0       -0.531539    1.249294   -0.761594
      8          1           0       -0.388378    0.988118    1.005837
      9          1           0       -1.820411   -0.800740    0.651400
 ---------------------------------------------------------------------

 SCF Done:  E(RHF) =  -244.995371611     A.U. after    8 cycles

 The electronic state is 1-A.
 Alpha  occ. eigenvalues --  -20.58801 -20.56672 -15.61283 -11.32787  -1.42983
 Alpha  occ. eigenvalues --   -1.36053  -1.09708  -0.89217  -0.72795  -0.69879
 Alpha  occ. eigenvalues --   -0.67707  -0.63287  -0.58786  -0.53691  -0.49337
 Alpha  occ. eigenvalues --   -0.44454  -0.43247
 Alpha virt. eigenvalues --    0.04458   0.05123   0.05853   0.06175   0.09068
 Alpha virt. eigenvalues --    0.09208   0.09386   0.13699   0.13913   0.14831
 Alpha virt. eigenvalues --    0.16341   0.16995   0.18314   0.20172   0.20877

 Mulliken charges:
               1
     1  N   -0.534186
     2  O   -0.304608
     3  C    0.109866
     4  O   -0.544623
     5  H    0.310030
     6  H    0.311707
     7  H    0.151053
     8  H    0.135082
     9  H    0.365680
 Sum of Mulliken charges =  -0.00000

 Dipole moment (field-independent basis, Debye):
    X=              1.7798    Y=             -0.3129    Z=              1.1398  Tot=              2.1365
 Quadrupole moment (field-independent basis, Debye-Ang):
   XX=            -22.5302   YY=            -24.6316   ZZ=            -22.3437
   XY=             -0.9813   XZ=             -3.2303   YZ=             -2.6731

 Normal termination of Gaussian 09 at Thu Aug 25 02:23:08 2022.
