 Gaussian 09, Revision E.01,
 Gaussian 09:  ES64L-G09RevE.01 30-Nov-2015

 -----
 #P G4
 -----

 --------
 Frag_459
 --------
 Symbolic Z-matrix:
 Charge =  0 Multiplicity = 1

 SCF Done:  E(RB3LYP) =  -364.260293354     A.U. after   12 cycles
 SCF Done:  E(RB3LYP) =  -364.267847780     A.U. after   11 cycles
 SCF Done:  E(RB3LYP) =  -364.269344916     A.U. after   11 cycles
 SCF Done:  E(RB3LYP) =  -364.269899540     A.U. after   10 cycles
 SCF Done:  E(RB3LYP) =  -364.270033707     A.U. after   10 cycles
 SCF Done:  E(RB3LYP) =  -364.270102469     A.U. after    9 cycles
 SCF Done:  E(RB3LYP) =  -364.270277728     A.U. after   11 cycles
 SCF Done:  E(RB3LYP) =  -364.270376118     A.U. after   10 cycles
 SCF Done:  E(RB3LYP) =  -364.270575596     A.U. after   10 cycles
 SCF Done:  E(RB3LYP) =  -364.270701696     A.U. after   10 cycles
 SCF Done:  E(RB3LYP) =  -364.278604066     A.U. after    9 cycles
 SCF Done:  E(RB3LYP) =  -364.278608546     A.U. after    7 cycles
 SCF Done:  E(RB3LYP) =  -364.278609212     A.U. after    7 cycles
 Optimization completed.
    -- Stationary point found.
 Normal termination of Gaussian 09 at Fri Aug 26 07:24:45 2022.

 ----------------------------------------------------------
 #P Geom=AllCheck Guess=TCheck SCRF=Check B3LYP/GTBas3 Freq
 ----------------------------------------------------------

 Structure from the checkpoint file:  "G4.Frag_459.chk"
 --------
 Frag_459
 --------
 Charge =  0 Multiplicity = 1

 SCF Done:  E(RB3LYP) =  -364.278609212     A.U. after    1 cycles

  Exact polarizability:  62.055  -1.037  60.558  -0.201  -0.107  55.993
 Approx polarizability:  82.318  -0.990  85.558  -0.446   1.148  82.971

                      1                      2                      3
                      A                      A                      A
 Frequencies --    115.0063               204.6683               229.8952
 Red. masses --      3.1839                 1.0753                 1.4705
 Frc consts  --      0.0248                 0.0265                 0.0458
 IR Inten    --      2.1475                 0.8291                 0.2562

                      4                      5                      6
                      A                      A                      A
 Frequencies --    260.6265               275.7331               295.9094
 Red. masses --      1.6199                 2.8567                 1.1776
 Frc consts  --      0.0648                 0.1280                 0.0608
 IR Inten    --      2.9705                 4.5391                31.6855

                      7                      8                      9
                      A                      A                      A
 Frequencies --    355.6933               360.0307               400.4416
 Red. masses --      3.1581                 2.2874                 2.1624
 Frc consts  --      0.2354                 0.1747                 0.2043
 IR Inten    --     26.6076                 5.8328                12.0507

                     10                     11                     12
                      A                      A                      A
 Frequencies --    437.1666               510.0398               530.1097
 Red. masses --      1.8492                 1.9277                 2.8186
 Frc consts  --      0.2082                 0.2955                 0.4667
 IR Inten    --     25.3990                56.8594                22.5597

                     13                     14                     15
                      A                      A                      A
 Frequencies --    577.0239               616.0550               749.1186
 Red. masses --      1.3280                 2.4908                 2.7692
 Frc consts  --      0.2605                 0.5570                 0.9156
 IR Inten    --     67.7624                16.1640                 5.6490

                     16                     17                     18
                      A                      A                      A
 Frequencies --    867.8490               890.9157               931.4987
 Red. masses --      1.8711                 2.4530                 1.8405
 Frc consts  --      0.8303                 1.1471                 0.9409
 IR Inten    --    122.7382                38.5061                17.6388

                     19                     20                     21
                      A                      A                      A
 Frequencies --    975.6246              1007.9582              1045.1128
 Red. masses --      1.3953                 1.4751                 2.2757
 Frc consts  --      0.7825                 0.8830                 1.4645
 IR Inten    --     34.3947                 3.2859               103.3634

                     22                     23                     24
                      A                      A                      A
 Frequencies --   1079.6531              1121.8595              1155.2620
 Red. masses --      1.7436                 1.6054                 2.5694
 Frc consts  --      1.1974                 1.1905                 2.0204
 IR Inten    --     19.8604                79.2681                26.6405

                     25                     26                     27
                      A                      A                      A
 Frequencies --   1201.3597              1304.1650              1327.6620
 Red. masses --      2.5447                 1.1797                 1.5734
 Frc consts  --      2.1639                 1.1822                 1.6340
 IR Inten    --     23.6691                73.7065                15.2108

                     28                     29                     30
                      A                      A                      A
 Frequencies --   1368.3924              1375.9257              1396.6816
 Red. masses --      1.6942                 1.4042                 1.2876
 Frc consts  --      1.8691                 1.5663                 1.4799
 IR Inten    --     53.3418                11.3431                 3.0143

                     31                     32                     33
                      A                      A                      A
 Frequencies --   1409.0596              1441.6514              1485.8972
 Red. masses --      1.3459                 1.5605                 1.0578
 Frc consts  --      1.5744                 1.9109                 1.3761
 IR Inten    --     18.1037                39.5212                 5.5862

                     34                     35                     36
                      A                      A                      A
 Frequencies --   1488.7766              1496.5087              1501.0859
 Red. masses --      1.0592                 1.0695                 1.0450
 Frc consts  --      1.3832                 1.4112                 1.3874
 IR Inten    --      3.0745                 0.1981                 2.1074

                     37                     38                     39
                      A                      A                      A
 Frequencies --   1650.2611              2972.2295              3042.1439
 Red. masses --      1.1109                 1.0830                 1.0354
 Frc consts  --      1.7825                 5.6368                 5.6459
 IR Inten    --     37.1770                47.4913                 9.3643

                     40                     41                     42
                      A                      A                      A
 Frequencies --   3046.8265              3111.8749              3117.7719
 Red. masses --      1.0358                 1.1015                 1.1002
 Frc consts  --      5.6653                 6.2844                 6.3008
 IR Inten    --     16.5822                25.2814                24.8963

                     43                     44                     45
                      A                      A                      A
 Frequencies --   3126.9438              3128.9815              3483.2885
 Red. masses --      1.1016                 1.1015                 1.0507
 Frc consts  --      6.3460                 6.3541                 7.5109
 IR Inten    --     14.9542                18.9561                 3.9702

                     46                     47                     48
                      A                      A                      A
 Frequencies --   3582.3295              3758.4569              3794.7474
 Red. masses --      1.0906                 1.0645                 1.0651
 Frc consts  --      8.2458                 8.8594                 9.0366
 IR Inten    --      5.5365                42.0687                32.0098

 - Thermochemistry -
 -------------------
 Temperature   298.150 Kelvin.  Pressure   1.00000 Atm.
 Atom     1 has atomic number  6 and mass  12.00000

 Molecular mass:   105.07898 amu.
 Principal axes and moments of inertia in atomic units:
                           1         2         3
     Eigenvalues --   554.21248 771.25000 940.11515
           X            0.99974  -0.02261  -0.00296
           Y            0.02252   0.99940  -0.02636
           Z            0.00356   0.02629   0.99965
 This molecule is an asymmetric top.
 Rotational symmetry number  1.
 Warning -- assumption of classical behavior for rotation
           may cause significant error
 Rotational temperatures (Kelvin)      0.15628     0.11230     0.09213
 Rotational constants (GHZ):           3.25641     2.34002     1.91970
 Zero-point vibrational energy     416338.0 (Joules/Mol)
                                   99.50716 (Kcal/Mol)
 Warning -- explicit consideration of  14 degrees of freedom as
           vibrations may cause significant error
 Vibrational temperatures:    165.47   294.47   330.77   374.98   396.72
          (Kelvin)            425.75   511.76   518.00   576.15   628.98
                              733.83   762.71   830.21   886.36  1077.81
                             1248.64  1281.83  1340.22  1403.70  1450.23
                             1503.68  1553.38  1614.10  1662.16  1728.49
                             1876.40  1910.21  1968.81  1979.65  2009.51
                             2027.32  2074.21  2137.87  2142.01  2153.14
                             2159.73  2374.35  4276.37  4376.96  4383.70
                             4477.29  4485.77  4498.97  4501.90  5011.67
                             5154.17  5407.57  5459.79

 Zero-point correction=                           0.158575 (Hartree/Particle)
 Thermal correction to Energy=                    0.167098
 Thermal correction to Enthalpy=                  0.168043
 Thermal correction to Gibbs Free Energy=         0.126838
 Sum of electronic and zero-point Energies=           -364.120034
 Sum of electronic and thermal Energies=              -364.111511
 Sum of electronic and thermal Enthalpies=            -364.110567
 Sum of electronic and thermal Free Energies=         -364.151771

                     E (Thermal)             CV                S
                      KCal/Mol        Cal/Mol-Kelvin    Cal/Mol-Kelvin
 Total                  104.856             32.663             86.721
 Electronic               0.000              0.000              0.000
 Translational            0.889              2.981             39.866
 Rotational               0.889              2.981             27.488
 Vibrational            103.078             26.701             19.368
 Vibration     1          0.608              1.937              3.183
 Vibration     2          0.640              1.833              2.091
 Vibration     3          0.652              1.795              1.880
 Vibration     4          0.669              1.745              1.658
 Vibration     5          0.677              1.718              1.560
 Vibration     6          0.690              1.681              1.440
 Vibration     7          0.731              1.564              1.141
 Vibration     8          0.735              1.555              1.122
 Vibration     9          0.766              1.469              0.961
 Vibration    10          0.797              1.389              0.836
 Vibration    11          0.865              1.228              0.633
 Vibration    12          0.885              1.183              0.587
 Vibration    13          0.933              1.081              0.491
 Vibration    14          0.976              0.998              0.423

 Optimization completed.
    -- Stationary point found.
 Normal termination of Gaussian 09 at Fri Aug 26 07:25:41 2022.

 -----------------------------------------------------------------
 #P Geom=AllCheck Guess=TCheck SCRF=Check CCSD(T,E4T,FrzG4)/GTBas1
 -----------------------------------------------------------------

 Structure from the checkpoint file:  "G4.Frag_459.chk"
 --------
 Frag_459
 --------
 Charge =  0 Multiplicity = 1

 SCF Done:  E(RHF) =  -362.036239024     A.U. after   11 cycles
 E2 =    -0.1054678308D+01 EUMP2 =    -0.36309091733114D+03
 CCSD(T)
 CCSD(T)= -0.36318207360D+03
 6\CCSD(T)=-363.1820736\RMSD=7.816e-09\PG=C01 [X(C4H11N1O2)]\\@
 Normal termination of Gaussian 09 at Fri Aug 26 07:30:25 2022.

 ---------------------------------------------------------
 #P Geom=AllCheck Guess=TCheck SCRF=Check MP4=FrzG4/GTBas2
 ---------------------------------------------------------

 Structure from the checkpoint file:  "G4.Frag_459.chk"
 --------
 Frag_459
 --------
 Charge =  0 Multiplicity = 1

 SCF Done:  E(RHF) =  -362.048420402     A.U. after   12 cycles
 E2 =    -0.1073354188D+01 EUMP2 =    -0.36312177458995D+03
 Normal termination of Gaussian 09 at Fri Aug 26 07:31:54 2022.

 ---------------------------------------------------------
 #P Geom=AllCheck Guess=TCheck SCRF=Check MP4=FrzG4/GTBas3
 ---------------------------------------------------------

 Structure from the checkpoint file:  "G4.Frag_459.chk"
 --------
 Frag_459
 --------
 Charge =  0 Multiplicity = 1

 SCF Done:  E(RHF) =  -362.088200177     A.U. after   10 cycles
 E2 =    -0.1311064887D+01 EUMP2 =    -0.36339926506479D+03
 Normal termination of Gaussian 09 at Fri Aug 26 07:44:43 2022.

 -----------------------------------------------------------
 #P Geom=AllCheck Guess=TCheck SCRF=Check MP2=Full/GTLargeXP
 -----------------------------------------------------------

 Structure from the checkpoint file:  "G4.Frag_459.chk"
 --------
 Frag_459
 --------
 Charge =  0 Multiplicity = 1

 SCF Done:  E(RHF) =  -362.184299043     A.U. after   11 cycles
 E2 =    -0.1711215820D+01 EUMP2 =    -0.36389551486279D+03
 Normal termination of Gaussian 09 at Fri Aug 26 07:48:56 2022.
 SCF Done:  E(RHF) =  -362.213117985     A.U. after    8 cycles
 Normal termination of Gaussian 09 at Fri Aug 26 07:52:40 2022.

                         Standard orientation:
 ---------------------------------------------------------------------
 Center     Atomic      Atomic             Coordinates (Angstroms)
 Number     Number       Type             X           Y           Z
 ---------------------------------------------------------------------
      1          6           0       -1.711462    1.131585    0.044447
      2          6           0       -0.850405   -0.008575   -0.477580
      3          8           0       -1.435949   -1.224675   -0.030758
      4          6           0        0.626895    0.020270   -0.001200
      5          6           0        1.387854    1.259995   -0.468971
      6          7           0        0.771612   -0.147577    1.438640
      7          8           0        1.181531   -1.152154   -0.618168
      8          1           0       -2.751775    0.961027   -0.243729
      9          1           0       -1.394968    2.093235   -0.367896
     10          1           0       -1.668836    1.184658    1.136942
     11          1           0       -0.835166    0.020070   -1.579085
     12          1           0       -0.813662   -1.911828   -0.305771
     13          1           0        0.972745    2.178764   -0.043493
     14          1           0        1.350578    1.332757   -1.558603
     15          1           0        2.436066    1.184451   -0.164864
     16          1           0        0.722925    0.742748    1.921608
     17          1           0        0.005585   -0.727475    1.775061
     18          1           0        1.893272   -1.430382   -0.029435
 ---------------------------------------------------------------------

 SCF Done:  E(RHF) =  -362.219542289     A.U. after    8 cycles

 The electronic state is 1-A.
 Alpha  occ. eigenvalues --  -20.55698 -20.54908 -15.54929 -11.31792 -11.27909
 Alpha  occ. eigenvalues --  -11.22378 -11.21823  -1.38664  -1.34804  -1.18193
 Alpha  occ. eigenvalues --   -1.03409  -0.98097  -0.87798  -0.77441  -0.71709
 Alpha  occ. eigenvalues --   -0.68345  -0.67166  -0.65138  -0.61120  -0.57322
 Alpha  occ. eigenvalues --   -0.55296  -0.54747  -0.53718  -0.52958  -0.52283
 Alpha  occ. eigenvalues --   -0.48966  -0.46147  -0.45356  -0.40276
 Alpha virt. eigenvalues --    0.03108   0.04256   0.04753   0.04812   0.06435
 Alpha virt. eigenvalues --    0.06740   0.07117   0.07318   0.07580   0.09420
 Alpha virt. eigenvalues --    0.09831   0.10507   0.10906   0.11999   0.13022

 Mulliken charges:
               1
     1  C   -0.546759
     2  C    0.113503
     3  O   -0.624596
     4  C    0.446864
     5  C   -0.583265
     6  N   -0.774127
     7  O   -0.651689
     8  H    0.190262
     9  H    0.172263
    10  H    0.154315
    11  H    0.158012
    12  H    0.399563
    13  H    0.171447
    14  H    0.183577
    15  H    0.183937
    16  H    0.296879
    17  H    0.317175
    18  H    0.392640
 Sum of Mulliken charges =  -0.00000

 Dipole moment (field-independent basis, Debye):
    X=              0.8342    Y=              1.7612    Z=              0.5134  Tot=              2.0153
 Quadrupole moment (field-independent basis, Debye-Ang):
   XX=            -47.4028   YY=            -42.4630   ZZ=            -44.4860
   XY=             -1.8605   XZ=              0.4400   YZ=             -0.0370

 Normal termination of Gaussian 09 at Fri Aug 26 08:06:12 2022.
