 Gaussian 09, Revision E.01,
 Gaussian 09:  ES64L-G09RevE.01 30-Nov-2015

 -----
 #P G4
 -----

 ---------
 Frag_1094
 ---------
 Symbolic Z-matrix:
 Charge =  0 Multiplicity = 1

 SCF Done:  E(RB3LYP) =  -265.662771462     A.U. after   12 cycles
 SCF Done:  E(RB3LYP) =  -265.668527472     A.U. after   11 cycles
 SCF Done:  E(RB3LYP) =  -265.669902573     A.U. after   11 cycles
 SCF Done:  E(RB3LYP) =  -265.670614229     A.U. after   11 cycles
 SCF Done:  E(RB3LYP) =  -265.670864947     A.U. after   11 cycles
 SCF Done:  E(RB3LYP) =  -265.670923480     A.U. after   10 cycles
 SCF Done:  E(RB3LYP) =  -265.670935822     A.U. after    9 cycles
 SCF Done:  E(RB3LYP) =  -265.670937515     A.U. after    8 cycles
 SCF Done:  E(RB3LYP) =  -265.670937753     A.U. after    7 cycles
 Optimization completed.
    -- Stationary point found.
 Normal termination of Gaussian 09 at Fri Aug 26 09:20:53 2022.

 ----------------------------------------------------------
 #P Geom=AllCheck Guess=TCheck SCRF=Check B3LYP/GTBas3 Freq
 ----------------------------------------------------------

 Structure from the checkpoint file:  "G4.Frag_1094.chk"
 ---------
 Frag_1094
 ---------
 Charge =  0 Multiplicity = 1

 SCF Done:  E(RB3LYP) =  -265.670937753     A.U. after    1 cycles

  Exact polarizability:  48.894  -0.065  41.048  -1.372  -1.189  40.431
 Approx polarizability:  64.086   2.644  56.794  -2.218  -1.605  60.389

                      1                      2                      3
                      A                      A                      A
 Frequencies --    112.3150               229.7499               283.3917
 Red. masses --      2.3744                 1.1086                 1.0884
 Frc consts  --      0.0176                 0.0345                 0.0515
 IR Inten    --      6.7437                 0.4051                 5.7686

                      4                      5                      6
                      A                      A                      A
 Frequencies --    299.9561               343.8778               435.6348
 Red. masses --      2.0643                 1.1284                 2.6285
 Frc consts  --      0.1094                 0.0786                 0.2939
 IR Inten    --      6.6554                83.4612                 6.6429

                      7                      8                      9
                      A                      A                      A
 Frequencies --    503.5508               525.1342               628.0753
 Red. masses --      3.2214                 2.3781                 2.1721
 Frc consts  --      0.4813                 0.3864                 0.5048
 IR Inten    --     25.0434                 4.5012                77.2437

                     10                     11                     12
                      A                      A                      A
 Frequencies --    798.2358               943.6164              1059.1525
 Red. masses --      4.5236                 2.0910                 4.2841
 Frc consts  --      1.6982                 1.0970                 2.8315
 IR Inten    --     18.5031                26.5984                14.6760

                     13                     14                     15
                      A                      A                      A
 Frequencies --   1110.3798              1131.9025              1148.3039
 Red. masses --      1.9927                 1.4025                 1.8053
 Frc consts  --      1.4475                 1.0587                 1.4025
 IR Inten    --      6.3854                 3.9437                 5.9328

                     16                     17                     18
                      A                      A                      A
 Frequencies --   1187.3003              1238.3718              1404.1361
 Red. masses --      1.7587                 2.3385                 1.1761
 Frc consts  --      1.4607                 2.1129                 1.3662
 IR Inten    --     11.0826                14.1614                26.3303

                     19                     20                     21
                      A                      A                      A
 Frequencies --   1432.6063              1452.8308              1477.3940
 Red. masses --      1.1764                 1.1497                 1.0729
 Frc consts  --      1.4225                 1.4298                 1.3798
 IR Inten    --      0.4492                 3.0417                 1.2966

                     22                     23                     24
                      A                      A                      A
 Frequencies --   1484.3752              1493.0045              1505.6886
 Red. masses --      1.1010                 1.0566                 1.0746
 Frc consts  --      1.4293                 1.3877                 1.4354
 IR Inten    --      3.8726                19.0902                 6.1167

                     25                     26                     27
                      A                      A                      A
 Frequencies --   1519.9020              2961.1023              2981.9800
 Red. masses --      1.0560                 1.0543                 1.0518
 Frc consts  --      1.4374                 5.4467                 5.5108
 IR Inten    --      5.7660                26.9538                81.9550

                     28                     29                     30
                      A                      A                      A
 Frequencies --   3062.4993              3083.0682              3108.6778
 Red. masses --      1.0844                 1.0782                 1.0993
 Frc consts  --      5.9922                 6.0381                 6.2592
 IR Inten    --     25.7124                28.7192                20.8848

                     31                     32                     33
                      A                      A                      A
 Frequencies --   3137.5395              3568.7546              3628.7011
 Red. masses --      1.1018                 1.0758                 1.0671
 Frc consts  --      6.3905                 8.0730                 8.2789
 IR Inten    --     15.1766                 2.8853                 2.1642

 - Thermochemistry -
 -------------------
 Temperature   298.150 Kelvin.  Pressure   1.00000 Atm.
 Atom     1 has atomic number  6 and mass  12.00000

 Molecular mass:    76.06366 amu.
 Principal axes and moments of inertia in atomic units:
                           1         2         3
     Eigenvalues --   241.54522 435.12728 541.71052
           X            0.99887  -0.04740   0.00398
           Y            0.04742   0.99886  -0.00488
           Z           -0.00375   0.00507   0.99998
 This molecule is an asymmetric top.
 Rotational symmetry number  1.
 Rotational temperatures (Kelvin)      0.35858     0.19905     0.15989
 Rotational constants (GHZ):           7.47165     4.14762     3.33156
 Zero-point vibrational energy     294767.1 (Joules/Mol)
                                   70.45102 (Kcal/Mol)
 Warning -- explicit consideration of   8 degrees of freedom as
           vibrations may cause significant error
 Vibrational temperatures:    161.60   330.56   407.74   431.57   494.76
          (Kelvin)            626.78   724.50   755.55   903.66  1148.48
                             1357.65  1523.88  1597.59  1628.55  1652.15
                             1708.26  1781.74  2020.24  2061.20  2090.30
                             2125.64  2135.68  2148.10  2166.35  2186.80
                             4260.36  4290.40  4406.25  4435.84  4472.69
                             4514.21  5134.64  5220.89

 Zero-point correction=                           0.112271 (Hartree/Particle)
 Thermal correction to Energy=                    0.118706
 Thermal correction to Enthalpy=                  0.119651
 Thermal correction to Gibbs Free Energy=         0.083100
 Sum of electronic and zero-point Energies=           -265.558667
 Sum of electronic and thermal Energies=              -265.552231
 Sum of electronic and thermal Enthalpies=            -265.551287
 Sum of electronic and thermal Free Energies=         -265.587837

                     E (Thermal)             CV                S
                      KCal/Mol        Cal/Mol-Kelvin    Cal/Mol-Kelvin
 Total                   74.489             22.707             76.926
 Electronic               0.000              0.000              0.000
 Translational            0.889              2.981             38.903
 Rotational               0.889              2.981             25.546
 Vibrational             72.712             16.745             12.477
 Vibration     1          0.607              1.939              3.229
 Vibration     2          0.652              1.796              1.881
 Vibration     3          0.682              1.704              1.513
 Vibration     4          0.692              1.674              1.417
 Vibration     5          0.723              1.588              1.194
 Vibration     6          0.796              1.393              0.840
 Vibration     7          0.859              1.242              0.649
 Vibration     8          0.880              1.194              0.598

 Normal termination of Gaussian 09 at Fri Aug 26 09:21:16 2022.

 -----------------------------------------------------------------
 #P Geom=AllCheck Guess=TCheck SCRF=Check CCSD(T,E4T,FrzG4)/GTBas1
 -----------------------------------------------------------------

 Structure from the checkpoint file:  "G4.Frag_1094.chk"
 ---------
 Frag_1094
 ---------
 Charge =  0 Multiplicity = 1

 SCF Done:  E(RHF) =  -264.025280987     A.U. after   12 cycles
 E2 =    -0.7728349022D+00 EUMP2 =    -0.26479811588898D+03
 CCSD(T)
 CCSD(T)= -0.26486836316D+03
 \MP4SDTQ=-264.8675486\MP4SDQ=-264.8446917\CCSD=-264.8454991\CCSD(T)=-2
 Normal termination of Gaussian 09 at Fri Aug 26 09:22:23 2022.

 ---------------------------------------------------------
 #P Geom=AllCheck Guess=TCheck SCRF=Check MP4=FrzG4/GTBas2
 ---------------------------------------------------------

 Structure from the checkpoint file:  "G4.Frag_1094.chk"
 ---------
 Frag_1094
 ---------
 Charge =  0 Multiplicity = 1

 SCF Done:  E(RHF) =  -264.033951121     A.U. after   12 cycles
 E2 =    -0.7853756087D+00 EUMP2 =    -0.26481932672949D+03
 Normal termination of Gaussian 09 at Fri Aug 26 09:22:41 2022.

 ---------------------------------------------------------
 #P Geom=AllCheck Guess=TCheck SCRF=Check MP4=FrzG4/GTBas3
 ---------------------------------------------------------

 Structure from the checkpoint file:  "G4.Frag_1094.chk"
 ---------
 Frag_1094
 ---------
 Charge =  0 Multiplicity = 1

 SCF Done:  E(RHF) =  -264.062758108     A.U. after   11 cycles
 E2 =    -0.9554978964D+00 EUMP2 =    -0.26501825600421D+03
 Normal termination of Gaussian 09 at Fri Aug 26 09:24:25 2022.

 -----------------------------------------------------------
 #P Geom=AllCheck Guess=TCheck SCRF=Check MP2=Full/GTLargeXP
 -----------------------------------------------------------

 Structure from the checkpoint file:  "G4.Frag_1094.chk"
 ---------
 Frag_1094
 ---------
 Charge =  0 Multiplicity = 1

 SCF Done:  E(RHF) =  -264.133361544     A.U. after   11 cycles
 E2 =    -0.1243940684D+01 EUMP2 =    -0.26537730222751D+03
 Normal termination of Gaussian 09 at Fri Aug 26 09:25:21 2022.
 SCF Done:  E(RHF) =  -264.154744693     A.U. after    9 cycles
 Normal termination of Gaussian 09 at Fri Aug 26 09:26:34 2022.

                         Standard orientation:
 ---------------------------------------------------------------------
 Center     Atomic      Atomic             Coordinates (Angstroms)
 Number     Number       Type             X           Y           Z
 ---------------------------------------------------------------------
      1          6           0        1.732021    0.067556    0.410822
      2          7           0        0.783835   -0.447089   -0.572603
      3          7           0       -0.570040   -0.077293   -0.490329
      4          6           0       -0.844389    1.246235    0.059756
      5          8           0       -1.279568   -1.028782    0.293670
      6          1           0        1.843944    1.162738    0.434063
      7          1           0        1.454833   -0.267128    1.416643
      8          1           0        2.708724   -0.370382    0.186933
      9          1           0        1.089629   -0.293169   -1.523805
     10          1           0       -0.536268    1.361617    1.112989
     11          1           0       -1.919632    1.419254   -0.006381
     12          1           0       -0.324467    1.997130   -0.542611
     13          1           0       -0.902580   -0.991884    1.189865
 ---------------------------------------------------------------------

 SCF Done:  E(RHF) =  -264.159442427     A.U. after    8 cycles

 The electronic state is 1-A.
 Alpha  occ. eigenvalues --  -20.57740 -15.63347 -15.57581 -11.25791 -11.25416
 Alpha  occ. eigenvalues --   -1.41402  -1.23708  -1.06367  -0.94786  -0.84342
 Alpha  occ. eigenvalues --   -0.72341  -0.66777  -0.65892  -0.60630  -0.60218
 Alpha  occ. eigenvalues --   -0.56385  -0.55082  -0.52555  -0.47735  -0.39390
 Alpha  occ. eigenvalues --   -0.39253
 Alpha virt. eigenvalues --    0.03787   0.04203   0.04645   0.05719   0.06876
 Alpha virt. eigenvalues --    0.07243   0.07400   0.09427   0.10816   0.11928
 Alpha virt. eigenvalues --    0.12978   0.14667   0.15040   0.15517   0.16671

 Mulliken charges:
               1
     1  C   -0.436879
     2  N   -0.373252
     3  N    0.095776
     4  C   -0.463334
     5  O   -0.500323
     6  H    0.151632
     7  H    0.153078
     8  H    0.188161
     9  H    0.316163
    10  H    0.146431
    11  H    0.205296
    12  H    0.175519
    13  H    0.341733
 Sum of Mulliken charges =  -0.00000

 Dipole moment (field-independent basis, Debye):
    X=              2.1370    Y=              2.4078    Z=              1.3064  Tot=              3.4743
 Quadrupole moment (field-independent basis, Debye-Ang):
   XX=            -32.4614   YY=            -34.0540   ZZ=            -28.9028
   XY=             -2.1589   XZ=             -2.1736   YZ=             -1.9387

 Normal termination of Gaussian 09 at Fri Aug 26 09:31:11 2022.
