 Gaussian 09, Revision E.01,
 Gaussian 09:  ES64L-G09RevE.01 30-Nov-2015

 -----
 #P G4
 -----

 --------
 Frag_754
 --------
 Symbolic Z-matrix:
 Charge =  0 Multiplicity = 1

 SCF Done:  E(RB3LYP) =  -307.670086277     A.U. after   13 cycles
 SCF Done:  E(RB3LYP) =  -307.683083889     A.U. after   11 cycles
 SCF Done:  E(RB3LYP) =  -307.683438156     A.U. after   10 cycles
 SCF Done:  E(RB3LYP) =  -307.683595710     A.U. after   10 cycles
 SCF Done:  E(RB3LYP) =  -307.684097563     A.U. after   12 cycles
 SCF Done:  E(RB3LYP) =  -307.684496157     A.U. after   11 cycles
 SCF Done:  E(RB3LYP) =  -307.685499502     A.U. after   12 cycles
 SCF Done:  E(RB3LYP) =  -307.685687609     A.U. after   11 cycles
 SCF Done:  E(RB3LYP) =  -307.685829737     A.U. after   11 cycles
 SCF Done:  E(RB3LYP) =  -307.686045666     A.U. after    9 cycles
 SCF Done:  E(RB3LYP) =  -307.687568812     A.U. after    7 cycles
 SCF Done:  E(RB3LYP) =  -307.687569623     A.U. after    8 cycles
 SCF Done:  E(RB3LYP) =  -307.687569932     A.U. after    7 cycles
 Optimization completed.
    -- Stationary point found.
 Normal termination of Gaussian 09 at Tue Aug 30 11:37:49 2022.

 ----------------------------------------------------------
 #P Geom=AllCheck Guess=TCheck SCRF=Check B3LYP/GTBas3 Freq
 ----------------------------------------------------------

 Structure from the checkpoint file:  "G4.Frag_754.chk"
 --------
 Frag_754
 --------
 Charge =  0 Multiplicity = 1

 SCF Done:  E(RB3LYP) =  -307.687569932     A.U. after    1 cycles

  Exact polarizability:  71.681   0.029  52.302  -1.155   0.769  36.489
 Approx polarizability: 102.815  -8.500  73.883  -1.541   0.377  54.202

                      1                      2                      3
                      A                      A                      A
 Frequencies --    107.2603               159.4967               166.9667
 Red. masses --      1.2330                 1.0834                 1.7255
 Frc consts  --      0.0084                 0.0162                 0.0283
 IR Inten    --      5.2465                 2.8484                 0.1236

                      4                      5                      6
                      A                      A                      A
 Frequencies --    266.1613               274.3008               319.9355
 Red. masses --      1.6352                 1.4562                 1.2559
 Frc consts  --      0.0682                 0.0646                 0.0757
 IR Inten    --     52.8068                82.5728                69.6090

                      7                      8                      9
                      A                      A                      A
 Frequencies --    366.2947               381.0490               453.0846
 Red. masses --      4.6022                 2.6865                 3.0410
 Frc consts  --      0.3638                 0.2298                 0.3678
 IR Inten    --      3.9516                13.3055                 7.8254

                     10                     11                     12
                      A                      A                      A
 Frequencies --    546.9658               550.4892               723.4761
 Red. masses --      4.6187                 3.4256                 4.3069
 Frc consts  --      0.8141                 0.6116                 1.3282
 IR Inten    --      5.7486                 1.0524                 0.9208

                     13                     14                     15
                      A                      A                      A
 Frequencies --    942.4703              1006.1631              1037.9025
 Red. masses --      2.2110                 1.5156                 1.4566
 Frc consts  --      1.1571                 0.9040                 0.9245
 IR Inten    --     15.7978                 7.1790                 2.5713

                     16                     17                     18
                      A                      A                      A
 Frequencies --   1073.2024              1086.4409              1195.7209
 Red. masses --      1.4436                 1.7295                 2.5310
 Frc consts  --      0.9796                 1.2028                 2.1321
 IR Inten    --      1.8445                 9.5747               398.5698

                     19                     20                     21
                      A                      A                      A
 Frequencies --   1239.4529              1315.1290              1351.2103
 Red. masses --      2.4755                 1.6145                 1.7066
 Frc consts  --      2.2407                 1.6452                 1.8358
 IR Inten    --      0.1469                25.1996                 9.1832

                     22                     23                     24
                      A                      A                      A
 Frequencies --   1406.4009              1430.1687              1470.5158
 Red. masses --      1.3249                 1.4981                 1.0570
 Frc consts  --      1.5440                 1.8054                 1.3466
 IR Inten    --      4.9411                 5.0928                 3.9934

                     25                     26                     27
                      A                      A                      A
 Frequencies --   1479.8074              1484.8631              1495.1205
 Red. masses --      1.0473                 1.0579                 1.0555
 Frc consts  --      1.3512                 1.3743                 1.3901
 IR Inten    --      7.3319                 0.5904                 7.2994

                     28                     29                     30
                      A                      A                      A
 Frequencies --   1784.8045              3000.2572              3031.8026
 Red. masses --      6.8752                 1.0443                 1.0402
 Frc consts  --     12.9039                 5.5386                 5.6333
 IR Inten    --     22.9249                45.8037                32.1177

                     31                     32                     33
                      A                      A                      A
 Frequencies --   3051.0183              3078.7962              3093.2446
 Red. masses --      1.0921                 1.0992                 1.0978
 Frc consts  --      5.9894                 6.1387                 6.1886
 IR Inten    --     25.2766                18.5678                31.1935

                     34                     35                     36
                      A                      A                      A
 Frequencies --   3164.5442              3779.3693              3831.0800
 Red. masses --      1.0965                 1.0660                 1.0648
 Frc consts  --      6.4694                 8.9713                 9.2081
 IR Inten    --      5.5813                14.6194                14.3286

 - Thermochemistry -
 -------------------
 Temperature   298.150 Kelvin.  Pressure   1.00000 Atm.
 Atom     1 has atomic number  6 and mass  12.00000

 Molecular mass:    88.05243 amu.
 Principal axes and moments of inertia in atomic units:
                           1         2         3
     Eigenvalues --   370.60511 570.73835 915.46491
           X            0.98844   0.15153  -0.00567
           Y           -0.15146   0.98841   0.01036
           Z            0.00718  -0.00938   0.99993
 This molecule is an asymmetric top.
 Rotational symmetry number  1.
 Rotational temperatures (Kelvin)      0.23371     0.15176     0.09461
 Rotational constants (GHZ):           4.86971     3.16212     1.97139
 Zero-point vibrational energy     305914.8 (Joules/Mol)
                                   73.11540 (Kcal/Mol)
 Warning -- explicit consideration of  11 degrees of freedom as
           vibrations may cause significant error
 Vibrational temperatures:    154.32   229.48   240.23   382.95   394.66
          (Kelvin)            460.32   527.02   548.24   651.89   786.96
                              792.03  1040.92  1356.00  1447.64  1493.31
                             1544.10  1563.14  1720.37  1783.29  1892.17
                             1944.09  2023.49  2057.69  2115.74  2129.11
                             2136.38  2151.14  2567.93  4316.70  4362.08
                             4389.73  4429.70  4450.48  4553.07  5437.66
                             5512.06

 Zero-point correction=                           0.116517 (Hartree/Particle)
 Thermal correction to Energy=                    0.124298
 Thermal correction to Enthalpy=                  0.125242
 Thermal correction to Gibbs Free Energy=         0.085392
 Sum of electronic and zero-point Energies=           -307.571053
 Sum of electronic and thermal Energies=              -307.563272
 Sum of electronic and thermal Enthalpies=            -307.562328
 Sum of electronic and thermal Free Energies=         -307.602178

                     E (Thermal)             CV                S
                      KCal/Mol        Cal/Mol-Kelvin    Cal/Mol-Kelvin
 Total                   77.998             27.195             83.872
 Electronic               0.000              0.000              0.000
 Translational            0.889              2.981             39.339
 Rotational               0.889              2.981             26.762
 Vibrational             76.220             21.233             17.771
 Vibration     1          0.606              1.943              3.318
 Vibration     2          0.621              1.892              2.556
 Vibration     3          0.624              1.883              2.469
 Vibration     4          0.672              1.735              1.621
 Vibration     5          0.677              1.721              1.569
 Vibration     6          0.706              1.635              1.310
 Vibration     7          0.739              1.542              1.095
 Vibration     8          0.751              1.511              1.035
 Vibration     9          0.812              1.354              0.787
 Vibration    10          0.902              1.146              0.550
 Vibration    11          0.906              1.139              0.543

 Optimization completed.
    -- Stationary point found.
 Normal termination of Gaussian 09 at Tue Aug 30 11:38:19 2022.

 -----------------------------------------------------------------
 #P Geom=AllCheck Guess=TCheck SCRF=Check CCSD(T,E4T,FrzG4)/GTBas1
 -----------------------------------------------------------------

 Structure from the checkpoint file:  "G4.Frag_754.chk"
 --------
 Frag_754
 --------
 Charge =  0 Multiplicity = 1

 SCF Done:  E(RHF) =  -305.812110590     A.U. after   12 cycles
 E2 =    -0.8751044191D+00 EUMP2 =    -0.30668721500864D+03
 CCSD(T)
 CCSD(T)= -0.30676284765D+03
 Q=-306.7354392\CCSD=-306.7355018\CCSD(T)=-306.7628477\RMSD=8.126e-09\P
 Normal termination of Gaussian 09 at Tue Aug 30 11:40:15 2022.

 ---------------------------------------------------------
 #P Geom=AllCheck Guess=TCheck SCRF=Check MP4=FrzG4/GTBas2
 ---------------------------------------------------------

 Structure from the checkpoint file:  "G4.Frag_754.chk"
 --------
 Frag_754
 --------
 Charge =  0 Multiplicity = 1

 SCF Done:  E(RHF) =  -305.821595540     A.U. after   12 cycles
 E2 =    -0.8885603749D+00 EUMP2 =    -0.30671015591494D+03
 Normal termination of Gaussian 09 at Tue Aug 30 11:40:50 2022.

 ---------------------------------------------------------
 #P Geom=AllCheck Guess=TCheck SCRF=Check MP4=FrzG4/GTBas3
 ---------------------------------------------------------

 Structure from the checkpoint file:  "G4.Frag_754.chk"
 --------
 Frag_754
 --------
 Charge =  0 Multiplicity = 1

 SCF Done:  E(RHF) =  -305.856074481     A.U. after   11 cycles
 E2 =    -0.1082391793D+01 EUMP2 =    -0.30693846627422D+03
 Normal termination of Gaussian 09 at Tue Aug 30 11:44:15 2022.

 -----------------------------------------------------------
 #P Geom=AllCheck Guess=TCheck SCRF=Check MP2=Full/GTLargeXP
 -----------------------------------------------------------

 Structure from the checkpoint file:  "G4.Frag_754.chk"
 --------
 Frag_754
 --------
 Charge =  0 Multiplicity = 1

 SCF Done:  E(RHF) =  -305.936662917     A.U. after   12 cycles
 E2 =    -0.1421137636D+01 EUMP2 =    -0.30735780055286D+03
 Normal termination of Gaussian 09 at Tue Aug 30 11:46:13 2022.
 SCF Done:  E(RHF) =  -305.962008690     A.U. after    8 cycles
 Normal termination of Gaussian 09 at Tue Aug 30 11:48:05 2022.

                         Standard orientation:
 ---------------------------------------------------------------------
 Center     Atomic      Atomic             Coordinates (Angstroms)
 Number     Number       Type             X           Y           Z
 ---------------------------------------------------------------------
      1          6           0       -1.764037   -0.868500   -0.030072
      2          6           0       -0.670417    0.150773   -0.012664
      3          8           0       -1.179938    1.427942    0.013450
      4          6           0        0.638536   -0.137175   -0.002338
      5          6           0        1.772072    0.845552   -0.017519
      6          8           0        1.024608   -1.467987    0.109363
      7          1           0       -2.461710   -0.652888   -0.847388
      8          1           0       -2.341565   -0.835422    0.901310
      9          1           0       -1.352914   -1.869076   -0.154993
     10          1           0       -0.462270    2.060548    0.113180
     11          1           0        2.342430    0.818263    0.919127
     12          1           0        2.476806    0.609251   -0.828334
     13          1           0        1.451336    1.878013   -0.187118
     14          1           0        1.733595   -1.632224   -0.522725
 ---------------------------------------------------------------------

 SCF Done:  E(RHF) =  -305.967395167     A.U. after    8 cycles

 The electronic state is 1-A.
 Alpha  occ. eigenvalues --  -20.57631 -20.57062 -11.28235 -11.27250 -11.23987
 Alpha  occ. eigenvalues --  -11.21311  -1.39423  -1.37778  -1.05094  -0.99913
 Alpha  occ. eigenvalues --   -0.89470  -0.77865  -0.71519  -0.67164  -0.62615
 Alpha  occ. eigenvalues --   -0.59530  -0.57453  -0.56651  -0.54955  -0.54129
 Alpha  occ. eigenvalues --   -0.52694  -0.52467  -0.48315  -0.31212
 Alpha virt. eigenvalues --    0.03278   0.04426   0.04891   0.05615   0.06199
 Alpha virt. eigenvalues --    0.07057   0.07300   0.08358   0.08982   0.09380
 Alpha virt. eigenvalues --    0.09961   0.10695   0.13140   0.14047   0.14727

 Mulliken charges:
               1
     1  C   -0.510406
     2  C    0.226563
     3  O   -0.568640
     4  C    0.143372
     5  C   -0.523257
     6  O   -0.572682
     7  H    0.182367
     8  H    0.175084
     9  H    0.199950
    10  H    0.374131
    11  H    0.191786
    12  H    0.160850
    13  H    0.154581
    14  H    0.366300
 Sum of Mulliken charges =  -0.00000

 Dipole moment (field-independent basis, Debye):
    X=              2.1546    Y=              0.7710    Z=             -0.8882  Tot=              2.4547
 Quadrupole moment (field-independent basis, Debye-Ang):
   XX=            -35.0152   YY=            -36.0607   ZZ=            -37.8416
   XY=              2.6387   XZ=             -2.1101   YZ=              2.4645

 Normal termination of Gaussian 09 at Tue Aug 30 11:55:04 2022.
