 Gaussian 09, Revision E.01,
 Gaussian 09:  ES64L-G09RevE.01 30-Nov-2015

 -----
 #P G4
 -----

 ---------
 Frag_1002
 ---------
 Symbolic Z-matrix:
 Charge =  0 Multiplicity = 1

 SCF Done:  E(RB3LYP) =  -380.245928943     A.U. after   12 cycles
 SCF Done:  E(RB3LYP) =  -380.257228203     A.U. after   11 cycles
 SCF Done:  E(RB3LYP) =  -380.259800379     A.U. after   11 cycles
 SCF Done:  E(RB3LYP) =  -380.260911167     A.U. after   11 cycles
 SCF Done:  E(RB3LYP) =  -380.261883131     A.U. after   11 cycles
 SCF Done:  E(RB3LYP) =  -380.262721218     A.U. after   11 cycles
 SCF Done:  E(RB3LYP) =  -380.263157312     A.U. after   11 cycles
 SCF Done:  E(RB3LYP) =  -380.263260869     A.U. after    9 cycles
 SCF Done:  E(RB3LYP) =  -380.263261693     A.U. after   11 cycles
 SCF Done:  E(RB3LYP) =  -380.263281972     A.U. after    9 cycles
 SCF Done:  E(RB3LYP) =  -380.263285573     A.U. after    8 cycles
 SCF Done:  E(RB3LYP) =  -380.263286056     A.U. after    7 cycles
 Optimization completed.
    -- Stationary point found.
 Normal termination of Gaussian 09 at Fri Aug 19 21:13:38 2022.

 ----------------------------------------------------------
 #P Geom=AllCheck Guess=TCheck SCRF=Check B3LYP/GTBas3 Freq
 ----------------------------------------------------------

 Structure from the checkpoint file:  "G4.Frag_1002.chk"
 ---------
 Frag_1002
 ---------
 Charge =  0 Multiplicity = 1

 SCF Done:  E(RB3LYP) =  -380.263286056     A.U. after    1 cycles

  Exact polarizability:  61.559   0.846  59.560   1.611   0.088  50.239
 Approx polarizability:  81.826  -1.290  83.452   1.228  -0.125  76.835

                      1                      2                      3
                      A                      A                      A
 Frequencies --    139.9818               217.6732               235.4699
 Red. masses --      3.2549                 1.0753                 1.5983
 Frc consts  --      0.0376                 0.0300                 0.0522
 IR Inten    --     14.1445                 0.3529                 0.7528

                      4                      5                      6
                      A                      A                      A
 Frequencies --    280.4016               284.9982               301.2067
 Red. masses --      1.6212                 1.5485                 1.9400
 Frc consts  --      0.0751                 0.0741                 0.1037
 IR Inten    --      4.5821                 6.5507                 8.7072

                      7                      8                      9
                      A                      A                      A
 Frequencies --    370.0557               386.3221               425.5011
 Red. masses --      1.6868                 2.4627                 2.8294
 Frc consts  --      0.1361                 0.2166                 0.3018
 IR Inten    --     11.3303                14.6098                 5.2301

                     10                     11                     12
                      A                      A                      A
 Frequencies --    463.1747               496.9787               557.7959
 Red. masses --      1.6744                 2.3539                 3.6497
 Frc consts  --      0.2116                 0.3425                 0.6691
 IR Inten    --     47.9489                10.6308                12.5848

                     13                     14                     15
                      A                      A                      A
 Frequencies --    590.5118               649.8670               737.5891
 Red. masses --      1.8685                 1.8562                 4.0912
 Frc consts  --      0.3839                 0.4619                 1.3114
 IR Inten    --     66.2149               123.0384                 6.9891

                     16                     17                     18
                      A                      A                      A
 Frequencies --    852.2263               907.5155               928.5178
 Red. masses --      2.9149                 2.0335                 1.9322
 Frc consts  --      1.2473                 0.9867                 0.9815
 IR Inten    --     40.0137               109.5518                39.1726

                     19                     20                     21
                      A                      A                      A
 Frequencies --    961.8440              1060.3707              1087.6139
 Red. masses --      1.8102                 1.6726                 2.4788
 Frc consts  --      0.9867                 1.1081                 1.7276
 IR Inten    --     28.9009                13.6640                78.9150

                     22                     23                     24
                      A                      A                      A
 Frequencies --   1126.7194              1153.3745              1199.4676
 Red. masses --      2.3789                 1.4664                 1.7501
 Frc consts  --      1.7793                 1.1493                 1.4835
 IR Inten    --     22.5443                 3.9150                17.1416

                     25                     26                     27
                      A                      A                      A
 Frequencies --   1230.8497              1310.2132              1386.7002
 Red. masses --      3.0696                 1.8650                 1.2461
 Frc consts  --      2.7399                 1.8863                 1.4118
 IR Inten    --    106.5482                57.7274                27.4184

                     28                     29                     30
                      A                      A                      A
 Frequencies --   1427.2538              1436.2908              1440.0612
 Red. masses --      1.5259                 1.3046                 1.2307
 Frc consts  --      1.8314                 1.5856                 1.5037
 IR Inten    --     61.3949                77.3318                16.0086

                     31                     32                     33
                      A                      A                      A
 Frequencies --   1479.4345              1484.3801              1502.8552
 Red. masses --      1.0525                 1.0574                 1.0489
 Frc consts  --      1.3572                 1.3727                 1.3958
 IR Inten    --      6.0270                 3.4400                 1.5383

                     34                     35                     36
                      A                      A                      A
 Frequencies --   1507.2827              1621.2800              3009.3043
 Red. masses --      1.0561                 1.1188                 1.0479
 Frc consts  --      1.4137                 1.7327                 5.5912
 IR Inten    --      0.4164                34.2385                37.6856

                     37                     38                     39
                      A                      A                      A
 Frequencies --   3052.1521              3109.0370              3128.2972
 Red. masses --      1.0351                 1.0851                 1.1022
 Frc consts  --      5.6814                 6.1797                 6.3550
 IR Inten    --      8.5938                17.5987                19.3349

                     40                     41                     42
                      A                      A                      A
 Frequencies --   3135.5433              3146.3039              3496.3285
 Red. masses --      1.1024                 1.1026                 1.0489
 Frc consts  --      6.3861                 6.4307                 7.5542
 IR Inten    --     16.8528                13.1264                 1.1074

                     43                     44                     45
                      A                      A                      A
 Frequencies --   3588.3686              3707.9638              3722.6311
 Red. masses --      1.0930                 1.0637                 1.0653
 Frc consts  --      8.2919                 8.6164                 8.6981
 IR Inten    --      3.3479                48.1574                62.1106

 - Thermochemistry -
 -------------------
 Temperature   298.150 Kelvin.  Pressure   1.00000 Atm.
 Atom     1 has atomic number  6 and mass  12.00000

 Molecular mass:   106.07423 amu.
 Principal axes and moments of inertia in atomic units:
                           1         2         3
     Eigenvalues --   535.59407 715.92331 890.22030
           X            0.99811   0.05072   0.03476
           Y           -0.05043   0.99869  -0.00914
           Z           -0.03518   0.00737   0.99935
 This molecule is an asymmetric top.
 Rotational symmetry number  1.
 Warning -- assumption of classical behavior for rotation
           may cause significant error
 Rotational temperatures (Kelvin)      0.16172     0.12098     0.09729
 Rotational constants (GHZ):           3.36961     2.52086     2.02730
 Zero-point vibrational energy     384825.0 (Joules/Mol)
                                   91.97537 (Kcal/Mol)
 Warning -- explicit consideration of  13 degrees of freedom as
           vibrations may cause significant error
 Vibrational temperatures:    201.40   313.18   338.79   403.43   410.05
          (Kelvin)            433.37   532.43   555.83   612.20   666.40
                              715.04   802.54   849.61   935.01  1061.22
                             1226.16  1305.71  1335.93  1383.88  1525.63
                             1564.83  1621.10  1659.45  1725.76  1770.92
                             1885.10  1995.15  2053.50  2066.50  2071.92
                             2128.57  2135.69  2162.27  2168.64  2332.66
                             4329.71  4391.36  4473.21  4500.92  4511.34
                             4526.82  5030.43  5162.86  5334.93  5356.03

 Zero-point correction=                           0.146572 (Hartree/Particle)
 Thermal correction to Energy=                    0.154818
 Thermal correction to Enthalpy=                  0.155763
 Thermal correction to Gibbs Free Energy=         0.115228
 Sum of electronic and zero-point Energies=           -380.116714
 Sum of electronic and thermal Energies=              -380.108468
 Sum of electronic and thermal Enthalpies=            -380.107523
 Sum of electronic and thermal Free Energies=         -380.148058

                     E (Thermal)             CV                S
                      KCal/Mol        Cal/Mol-Kelvin    Cal/Mol-Kelvin
 Total                   97.150             31.783             85.312
 Electronic               0.000              0.000              0.000
 Translational            0.889              2.981             39.894
 Rotational               0.889              2.981             27.326
 Vibrational             95.373             25.821             18.093
 Vibration     1          0.615              1.913              2.804
 Vibration     2          0.646              1.814              1.978
 Vibration     3          0.655              1.787              1.837
 Vibration     4          0.680              1.710              1.531
 Vibration     5          0.683              1.702              1.503
 Vibration     6          0.693              1.671              1.410
 Vibration     7          0.742              1.534              1.080
 Vibration     8          0.755              1.499              1.014
 Vibration     9          0.787              1.415              0.873
 Vibration    10          0.821              1.332              0.757
 Vibration    11          0.853              1.257              0.666
 Vibration    12          0.913              1.123              0.528
 Vibration    13          0.948              1.052              0.466

 Optimization completed.
    -- Stationary point found.
 Normal termination of Gaussian 09 at Fri Aug 19 21:18:41 2022.

 -----------------------------------------------------------------
 #P Geom=AllCheck Guess=TCheck SCRF=Check CCSD(T,E4T,FrzG4)/GTBas1
 -----------------------------------------------------------------

 Structure from the checkpoint file:  "G4.Frag_1002.chk"
 ---------
 Frag_1002
 ---------
 Charge =  0 Multiplicity = 1

 SCF Done:  E(RHF) =  -377.970339559     A.U. after   13 cycles
 E2 =    -0.1090475110D+01 EUMP2 =    -0.37906081466813D+03
 CCSD(T)
 CCSD(T)= -0.37914920698D+03
 379.1166209\CCSD=-379.1169524\CCSD(T)=-379.149207\RMSD=2.929e-09\PG=C0
 Normal termination of Gaussian 09 at Fri Aug 19 21:34:17 2022.

 ---------------------------------------------------------
 #P Geom=AllCheck Guess=TCheck SCRF=Check MP4=FrzG4/GTBas2
 ---------------------------------------------------------

 Structure from the checkpoint file:  "G4.Frag_1002.chk"
 ---------
 Frag_1002
 ---------
 Charge =  0 Multiplicity = 1

 SCF Done:  E(RHF) =  -377.982817449     A.U. after   12 cycles
 E2 =    -0.1110111957D+01 EUMP2 =    -0.37909292940552D+03
 Normal termination of Gaussian 09 at Fri Aug 19 21:52:22 2022.

 ---------------------------------------------------------
 #P Geom=AllCheck Guess=TCheck SCRF=Check MP4=FrzG4/GTBas3
 ---------------------------------------------------------

 Structure from the checkpoint file:  "G4.Frag_1002.chk"
 ---------
 Frag_1002
 ---------
 Charge =  0 Multiplicity = 1

 SCF Done:  E(RHF) =  -378.022254750     A.U. after   11 cycles
 E2 =    -0.1347492206D+01 EUMP2 =    -0.37936974695610D+03
 Normal termination of Gaussian 09 at Sat Aug 20 03:04:45 2022.

 -----------------------------------------------------------
 #P Geom=AllCheck Guess=TCheck SCRF=Check MP2=Full/GTLargeXP
 -----------------------------------------------------------

 Structure from the checkpoint file:  "G4.Frag_1002.chk"
 ---------
 Frag_1002
 ---------
 Charge =  0 Multiplicity = 1

 SCF Done:  E(RHF) =  -378.123910068     A.U. after   12 cycles
 E2 =    -0.1752443706D+01 EUMP2 =    -0.37987635377436D+03
 Normal termination of Gaussian 09 at Sat Aug 20 03:25:31 2022.
 SCF Done:  E(RHF) =  -378.153738719     A.U. after    9 cycles
 Normal termination of Gaussian 09 at Sat Aug 20 03:36:21 2022.

                         Standard orientation:
 ---------------------------------------------------------------------
 Center     Atomic      Atomic             Coordinates (Angstroms)
 Number     Number       Type             X           Y           Z
 ---------------------------------------------------------------------
      1          6           0        1.645671    1.072907   -0.065085
      2          7           0        0.771832    0.007856   -0.541533
      3          8           0        1.378366   -1.204917   -0.016565
      4          6           0       -0.593919    0.028610    0.028387
      5          6           0       -1.293826    1.352718   -0.271839
      6          7           0       -1.240650   -1.141295   -0.586791
      7          8           0       -0.601478   -0.151050    1.420533
      8          1           0        1.664993    1.151379    1.031098
      9          1           0        2.653431    0.863328   -0.427417
     10          1           0        1.314241    2.020861   -0.492785
     11          1           0        0.836073   -1.879959   -0.453446
     12          1           0       -0.856257    2.174496    0.298359
     13          1           0       -2.345462    1.267859    0.013423
     14          1           0       -1.233986    1.581975   -1.339152
     15          1           0       -1.433697   -0.955024   -1.566799
     16          1           0       -2.123823   -1.308419   -0.115462
     17          1           0        0.043551   -0.860099    1.569937
 ---------------------------------------------------------------------

 SCF Done:  E(RHF) =  -378.160371848     A.U. after    8 cycles

 The electronic state is 1-A.
 Alpha  occ. eigenvalues --  -20.58000 -20.55774 -15.61044 -15.55335 -11.34893
 Alpha  occ. eigenvalues --  -11.24564 -11.22597  -1.42090  -1.36475  -1.19106
 Alpha  occ. eigenvalues --   -1.12685  -0.99230  -0.91349  -0.79152  -0.73732
 Alpha  occ. eigenvalues --   -0.68446  -0.67173  -0.65624  -0.62480  -0.57808
 Alpha  occ. eigenvalues --   -0.56715  -0.55701  -0.54830  -0.53869  -0.52223
 Alpha  occ. eigenvalues --   -0.50044  -0.47708  -0.42077  -0.38802
 Alpha virt. eigenvalues --    0.03262   0.04215   0.04767   0.05093   0.06692
 Alpha virt. eigenvalues --    0.06909   0.07153   0.07444   0.08350   0.09695
 Alpha virt. eigenvalues --    0.11252   0.11423   0.12134   0.12862   0.13606

 Mulliken charges:
               1
     1  C   -0.481605
     2  N    0.001021
     3  O   -0.599254
     4  C    0.524777
     5  C   -0.562857
     6  N   -0.793757
     7  O   -0.626848
     8  H    0.181843
     9  H    0.193320
    10  H    0.176511
    11  H    0.421990
    12  H    0.181420
    13  H    0.181679
    14  H    0.187311
    15  H    0.302593
    16  H    0.314993
    17  H    0.396864
 Sum of Mulliken charges =  -0.00000

 Dipole moment (field-independent basis, Debye):
    X=             -1.4465    Y=              0.6956    Z=             -1.1961  Tot=              2.0017
 Quadrupole moment (field-independent basis, Debye-Ang):
   XX=            -42.3288   YY=            -41.4194   ZZ=            -45.3781
   XY=              2.5245   XZ=              3.2250   YZ=             -0.6667

 Normal termination of Gaussian 09 at Sat Aug 20 08:23:18 2022.
