 Gaussian 09, Revision E.01,
 Gaussian 09:  ES64L-G09RevE.01 30-Nov-2015

 -----
 #P G4
 -----

 --------
 Frag_564
 --------
 Symbolic Z-matrix:
 Charge =  0 Multiplicity = 1

 SCF Done:  E(RB3LYP) =  -284.375951258     A.U. after   13 cycles
 SCF Done:  E(RB3LYP) =  -284.378377199     A.U. after   12 cycles
 SCF Done:  E(RB3LYP) =  -284.378441064     A.U. after   10 cycles
 SCF Done:  E(RB3LYP) =  -284.378487303     A.U. after    9 cycles
 SCF Done:  E(RB3LYP) =  -284.378565955     A.U. after    9 cycles
 SCF Done:  E(RB3LYP) =  -284.378634643     A.U. after   12 cycles
 SCF Done:  E(RB3LYP) =  -284.378833377     A.U. after   10 cycles
 SCF Done:  E(RB3LYP) =  -284.379003415     A.U. after   10 cycles
 SCF Done:  E(RB3LYP) =  -284.379127145     A.U. after   11 cycles
 SCF Done:  E(RB3LYP) =  -284.379150084     A.U. after    9 cycles
 SCF Done:  E(RB3LYP) =  -284.379158886     A.U. after    8 cycles
 SCF Done:  E(RB3LYP) =  -284.379159158     A.U. after    8 cycles
 SCF Done:  E(RB3LYP) =  -284.379159316     A.U. after    7 cycles
 Optimization completed.
    -- Stationary point found.
 Normal termination of Gaussian 09 at Tue Aug 30 11:13:08 2022.

 ----------------------------------------------------------
 #P Geom=AllCheck Guess=TCheck SCRF=Check B3LYP/GTBas3 Freq
 ----------------------------------------------------------

 Structure from the checkpoint file:  "G4.Frag_564.chk"
 --------
 Frag_564
 --------
 Charge =  0 Multiplicity = 1

 SCF Done:  E(RB3LYP) =  -284.379159316     A.U. after    1 cycles

  Exact polarizability:  52.755   4.344  36.137  -0.005  -0.004  24.655
 Approx polarizability:  80.484   6.639  51.252  -0.005  -0.009  35.746

                      1                      2                      3
                      A                      A                      A
 Frequencies --     85.9521               206.5829               294.5796
 Red. masses --      1.0771                 1.6700                 1.3842
 Frc consts  --      0.0047                 0.0420                 0.0708
 IR Inten    --      6.5366                76.3642                18.6859

                      4                      5                      6
                      A                      A                      A
 Frequencies --    320.3985               364.5865               444.6448
 Red. masses --      3.8034                 1.5738                 3.0730
 Frc consts  --      0.2300                 0.1233                 0.3580
 IR Inten    --      0.6241               105.1195                 2.0963

                      7                      8                      9
                      A                      A                      A
 Frequencies --    522.6202               614.7477               838.4710
 Red. masses --      3.0076                 7.1385                 4.8979
 Frc consts  --      0.4840                 1.5895                 2.0288
 IR Inten    --      1.9238                 3.6202                 5.7318

                     10                     11                     12
                      A                      A                      A
 Frequencies --   1000.2221              1024.3431              1062.7280
 Red. masses --      4.3157                 1.6690                 1.5888
 Frc consts  --      2.5439                 1.0318                 1.0572
 IR Inten    --    155.0972                65.4938                 1.1424

                     13                     14                     15
                      A                      A                      A
 Frequencies --   1252.9351              1331.4804              1402.6698
 Red. masses --      1.3762                 2.1439                 1.3074
 Frc consts  --      1.2729                 2.2394                 1.5155
 IR Inten    --      1.9041               279.6259                51.2683

                     16                     17                     18
                      A                      A                      A
 Frequencies --   1420.4339              1482.5832              1491.3112
 Red. masses --      1.5396                 1.0940                 1.0437
 Frc consts  --      1.8302                 1.4167                 1.3677
 IR Inten    --      0.1943                 2.2850                 7.5326

                     19                     20                     21
                      A                      A                      A
 Frequencies --   1776.3954              3032.1234              3085.1553
 Red. masses --      6.4664                 1.0410                 1.0998
 Frc consts  --     12.0224                 5.6388                 6.1675
 IR Inten    --     65.6988                16.3008                12.2948

                     22                     23                     24
                      A                      A                      A
 Frequencies --   3173.9363              3835.5996              3847.0324
 Red. masses --      1.0953                 1.0678                 1.0663
 Frc consts  --      6.5012                 9.2556                 9.2981
 IR Inten    --      1.0087                81.9727                55.9474

 - Thermochemistry -
 -------------------
 Temperature   298.150 Kelvin.  Pressure   1.00000 Atm.
 Atom     1 has atomic number  6 and mass  12.00000

 Molecular mass:    75.03203 amu.
 Principal axes and moments of inertia in atomic units:
                           1         2         3
     Eigenvalues --   194.37028 424.71891 607.79050
           X            0.99823   0.05945  -0.00005
           Y           -0.05945   0.99823   0.00000
           Z            0.00005   0.00000   1.00000
 This molecule is an asymmetric top.
 Rotational symmetry number  1.
 Rotational temperatures (Kelvin)      0.44561     0.20393     0.14251
 Rotational constants (GHZ):           9.28507     4.24926     2.96935
 Zero-point vibrational energy     202836.0 (Joules/Mol)
                                   48.47897 (Kcal/Mol)
 Warning -- explicit consideration of   8 degrees of freedom as
           vibrations may cause significant error
 Vibrational temperatures:    123.67   297.23   423.83   460.98   524.56
          (Kelvin)            639.74   751.93   884.48  1206.37  1439.09
                             1473.80  1529.03  1802.69  1915.70  2018.13
                             2043.69  2133.10  2145.66  2555.83  4362.54
                             4438.84  4566.58  5518.57  5535.01

 Zero-point correction=                           0.077256 (Hartree/Particle)
 Thermal correction to Energy=                    0.083414
 Thermal correction to Enthalpy=                  0.084358
 Thermal correction to Gibbs Free Energy=         0.048080
 Sum of electronic and zero-point Energies=           -284.301903
 Sum of electronic and thermal Energies=              -284.295746
 Sum of electronic and thermal Enthalpies=            -284.294801
 Sum of electronic and thermal Free Energies=         -284.331080

                     E (Thermal)             CV                S
                      KCal/Mol        Cal/Mol-Kelvin    Cal/Mol-Kelvin
 Total                   52.343             20.514             76.354
 Electronic               0.000              0.000              0.000
 Translational            0.889              2.981             38.862
 Rotational               0.889              2.981             25.421
 Vibrational             50.565             14.552             12.072
 Vibration     1          0.601              1.959              3.750
 Vibration     2          0.641              1.830              2.074
 Vibration     3          0.689              1.684              1.448
 Vibration     4          0.706              1.635              1.308
 Vibration     5          0.738              1.545              1.102
 Vibration     6          0.804              1.373              0.812
 Vibration     7          0.878              1.200              0.604
 Vibration     8          0.974              1.001              0.425

 Normal termination of Gaussian 09 at Tue Aug 30 11:13:26 2022.

 -----------------------------------------------------------------
 #P Geom=AllCheck Guess=TCheck SCRF=Check CCSD(T,E4T,FrzG4)/GTBas1
 -----------------------------------------------------------------

 Structure from the checkpoint file:  "G4.Frag_564.chk"
 --------
 Frag_564
 --------
 Charge =  0 Multiplicity = 1

 SCF Done:  E(RHF) =  -282.739225746     A.U. after   13 cycles
 E2 =    -0.7787294850D+00 EUMP2 =    -0.28351795523088D+03
 CCSD(T)
 CCSD(T)= -0.28357466189D+03
 Normal termination of Gaussian 09 at Tue Aug 30 11:14:17 2022.

 ---------------------------------------------------------
 #P Geom=AllCheck Guess=TCheck SCRF=Check MP4=FrzG4/GTBas2
 ---------------------------------------------------------

 Structure from the checkpoint file:  "G4.Frag_564.chk"
 --------
 Frag_564
 --------
 Charge =  0 Multiplicity = 1

 SCF Done:  E(RHF) =  -282.749176944     A.U. after   12 cycles
 E2 =    -0.7921193752D+00 EUMP2 =    -0.28354129631914D+03
 Normal termination of Gaussian 09 at Tue Aug 30 11:14:32 2022.

 ---------------------------------------------------------
 #P Geom=AllCheck Guess=TCheck SCRF=Check MP4=FrzG4/GTBas3
 ---------------------------------------------------------

 Structure from the checkpoint file:  "G4.Frag_564.chk"
 --------
 Frag_564
 --------
 Charge =  0 Multiplicity = 1

 SCF Done:  E(RHF) =  -282.778100769     A.U. after   12 cycles
 E2 =    -0.9528423419D+00 EUMP2 =    -0.28373094311133D+03
 Normal termination of Gaussian 09 at Tue Aug 30 11:15:41 2022.

 -----------------------------------------------------------
 #P Geom=AllCheck Guess=TCheck SCRF=Check MP2=Full/GTLargeXP
 -----------------------------------------------------------

 Structure from the checkpoint file:  "G4.Frag_564.chk"
 --------
 Frag_564
 --------
 Charge =  0 Multiplicity = 1

 SCF Done:  E(RHF) =  -282.857093253     A.U. after   12 cycles
 E2 =    -0.1243994671D+01 EUMP2 =    -0.28410108792456D+03
 Normal termination of Gaussian 09 at Tue Aug 30 11:16:23 2022.
 SCF Done:  E(RHF) =  -282.880936378     A.U. after    9 cycles
 Normal termination of Gaussian 09 at Tue Aug 30 11:17:11 2022.

                         Standard orientation:
 ---------------------------------------------------------------------
 Center     Atomic      Atomic             Coordinates (Angstroms)
 Number     Number       Type             X           Y           Z
 ---------------------------------------------------------------------
      1          6           0        0.569232    1.367110    0.000115
      2          6           0        0.390506   -0.122361    0.000009
      3          8           0        1.517670   -0.885874    0.000095
      4          7           0       -0.703363   -0.776227    0.000055
      5          8           0       -1.822541    0.083874   -0.000287
      6          1           0        1.134435    1.682000    0.885273
      7          1           0        1.131580    1.682834   -0.886556
      8          1           0       -0.396970    1.867859    0.001804
      9          1           0        2.282824   -0.303536   -0.001269
     10          1           0       -2.547785   -0.548063    0.001157
 ---------------------------------------------------------------------

 SCF Done:  E(RHF) =  -282.885957965     A.U. after    8 cycles

 The electronic state is 1-A.
 Alpha  occ. eigenvalues --  -20.60044 -20.58831 -15.59859 -11.34012 -11.24980
 Alpha  occ. eigenvalues --   -1.43555  -1.40097  -1.14220  -1.00556  -0.80665
 Alpha  occ. eigenvalues --   -0.70967  -0.68344  -0.65433  -0.64298  -0.57943
 Alpha  occ. eigenvalues --   -0.56943  -0.55405  -0.55027  -0.43954  -0.37014
 Alpha virt. eigenvalues --    0.03216   0.04683   0.05618   0.05810   0.07371
 Alpha virt. eigenvalues --    0.07930   0.07997   0.10154   0.12658   0.13072
 Alpha virt. eigenvalues --    0.14454   0.14625   0.15109   0.16257   0.17118

 Mulliken charges:
               1
     1  C   -0.567348
     2  C    0.426119
     3  O   -0.514375
     4  N   -0.272660
     5  O   -0.486600
     6  H    0.200933
     7  H    0.200997
     8  H    0.228437
     9  H    0.380130
    10  H    0.404367
 Sum of Mulliken charges =  -0.00000

 Dipole moment (field-independent basis, Debye):
    X=              1.4700    Y=              2.5212    Z=              0.0002  Tot=              2.9185
 Quadrupole moment (field-independent basis, Debye-Ang):
   XX=            -21.6585   YY=            -32.2758   ZZ=            -30.5003
   XY=              4.7318   XZ=             -0.0138   YZ=             -0.0010

 Normal termination of Gaussian 09 at Tue Aug 30 11:21:43 2022.
