 Gaussian 09, Revision E.01,
 Gaussian 09:  ES64L-G09RevE.01 30-Nov-2015

 -----
 #P G4
 -----

 --------
 Frag_952
 --------
 Symbolic Z-matrix:
 Charge =  0 Multiplicity = 1

 SCF Done:  E(RB3LYP) =  -246.058963963     A.U. after   14 cycles
 SCF Done:  E(RB3LYP) =  -246.066296463     A.U. after   13 cycles
 SCF Done:  E(RB3LYP) =  -246.066485987     A.U. after   12 cycles
 SCF Done:  E(RB3LYP) =  -246.066496856     A.U. after    9 cycles
 SCF Done:  E(RB3LYP) =  -246.066498023     A.U. after    8 cycles
 Optimization completed.
    -- Stationary point found.
 Normal termination of Gaussian 09 at Fri Aug 26 10:02:16 2022.

 ----------------------------------------------------------
 #P Geom=AllCheck Guess=TCheck SCRF=Check B3LYP/GTBas3 Freq
 ----------------------------------------------------------

 Structure from the checkpoint file:  "G4.Frag_952.chk"
 --------
 Frag_952
 --------
 Charge =  0 Multiplicity = 1

 SCF Done:  E(RB3LYP) =  -246.066498023     A.U. after    1 cycles

  Exact polarizability:  55.944   7.970  42.469   0.000   0.000  20.496
 Approx polarizability:  97.442  16.981  67.705   0.000   0.000  30.411

                      1                      2                      3
                      A                      A                      A
 Frequencies --    200.6040               249.6398               308.6805
 Red. masses --      5.5867                 1.1317                 5.4557
 Frc consts  --      0.1325                 0.0416                 0.3063
 IR Inten    --     10.3924                98.4125                 9.3298

                      4                      5                      6
                      A                      A                      A
 Frequencies --    423.0396               620.5423               664.4621
 Red. masses --      2.8495                 7.0827                 6.1998
 Frc consts  --      0.3005                 1.6069                 1.6128
 IR Inten    --      2.1419                 1.5475                 6.5654

                      7                      8                      9
                      A                      A                      A
 Frequencies --    736.3294               801.9013               885.9331
 Red. masses --      1.0832                 4.7387                 1.3885
 Frc consts  --      0.3460                 1.7954                 0.6421
 IR Inten    --      3.2800                 8.7283                49.1635

                     10                     11                     12
                      A                      A                      A
 Frequencies --    983.3900              1239.3202              1338.3218
 Red. masses --      1.9400                 1.4669                 2.9027
 Frc consts  --      1.1054                 1.3274                 3.0631
 IR Inten    --     41.8564                19.7424               235.9572

                     13                     14                     15
                      A                      A                      A
 Frequencies --   1432.7626              1719.0819              2340.5305
 Red. masses --      1.1534                 5.3620                12.6847
 Frc consts  --      1.3950                 9.3361                40.9412
 IR Inten    --      5.6989                47.0635                12.3016

                     16                     17                     18
                      A                      A                      A
 Frequencies --   3187.2736              3289.6487              3833.4703
 Red. masses --      1.0610                 1.1173                 1.0669
 Frc consts  --      6.3503                 7.1238                 9.2376
 IR Inten    --      2.8204                 0.1155                93.1482

 - Thermochemistry -
 -------------------
 Temperature   298.150 Kelvin.  Pressure   1.00000 Atm.
 Atom     1 has atomic number  6 and mass  12.00000

 Molecular mass:    69.02146 amu.
 Principal axes and moments of inertia in atomic units:
                           1         2         3
     Eigenvalues --   172.62773 419.42390 592.05163
           X            0.99872   0.05064   0.00000
           Y           -0.05064   0.99872  -0.00000
           Z           -0.00000   0.00000   1.00000
 This molecule is an asymmetric top.
 Rotational symmetry number  1.
 Rotational temperatures (Kelvin)      0.50174     0.20651     0.14629
 Rotational constants (GHZ):          10.45453     4.30291     3.04828
 Zero-point vibrational energy     145076.7 (Joules/Mol)
                                   34.67417 (Kcal/Mol)
 Warning -- explicit consideration of   5 degrees of freedom as
           vibrations may cause significant error
 Vibrational temperatures:    288.62   359.18   444.12   608.66   892.82
          (Kelvin)            956.01  1059.41  1153.76  1274.66  1414.88
                             1783.10  1925.54  2061.42  2473.37  3367.50
                             4585.77  4733.06  5515.50

 Zero-point correction=                           0.055257 (Hartree/Particle)
 Thermal correction to Energy=                    0.060415
 Thermal correction to Enthalpy=                  0.061360
 Thermal correction to Gibbs Free Energy=         0.027362
 Sum of electronic and zero-point Energies=           -246.011241
 Sum of electronic and thermal Energies=              -246.006083
 Sum of electronic and thermal Enthalpies=            -246.005138
 Sum of electronic and thermal Free Energies=         -246.039136

                     E (Thermal)             CV                S
                      KCal/Mol        Cal/Mol-Kelvin    Cal/Mol-Kelvin
 Total                   37.911             17.296             71.554
 Electronic               0.000              0.000              0.000
 Translational            0.889              2.981             38.613
 Rotational               0.889              2.981             25.264
 Vibrational             36.134             11.334              7.677
 Vibration     1          0.638              1.839              2.128
 Vibration     2          0.662              1.763              1.733
 Vibration     3          0.698              1.657              1.369
 Vibration     4          0.785              1.420              0.882
 Vibration     5          0.981              0.989              0.416

 Optimization completed.
    -- Stationary point found.
 Normal termination of Gaussian 09 at Fri Aug 26 10:02:31 2022.

 -----------------------------------------------------------------
 #P Geom=AllCheck Guess=TCheck SCRF=Check CCSD(T,E4T,FrzG4)/GTBas1
 -----------------------------------------------------------------

 Structure from the checkpoint file:  "G4.Frag_952.chk"
 --------
 Frag_952
 --------
 Charge =  0 Multiplicity = 1

 SCF Done:  E(RHF) =  -244.614022850     A.U. after   14 cycles
 E2 =    -0.7103799955D+00 EUMP2 =    -0.24532440284562D+03
 CCSD(T)
 CCSD(T)= -0.24537540395D+03
 -245.3789388\MP4SDQ=-245.3484396\CCSD=-245.3471547\CCSD(T)=-245.375403
 Normal termination of Gaussian 09 at Fri Aug 26 10:03:08 2022.

 ---------------------------------------------------------
 #P Geom=AllCheck Guess=TCheck SCRF=Check MP4=FrzG4/GTBas2
 ---------------------------------------------------------

 Structure from the checkpoint file:  "G4.Frag_952.chk"
 --------
 Frag_952
 --------
 Charge =  0 Multiplicity = 1

 SCF Done:  E(RHF) =  -244.622330722     A.U. after   14 cycles
 E2 =    -0.7190440770D+00 EUMP2 =    -0.24534137479945D+03
 Normal termination of Gaussian 09 at Fri Aug 26 10:03:20 2022.

 ---------------------------------------------------------
 #P Geom=AllCheck Guess=TCheck SCRF=Check MP4=FrzG4/GTBas3
 ---------------------------------------------------------

 Structure from the checkpoint file:  "G4.Frag_952.chk"
 --------
 Frag_952
 --------
 Charge =  0 Multiplicity = 1

 SCF Done:  E(RHF) =  -244.644020387     A.U. after   13 cycles
 E2 =    -0.8476499309D+00 EUMP2 =    -0.24549167031779D+03
 Normal termination of Gaussian 09 at Fri Aug 26 10:04:05 2022.

 -----------------------------------------------------------
 #P Geom=AllCheck Guess=TCheck SCRF=Check MP2=Full/GTLargeXP
 -----------------------------------------------------------

 Structure from the checkpoint file:  "G4.Frag_952.chk"
 --------
 Frag_952
 --------
 Charge =  0 Multiplicity = 1

 SCF Done:  E(RHF) =  -244.707381934     A.U. after   13 cycles
 E2 =    -0.1119029542D+01 EUMP2 =    -0.24582641147624D+03
 Normal termination of Gaussian 09 at Fri Aug 26 10:04:37 2022.
 SCF Done:  E(RHF) =  -244.726671326     A.U. after   10 cycles
 Normal termination of Gaussian 09 at Fri Aug 26 10:05:15 2022.

                         Standard orientation:
 ---------------------------------------------------------------------
 Center     Atomic      Atomic             Coordinates (Angstroms)
 Number     Number       Type             X           Y           Z
 ---------------------------------------------------------------------
      1          6           0        1.202310    1.134262    0.000001
      2          6           0        0.442035    0.038102   -0.000002
      3          8           0        0.978799   -1.215455   -0.000000
      4          6           0       -0.992003    0.110395   -0.000001
      5          7           0       -2.149840    0.104717    0.000000
      6          1           0        0.747293    2.113823    0.000002
      7          1           0        2.281814    1.053105    0.000002
      8          1           0        0.275330   -1.872862    0.000007
 ---------------------------------------------------------------------

 SCF Done:  E(RHF) =  -244.730467615     A.U. after    8 cycles

 The electronic state is 1-A.
 Alpha  occ. eigenvalues --  -20.62017 -15.59725 -11.35630 -11.29625 -11.26231
 Alpha  occ. eigenvalues --   -1.44044  -1.24022  -1.08557  -0.89292  -0.80493
 Alpha  occ. eigenvalues --   -0.67547  -0.62665  -0.62218  -0.60454  -0.56803
 Alpha  occ. eigenvalues --   -0.50947  -0.49248  -0.37863
 Alpha virt. eigenvalues --    0.03621   0.04035   0.05046   0.05455   0.06939
 Alpha virt. eigenvalues --    0.07089   0.07446   0.08420   0.09552   0.09769
 Alpha virt. eigenvalues --    0.09848   0.13325   0.13921   0.15366   0.15838

 Mulliken charges:
               1
     1  C   -0.391989
     2  C    0.221727
     3  O   -0.545628
     4  C    0.286029
     5  N   -0.417885
     6  H    0.213939
     7  H    0.232117
     8  H    0.401690
 Sum of Mulliken charges =  -0.00000

 Dipole moment (field-independent basis, Debye):
    X=              2.3052    Y=             -0.0668    Z=              0.0000  Tot=              2.3062
 Quadrupole moment (field-independent basis, Debye-Ang):
   XX=            -36.9202   YY=            -23.9191   ZZ=            -30.5616
   XY=              3.4806   XZ=              0.0000   YZ=             -0.0000

 Normal termination of Gaussian 09 at Fri Aug 26 10:08:33 2022.
