 Gaussian 09, Revision E.01,
 Gaussian 09:  ES64L-G09RevE.01 30-Nov-2015

 -----
 #P G4
 -----

 --------
 Frag_915
 --------
 Symbolic Z-matrix:
 Charge =  0 Multiplicity = 1

 SCF Done:  E(RB3LYP) =  -322.517375854     A.U. after   13 cycles
 SCF Done:  E(RB3LYP) =  -322.520610172     A.U. after   12 cycles
 SCF Done:  E(RB3LYP) =  -322.520756553     A.U. after   11 cycles
 SCF Done:  E(RB3LYP) =  -322.520787540     A.U. after    9 cycles
 SCF Done:  E(RB3LYP) =  -322.520807832     A.U. after   10 cycles
 SCF Done:  E(RB3LYP) =  -322.520819060     A.U. after   10 cycles
 SCF Done:  E(RB3LYP) =  -322.520829869     A.U. after    9 cycles
 SCF Done:  E(RB3LYP) =  -322.520833975     A.U. after    9 cycles
 SCF Done:  E(RB3LYP) =  -322.520834467     A.U. after    7 cycles
 SCF Done:  E(RB3LYP) =  -322.520834697     A.U. after    7 cycles
 Optimization completed.
    -- Stationary point found.
 Normal termination of Gaussian 09 at Fri Aug 26 08:14:40 2022.

 ----------------------------------------------------------
 #P Geom=AllCheck Guess=TCheck SCRF=Check B3LYP/GTBas3 Freq
 ----------------------------------------------------------

 Structure from the checkpoint file:  "G4.Frag_915.chk"
 --------
 Frag_915
 --------
 Charge =  0 Multiplicity = 1

 SCF Done:  E(RB3LYP) =  -322.520834697     A.U. after    1 cycles

  Exact polarizability:  51.171  -0.079  39.438  -0.487   0.764  38.612
 Approx polarizability:  81.480  -3.620  54.411  -1.579   0.708  56.929

                      1                      2                      3
                      A                      A                      A
 Frequencies --    180.0216               184.3660               230.0829
 Red. masses --      3.2307                 2.8663                 1.0331
 Frc consts  --      0.0617                 0.0574                 0.0322
 IR Inten    --     12.5668                10.9538                41.5396

                      4                      5                      6
                      A                      A                      A
 Frequencies --    243.2936               351.5003               378.8486
 Red. masses --      1.5659                 1.2015                 3.1798
 Frc consts  --      0.0546                 0.0875                 0.2689
 IR Inten    --     42.9238               124.8667                 6.9658

                      7                      8                      9
                      A                      A                      A
 Frequencies --    416.6493               497.5477               602.0600
 Red. masses --      3.6365                 5.1003                 5.4569
 Frc consts  --      0.3719                 0.7439                 1.1654
 IR Inten    --     10.7060                20.1262                 4.0862

                     10                     11                     12
                      A                      A                      A
 Frequencies --    609.3501               726.8263               917.9875
 Red. masses --      6.7773                 4.8932                 2.3247
 Frc consts  --      1.4827                 1.5230                 1.1542
 IR Inten    --      2.9255                10.3961                19.4772

                     13                     14                     15
                      A                      A                      A
 Frequencies --    974.2356              1079.0223              1130.1089
 Red. masses --      2.0512                 2.6228                 1.6733
 Frc consts  --      1.1471                 1.7992                 1.2591
 IR Inten    --     48.9893                74.2976                96.9337

                     16                     17                     18
                      A                      A                      A
 Frequencies --   1176.4756              1335.4453              1386.7195
 Red. masses --      2.8329                 1.6541                 1.3229
 Frc consts  --      2.3102                 1.7380                 1.4989
 IR Inten    --    114.5960               140.7753                32.0346

                     19                     20                     21
                      A                      A                      A
 Frequencies --   1419.1092              1476.0483              1486.3003
 Red. masses --      1.5479                 1.0479                 1.0624
 Frc consts  --      1.8366                 1.3452                 1.3828
 IR Inten    --     50.5558                 1.6354                 1.6778

                     22                     23                     24
                      A                      A                      A
 Frequencies --   2348.9288              3057.7446              3139.9493
 Red. masses --     12.7239                 1.0338                 1.1028
 Frc consts  --     41.3627                 5.6948                 6.4061
 IR Inten    --      0.4488                 3.7743                 9.6707

                     25                     26                     27
                      A                      A                      A
 Frequencies --   3150.8596              3789.9076              3808.6945
 Red. masses --      1.1038                 1.0655                 1.0659
 Frc consts  --      6.4564                 9.0172                 9.1102
 IR Inten    --      6.0398                42.0259                37.4530

 - Thermochemistry -
 -------------------
 Temperature   298.150 Kelvin.  Pressure   1.00000 Atm.
 Atom     1 has atomic number  6 and mass  12.00000

 Molecular mass:    87.03203 amu.
 Principal axes and moments of inertia in atomic units:
                           1         2         3
     Eigenvalues --   354.15749 623.16589 642.43319
           X            0.99846   0.05475   0.00923
           Y           -0.05552   0.98337   0.17292
           Z            0.00039  -0.17317   0.98489
 This molecule is an asymmetric top.
 Rotational symmetry number  1.
 Rotational temperatures (Kelvin)      0.24456     0.13899     0.13482
 Rotational constants (GHZ):           5.09587     2.89608     2.80923
 Zero-point vibrational energy     215914.5 (Joules/Mol)
                                   51.60480 (Kcal/Mol)
 Warning -- explicit consideration of  10 degrees of freedom as
           vibrations may cause significant error
 Vibrational temperatures:    259.01   265.26   331.04   350.04   505.73
          (Kelvin)            545.08   599.46   715.86   866.23   876.72
                             1045.74  1320.78  1401.71  1552.47  1625.97
                             1692.68  1921.41  1995.18  2041.78  2123.70
                             2138.45  3379.58  4399.41  4517.68  4533.38
                             5452.82  5479.85

 Zero-point correction=                           0.082237 (Hartree/Particle)
 Thermal correction to Energy=                    0.089079
 Thermal correction to Enthalpy=                  0.090023
 Thermal correction to Gibbs Free Energy=         0.052279
 Sum of electronic and zero-point Energies=           -322.438597
 Sum of electronic and thermal Energies=              -322.431756
 Sum of electronic and thermal Enthalpies=            -322.430812
 Sum of electronic and thermal Free Energies=         -322.468556

                     E (Thermal)             CV                S
                      KCal/Mol        Cal/Mol-Kelvin    Cal/Mol-Kelvin
 Total                   55.898             24.015             79.440
 Electronic               0.000              0.000              0.000
 Translational            0.889              2.981             39.304
 Rotational               0.889              2.981             26.453
 Vibrational             54.120             18.054             13.683
 Vibration     1          0.629              1.867              2.328
 Vibration     2          0.631              1.861              2.284
 Vibration     3          0.652              1.795              1.878
 Vibration     4          0.659              1.774              1.779
 Vibration     5          0.728              1.572              1.159
 Vibration     6          0.749              1.515              1.044
 Vibration     7          0.780              1.434              0.903
 Vibration     8          0.853              1.255              0.664
 Vibration     9          0.960              1.027              0.446
 Vibration    10          0.968              1.012              0.434

 Optimization completed.
    -- Stationary point found.
 Normal termination of Gaussian 09 at Fri Aug 26 08:15:06 2022.

 -----------------------------------------------------------------
 #P Geom=AllCheck Guess=TCheck SCRF=Check CCSD(T,E4T,FrzG4)/GTBas1
 -----------------------------------------------------------------

 Structure from the checkpoint file:  "G4.Frag_915.chk"
 --------
 Frag_915
 --------
 Charge =  0 Multiplicity = 1

 SCF Done:  E(RHF) =  -320.663446881     A.U. after   13 cycles
 E2 =    -0.8987480449D+00 EUMP2 =    -0.32156219492552D+03
 CCSD(T)
 CCSD(T)= -0.32162250878D+03
 598\MP4SDQ=-321.5942497\CCSD=-321.5927269\CCSD(T)=-321.6225088\RMSD=8.
 Normal termination of Gaussian 09 at Fri Aug 26 08:16:42 2022.

 ---------------------------------------------------------
 #P Geom=AllCheck Guess=TCheck SCRF=Check MP4=FrzG4/GTBas2
 ---------------------------------------------------------

 Structure from the checkpoint file:  "G4.Frag_915.chk"
 --------
 Frag_915
 --------
 Charge =  0 Multiplicity = 1

 SCF Done:  E(RHF) =  -320.674120143     A.U. after   13 cycles
 E2 =    -0.9123804287D+00 EUMP2 =    -0.32158650057203D+03
 Normal termination of Gaussian 09 at Fri Aug 26 08:17:10 2022.

 ---------------------------------------------------------
 #P Geom=AllCheck Guess=TCheck SCRF=Check MP4=FrzG4/GTBas3
 ---------------------------------------------------------

 Structure from the checkpoint file:  "G4.Frag_915.chk"
 --------
 Frag_915
 --------
 Charge =  0 Multiplicity = 1

 SCF Done:  E(RHF) =  -320.704152664     A.U. after   13 cycles
 E2 =    -0.1090590632D+01 EUMP2 =    -0.32179474329596D+03
 Normal termination of Gaussian 09 at Fri Aug 26 08:19:35 2022.

 -----------------------------------------------------------
 #P Geom=AllCheck Guess=TCheck SCRF=Check MP2=Full/GTLargeXP
 -----------------------------------------------------------

 Structure from the checkpoint file:  "G4.Frag_915.chk"
 --------
 Frag_915
 --------
 Charge =  0 Multiplicity = 1

 SCF Done:  E(RHF) =  -320.790984996     A.U. after   13 cycles
 E2 =    -0.1428986886D+01 EUMP2 =    -0.32221997188180D+03
 Normal termination of Gaussian 09 at Fri Aug 26 08:21:06 2022.
 SCF Done:  E(RHF) =  -320.816341836     A.U. after    9 cycles
 Normal termination of Gaussian 09 at Fri Aug 26 08:22:28 2022.

                         Standard orientation:
 ---------------------------------------------------------------------
 Center     Atomic      Atomic             Coordinates (Angstroms)
 Number     Number       Type             X           Y           Z
 ---------------------------------------------------------------------
      1          6           0        0.953656    1.346365    0.006792
      2          6           0        0.317088   -0.040690   -0.010162
      3          8           0        0.685560   -0.821774    1.110564
      4          8           0        0.779696   -0.701310   -1.141717
      5          6           0       -1.179477    0.068447   -0.042040
      6          7           0       -2.332566    0.143733   -0.044787
      7          1           0        2.037066    1.216781    0.047101
      8          1           0        0.619737    1.910353    0.881115
      9          1           0        0.684713    1.899793   -0.895443
     10          1           0        0.246758   -0.478267    1.897655
     11          1           0        0.470039   -1.614852   -1.095242
 ---------------------------------------------------------------------

 SCF Done:  E(RHF) =  -320.821651545     A.U. after    8 cycles

 The electronic state is 1-A.
 Alpha  occ. eigenvalues --  -20.60214 -20.59935 -15.59025 -11.41135 -11.28409
 Alpha  occ. eigenvalues --  -11.25029  -1.45961  -1.37387  -1.23321  -1.05468
 Alpha  occ. eigenvalues --   -0.90923  -0.80259  -0.75958  -0.67788  -0.60845
 Alpha  occ. eigenvalues --   -0.59561  -0.58920  -0.57599  -0.56204  -0.54017
 Alpha  occ. eigenvalues --   -0.49638  -0.48324  -0.48123
 Alpha virt. eigenvalues --    0.03288   0.04356   0.04879   0.05018   0.06957
 Alpha virt. eigenvalues --    0.07139   0.07201   0.07395   0.08091   0.09961
 Alpha virt. eigenvalues --    0.12358   0.13664   0.14285   0.14833   0.14871

 Mulliken charges:
               1
     1  C   -0.533796
     2  C    0.469538
     3  O   -0.565848
     4  O   -0.548893
     5  C    0.244831
     6  N   -0.423632
     7  H    0.207910
     8  H    0.186346
     9  H    0.199295
    10  H    0.381855
    11  H    0.382394
 Sum of Mulliken charges =  -0.00000

 Dipole moment (field-independent basis, Debye):
    X=              2.1084    Y=              0.5170    Z=              1.2587  Tot=              2.5094
 Quadrupole moment (field-independent basis, Debye-Ang):
   XX=            -46.5744   YY=            -32.0897   ZZ=            -33.2795
   XY=              2.7542   XZ=             -0.1599   YZ=              2.0769

 Normal termination of Gaussian 09 at Fri Aug 26 08:28:07 2022.
