 Gaussian 09, Revision E.01,
 Gaussian 09:  ES64L-G09RevE.01 30-Nov-2015

 -----
 #P G4
 -----

 --------
 Frag_846
 --------
 Symbolic Z-matrix:
 Charge =  0 Multiplicity = 1

 SCF Done:  E(RB3LYP) =  -248.482416004     A.U. after   13 cycles
 SCF Done:  E(RB3LYP) =  -248.495194184     A.U. after   12 cycles
 SCF Done:  E(RB3LYP) =  -248.496171324     A.U. after   10 cycles
 SCF Done:  E(RB3LYP) =  -248.498078089     A.U. after   11 cycles
 SCF Done:  E(RB3LYP) =  -248.498959159     A.U. after   11 cycles
 SCF Done:  E(RB3LYP) =  -248.501149821     A.U. after   12 cycles
 SCF Done:  E(RB3LYP) =  -248.501903636     A.U. after   11 cycles
 SCF Done:  E(RB3LYP) =  -248.502222948     A.U. after   11 cycles
 SCF Done:  E(RB3LYP) =  -248.502342881     A.U. after   10 cycles
 SCF Done:  E(RB3LYP) =  -248.502376113     A.U. after    9 cycles
 SCF Done:  E(RB3LYP) =  -248.502835144     A.U. after   10 cycles
 SCF Done:  E(RB3LYP) =  -248.502837920     A.U. after    9 cycles
 SCF Done:  E(RB3LYP) =  -248.502838380     A.U. after    7 cycles
 Optimization completed.
    -- Stationary point found.
 Normal termination of Gaussian 09 at Sun Aug 21 12:40:12 2022.

 ----------------------------------------------------------
 #P Geom=AllCheck Guess=TCheck SCRF=Check B3LYP/GTBas3 Freq
 ----------------------------------------------------------

 Structure from the checkpoint file:  "G4.Frag_846.chk"
 --------
 Frag_846
 --------
 Charge =  0 Multiplicity = 1

 SCF Done:  E(RB3LYP) =  -248.502838380     A.U. after    1 cycles

  Exact polarizability:  59.935   5.878  48.048  -0.605   0.315  28.932
 Approx polarizability:  85.919  14.212  69.584  -0.794  -0.911  42.958

                      1                      2                      3
                      A                      A                      A
 Frequencies --    197.3135               224.2409               260.7839
 Red. masses --      1.1831                 1.1341                 3.5516
 Frc consts  --      0.0271                 0.0336                 0.1423
 IR Inten    --      0.9789               123.0344                30.1718

                      4                      5                      6
                      A                      A                      A
 Frequencies --    286.0468               355.1048               387.3161
 Red. masses --      2.2632                 1.1766                 2.2142
 Frc consts  --      0.1091                 0.0874                 0.1957
 IR Inten    --      3.7430                40.6447                 5.2544

                      7                      8                      9
                      A                      A                      A
 Frequencies --    540.4753               602.2244               724.7506
 Red. masses --      2.4521                 4.1762                 1.4641
 Frc consts  --      0.4220                 0.8924                 0.4531
 IR Inten    --     43.6512                20.1012               176.8412

                     10                     11                     12
                      A                      A                      A
 Frequencies --    798.2617               887.5313              1009.2985
 Red. masses --      1.3405                 2.9648                 1.4139
 Frc consts  --      0.5033                 1.3760                 0.8486
 IR Inten    --     59.2898                 6.8654                 1.8443

                     13                     14                     15
                      A                      A                      A
 Frequencies --   1065.0855              1104.0689              1188.4194
 Red. masses --      1.4688                 2.3637                 1.8813
 Frc consts  --      0.9817                 1.6976                 1.5655
 IR Inten    --      8.8217                29.4973                75.8258

                     16                     17                     18
                      A                      A                      A
 Frequencies --   1220.6021              1344.9647              1397.5004
 Red. masses --      1.2855                 1.7166                 1.5607
 Frc consts  --      1.1284                 1.8296                 1.7958
 IR Inten    --    111.9326                 3.5740                26.4556

                     19                     20                     21
                      A                      A                      A
 Frequencies --   1421.4170              1472.2904              1497.4256
 Red. masses --      1.4614                 1.0448                 1.0592
 Frc consts  --      1.7396                 1.3343                 1.3994
 IR Inten    --      9.2703                 5.3850                 4.9229

                     22                     23                     24
                      A                      A                      A
 Frequencies --   1640.3326              1775.2242              3010.8381
 Red. masses --      1.1290                 5.9310                 1.0432
 Frc consts  --      1.7899                11.0124                 5.5719
 IR Inten    --     44.9958                22.1944                45.1326

                     25                     26                     27
                      A                      A                      A
 Frequencies --   3060.5539              3121.9670              3176.6077
 Red. masses --      1.0945                 1.0974                 1.0917
 Frc consts  --      6.0403                 6.3019                 6.4904
 IR Inten    --     25.2598                17.3715                17.2181

                     28                     29                     30
                      A                      A                      A
 Frequencies --   3517.0702              3618.2060              3828.0209
 Red. masses --      1.0470                 1.0959                 1.0665
 Frc consts  --      7.6306                 8.4531                 9.2080
 IR Inten    --      3.7015                 7.1434                47.1532

 - Thermochemistry -
 -------------------
 Temperature   298.150 Kelvin.  Pressure   1.00000 Atm.
 Atom     1 has atomic number  6 and mass  12.00000

 Molecular mass:    73.05276 amu.
 Principal axes and moments of inertia in atomic units:
                           1         2         3
     Eigenvalues --   194.32616 475.33179 654.07729
           X            0.99993  -0.01088  -0.00472
           Y            0.01096   0.99979   0.01742
           Z            0.00452  -0.01747   0.99984
 This molecule is an asymmetric top.
 Rotational symmetry number  1.
 Rotational temperatures (Kelvin)      0.44571     0.18222     0.13242
 Rotational constants (GHZ):           9.28718     3.79680     2.75922
 Zero-point vibrational energy     267568.4 (Joules/Mol)
                                   63.95038 (Kcal/Mol)
 Warning -- explicit consideration of   8 degrees of freedom as
           vibrations may cause significant error
 Vibrational temperatures:    283.89   322.63   375.21   411.56   510.92
          (Kelvin)            557.26   777.62   866.47  1042.75  1148.52
                             1276.96  1452.15  1532.42  1588.51  1709.87
                             1756.17  1935.10  2010.69  2045.10  2118.29
                             2154.46  2360.07  2554.15  4331.92  4403.45
                             4491.81  4570.42  5060.27  5205.78  5507.66

 Zero-point correction=                           0.101911 (Hartree/Particle)
 Thermal correction to Energy=                    0.108173
 Thermal correction to Enthalpy=                  0.109117
 Thermal correction to Gibbs Free Energy=         0.073093
 Sum of electronic and zero-point Energies=           -248.400927
 Sum of electronic and thermal Energies=              -248.394666
 Sum of electronic and thermal Enthalpies=            -248.393721
 Sum of electronic and thermal Free Energies=         -248.429745

                     E (Thermal)             CV                S
                      KCal/Mol        Cal/Mol-Kelvin    Cal/Mol-Kelvin
 Total                   67.880             22.180             75.818
 Electronic               0.000              0.000              0.000
 Translational            0.889              2.981             38.782
 Rotational               0.889              2.981             25.605
 Vibrational             66.102             16.219             11.431
 Vibration     1          0.637              1.844              2.158
 Vibration     2          0.649              1.804              1.925
 Vibration     3          0.669              1.744              1.657
 Vibration     4          0.684              1.700              1.497
 Vibration     5          0.731              1.565              1.143
 Vibration     6          0.756              1.497              1.010
 Vibration     7          0.896              1.161              0.564
 Vibration     8          0.961              1.027              0.446

 Optimization completed.
    -- Stationary point found.
 Normal termination of Gaussian 09 at Sun Aug 21 12:41:38 2022.

 -----------------------------------------------------------------
 #P Geom=AllCheck Guess=TCheck SCRF=Check CCSD(T,E4T,FrzG4)/GTBas1
 -----------------------------------------------------------------

 Structure from the checkpoint file:  "G4.Frag_846.chk"
 --------
 Frag_846
 --------
 Charge =  0 Multiplicity = 1

 SCF Done:  E(RHF) =  -246.950467174     A.U. after   13 cycles
 E2 =    -0.7281741946D+00 EUMP2 =    -0.24767864136817D+03
 CCSD(T)
 CCSD(T)= -0.24774429981D+03
 CCSD=-247.7214788\CCSD(T)=-247.7442998\RMSD=2.752e-09\PG=C01 [X(C3H7N1
 Normal termination of Gaussian 09 at Sun Aug 21 12:43:37 2022.

 ---------------------------------------------------------
 #P Geom=AllCheck Guess=TCheck SCRF=Check MP4=FrzG4/GTBas2
 ---------------------------------------------------------

 Structure from the checkpoint file:  "G4.Frag_846.chk"
 --------
 Frag_846
 --------
 Charge =  0 Multiplicity = 1

 SCF Done:  E(RHF) =  -246.961091871     A.U. after   13 cycles
 E2 =    -0.7399991187D+00 EUMP2 =    -0.24770109098953D+03
 Normal termination of Gaussian 09 at Sun Aug 21 12:45:39 2022.

 ---------------------------------------------------------
 #P Geom=AllCheck Guess=TCheck SCRF=Check MP4=FrzG4/GTBas3
 ---------------------------------------------------------

 Structure from the checkpoint file:  "G4.Frag_846.chk"
 --------
 Frag_846
 --------
 Charge =  0 Multiplicity = 1

 SCF Done:  E(RHF) =  -246.988171248     A.U. after   11 cycles
 E2 =    -0.8958384882D+00 EUMP2 =    -0.24788400973664D+03
 Normal termination of Gaussian 09 at Sun Aug 21 13:25:06 2022.

 -----------------------------------------------------------
 #P Geom=AllCheck Guess=TCheck SCRF=Check MP2=Full/GTLargeXP
 -----------------------------------------------------------

 Structure from the checkpoint file:  "G4.Frag_846.chk"
 --------
 Frag_846
 --------
 Charge =  0 Multiplicity = 1

 SCF Done:  E(RHF) =  -247.055397839     A.U. after   12 cycles
 E2 =    -0.1176323705D+01 EUMP2 =    -0.24823172154358D+03
 Normal termination of Gaussian 09 at Sun Aug 21 13:27:41 2022.
 SCF Done:  E(RHF) =  -247.075628001     A.U. after    9 cycles
 Normal termination of Gaussian 09 at Sun Aug 21 13:30:57 2022.

                         Standard orientation:
 ---------------------------------------------------------------------
 Center     Atomic      Atomic             Coordinates (Angstroms)
 Number     Number       Type             X           Y           Z
 ---------------------------------------------------------------------
      1          6           0        1.762444   -0.671616   -0.002212
      2          6           0        0.420817   -0.003287    0.004767
      3          7           0        0.433656    1.399045   -0.088135
      4          6           0       -0.720844   -0.699763    0.013862
      5          8           0       -1.938387   -0.041764   -0.063695
      6          1           0        2.368037   -0.352639    0.857471
      7          1           0        1.663022   -1.758438    0.044482
      8          1           0        2.328642   -0.413237   -0.905079
      9          1           0        1.140150    1.830433    0.495502
     10          1           0       -0.478765    1.794468    0.104323
     11          1           0       -0.739310   -1.784012   -0.024889
     12          1           0       -2.584775   -0.527787    0.456197
 ---------------------------------------------------------------------

 SCF Done:  E(RHF) =  -247.079961707     A.U. after    8 cycles

 The electronic state is 1-A.
 Alpha  occ. eigenvalues --  -20.56998 -15.54969 -11.25843 -11.25667 -11.22457
 Alpha  occ. eigenvalues --   -1.37809  -1.20175  -1.01944  -0.92660  -0.75223
 Alpha  occ. eigenvalues --   -0.71632  -0.67931  -0.62410  -0.59628  -0.56203
 Alpha  occ. eigenvalues --   -0.54093  -0.52870  -0.50307  -0.45935  -0.29969
 Alpha virt. eigenvalues --    0.03778   0.04112   0.05045   0.06141   0.06783
 Alpha virt. eigenvalues --    0.07433   0.08050   0.09173   0.10018   0.10493
 Alpha virt. eigenvalues --    0.13390   0.13601   0.13711   0.14118   0.14975

 Mulliken charges:
               1
     1  C   -0.498202
     2  C    0.223051
     3  N   -0.724386
     4  C   -0.121910
     5  O   -0.567526
     6  H    0.165081
     7  H    0.164702
     8  H    0.190767
     9  H    0.296493
    10  H    0.327413
    11  H    0.169571
    12  H    0.374947
 Sum of Mulliken charges =  -0.00000

 Dipole moment (field-independent basis, Debye):
    X=              0.2032    Y=             -0.9163    Z=              1.9197  Tot=              2.1368
 Quadrupole moment (field-independent basis, Debye-Ang):
   XX=            -27.0314   YY=            -28.4185   ZZ=            -33.5148
   XY=              2.5168   XZ=             -1.6290   YZ=              2.0387

 Normal termination of Gaussian 09 at Sun Aug 21 14:59:58 2022.
