 Gaussian 09, Revision E.01,
 Gaussian 09:  ES64L-G09RevE.01 30-Nov-2015

 -----
 #P G4
 -----

 --------
 Frag_484
 --------
 Symbolic Z-matrix:
 Charge =  0 Multiplicity = 1

 SCF Done:  E(RB3LYP) =  -228.611775307     A.U. after   12 cycles
 SCF Done:  E(RB3LYP) =  -228.622862274     A.U. after   12 cycles
 SCF Done:  E(RB3LYP) =  -228.626429282     A.U. after   11 cycles
 SCF Done:  E(RB3LYP) =  -228.623755793     A.U. after   13 cycles
 SCF Done:  E(RB3LYP) =  -228.629369478     A.U. after   11 cycles
 SCF Done:  E(RB3LYP) =  -228.632697977     A.U. after   13 cycles
 SCF Done:  E(RB3LYP) =  -228.634530857     A.U. after   11 cycles
 SCF Done:  E(RB3LYP) =  -228.636048005     A.U. after   12 cycles
 SCF Done:  E(RB3LYP) =  -228.637361431     A.U. after   12 cycles
 SCF Done:  E(RB3LYP) =  -228.637572133     A.U. after   10 cycles
 SCF Done:  E(RB3LYP) =  -228.637988855     A.U. after   11 cycles
 SCF Done:  E(RB3LYP) =  -228.637992558     A.U. after   11 cycles
 SCF Done:  E(RB3LYP) =  -228.637992615     A.U. after    7 cycles
 Optimization completed.
    -- Stationary point found.
 Normal termination of Gaussian 09 at Fri Aug 26 12:46:29 2022.

 ----------------------------------------------------------
 #P Geom=AllCheck Guess=TCheck SCRF=Check B3LYP/GTBas3 Freq
 ----------------------------------------------------------

 Structure from the checkpoint file:  "G4.Frag_484.chk"
 --------
 Frag_484
 --------
 Charge =  0 Multiplicity = 1

 SCF Done:  E(RB3LYP) =  -228.637992615     A.U. after    1 cycles

  Exact polarizability:  65.105  -5.586  50.549   0.739   0.133  32.377
 Approx polarizability:  89.729 -14.236  74.427   0.125   1.543  48.158

                      1                      2                      3
                      A                      A                      A
 Frequencies --    113.3826               191.9765               267.2613
 Red. masses --      1.0700                 1.1513                 3.1415
 Frc consts  --      0.0081                 0.0250                 0.1322
 IR Inten    --     19.3832                 0.1034                 0.3245

                      4                      5                      6
                      A                      A                      A
 Frequencies --    274.5906               386.2549               430.2979
 Red. masses --      2.2371                 2.2115                 1.1603
 Frc consts  --      0.0994                 0.1944                 0.1266
 IR Inten    --      2.8406                 8.0418                42.4338

                      7                      8                      9
                      A                      A                      A
 Frequencies --    555.7277               595.5344               727.4062
 Red. masses --      2.3353                 3.4982                 1.3012
 Frc consts  --      0.4249                 0.7310                 0.4057
 IR Inten    --     41.9652                20.5679               140.6601

                     10                     11                     12
                      A                      A                      A
 Frequencies --    807.9502               833.5850               901.3179
 Red. masses --      1.4085                 1.3565                 2.6295
 Frc consts  --      0.5417                 0.5554                 1.2586
 IR Inten    --     62.2360               140.5116                25.6326

                     13                     14                     15
                      A                      A                      A
 Frequencies --   1007.3803              1066.0182              1084.6678
 Red. masses --      1.4319                 1.5298                 2.1410
 Frc consts  --      0.8562                 1.0243                 1.4841
 IR Inten    --      1.1389                 7.0392                 9.0201

                     16                     17                     18
                      A                      A                      A
 Frequencies --   1175.7152              1214.4869              1318.6721
 Red. masses --      1.4439                 1.5126                 1.7044
 Frc consts  --      1.1759                 1.3145                 1.7462
 IR Inten    --     14.3164                14.2767                 7.4284

                     19                     20                     21
                      A                      A                      A
 Frequencies --   1395.5342              1418.9539              1474.1912
 Red. masses --      1.5783                 1.5401                 1.0456
 Frc consts  --      1.8110                 1.8270                 1.3388
 IR Inten    --     22.1426                13.6019                 5.2845

                     22                     23                     24
                      A                      A                      A
 Frequencies --   1494.2379              1628.5058              1645.4872
 Red. masses --      1.0642                 1.1723                 1.1339
 Frc consts  --      1.3999                 1.8318                 1.8089
 IR Inten    --      5.9524                51.6990                 9.2615

                     25                     26                     27
                      A                      A                      A
 Frequencies --   1755.2137              3013.8926              3063.2216
 Red. masses --      4.6127                 1.0423                 1.0955
 Frc consts  --      8.3727                 5.5781                 6.0566
 IR Inten    --     38.8016                42.6013                24.1028

                     28                     29                     30
                      A                      A                      A
 Frequencies --   3124.9615              3139.7519              3474.1647
 Red. masses --      1.0974                 1.0897                 1.0540
 Frc consts  --      6.3142                 6.3289                 7.4953
 IR Inten    --     12.3099                35.3932                 1.6330

                     31                     32                     33
                      A                      A                      A
 Frequencies --   3498.7793              3566.2042              3607.4870
 Red. masses --      1.0471                 1.0868                 1.0958
 Frc consts  --      7.5522                 8.1438                 8.4025
 IR Inten    --      9.4243                 3.8045                 8.5398

 - Thermochemistry -
 -------------------
 Temperature   298.150 Kelvin.  Pressure   1.00000 Atm.
 Atom     1 has atomic number  6 and mass  12.00000

 Molecular mass:    72.06875 amu.
 Principal axes and moments of inertia in atomic units:
                           1         2         3
     Eigenvalues --   195.50892 483.69013 657.82092
           X            0.99992   0.01022   0.00767
           Y           -0.01010   0.99983  -0.01560
           Z           -0.00783   0.01553   0.99985
 This molecule is an asymmetric top.
 Rotational symmetry number  1.
 Rotational temperatures (Kelvin)      0.44302     0.17907     0.13167
 Rotational constants (GHZ):           9.23099     3.73119     2.74351
 Zero-point vibrational energy     300578.6 (Joules/Mol)
                                   71.84000 (Kcal/Mol)
 Warning -- explicit consideration of   8 degrees of freedom as
           vibrations may cause significant error
 Vibrational temperatures:    163.13   276.21   384.53   395.07   555.73
          (Kelvin)            619.10   799.57   856.84  1046.57  1162.46
                             1199.34  1296.79  1449.39  1533.76  1560.59
                             1691.59  1747.37  1897.27  2007.86  2041.56
                             2121.03  2149.87  2343.05  2367.49  2525.36
                             4336.31  4407.29  4496.12  4517.40  4998.54
                             5033.96  5130.97  5190.36

 Zero-point correction=                           0.114484 (Hartree/Particle)
 Thermal correction to Energy=                    0.120937
 Thermal correction to Enthalpy=                  0.121881
 Thermal correction to Gibbs Free Energy=         0.085272
 Sum of electronic and zero-point Energies=           -228.523508
 Sum of electronic and thermal Energies=              -228.517056
 Sum of electronic and thermal Enthalpies=            -228.516112
 Sum of electronic and thermal Free Energies=         -228.552721

                     E (Thermal)             CV                S
                      KCal/Mol        Cal/Mol-Kelvin    Cal/Mol-Kelvin
 Total                   75.889             22.804             77.050
 Electronic               0.000              0.000              0.000
 Translational            0.889              2.981             38.742
 Rotational               0.889              2.981             25.634
 Vibrational             74.111             16.842             12.675
 Vibration     1          0.607              1.938              3.210
 Vibration     2          0.634              1.851              2.209
 Vibration     3          0.672              1.733              1.614
 Vibration     4          0.677              1.720              1.567
 Vibration     5          0.755              1.500              1.015
 Vibration     6          0.791              1.404              0.858
 Vibration     7          0.911              1.127              0.532
 Vibration     8          0.953              1.041              0.457

 Optimization completed.
    -- Stationary point found.
 Normal termination of Gaussian 09 at Fri Aug 26 12:46:52 2022.

 -----------------------------------------------------------------
 #P Geom=AllCheck Guess=TCheck SCRF=Check CCSD(T,E4T,FrzG4)/GTBas1
 -----------------------------------------------------------------

 Structure from the checkpoint file:  "G4.Frag_484.chk"
 --------
 Frag_484
 --------
 Charge =  0 Multiplicity = 1

 SCF Done:  E(RHF) =  -227.126265965     A.U. after   12 cycles
 E2 =    -0.7141287137D+00 EUMP2 =    -0.22784039467869D+03
 CCSD(T)
 CCSD(T)= -0.22791185127D+03
 P4SDTQ=-227.9104654\MP4SDQ=-227.887667\CCSD=-227.8886384\CCSD(T)=-227.
 Normal termination of Gaussian 09 at Fri Aug 26 12:47:47 2022.

 ---------------------------------------------------------
 #P Geom=AllCheck Guess=TCheck SCRF=Check MP4=FrzG4/GTBas2
 ---------------------------------------------------------

 Structure from the checkpoint file:  "G4.Frag_484.chk"
 --------
 Frag_484
 --------
 Charge =  0 Multiplicity = 1

 SCF Done:  E(RHF) =  -227.135889257     A.U. after   13 cycles
 E2 =    -0.7251658496D+00 EUMP2 =    -0.22786105510641D+03
 Normal termination of Gaussian 09 at Fri Aug 26 12:48:05 2022.

 ---------------------------------------------------------
 #P Geom=AllCheck Guess=TCheck SCRF=Check MP4=FrzG4/GTBas3
 ---------------------------------------------------------

 Structure from the checkpoint file:  "G4.Frag_484.chk"
 --------
 Frag_484
 --------
 Charge =  0 Multiplicity = 1

 SCF Done:  E(RHF) =  -227.161578966     A.U. after   11 cycles
 E2 =    -0.8753396370D+00 EUMP2 =    -0.22803691860284D+03
 Normal termination of Gaussian 09 at Fri Aug 26 12:49:39 2022.

 -----------------------------------------------------------
 #P Geom=AllCheck Guess=TCheck SCRF=Check MP2=Full/GTLargeXP
 -----------------------------------------------------------

 Structure from the checkpoint file:  "G4.Frag_484.chk"
 --------
 Frag_484
 --------
 Charge =  0 Multiplicity = 1

 SCF Done:  E(RHF) =  -227.220078328     A.U. after   12 cycles
 E2 =    -0.1149950214D+01 EUMP2 =    -0.22837002854202D+03
 Normal termination of Gaussian 09 at Fri Aug 26 12:50:37 2022.
 SCF Done:  E(RHF) =  -227.238085985     A.U. after    8 cycles
 Normal termination of Gaussian 09 at Fri Aug 26 12:51:42 2022.

                         Standard orientation:
 ---------------------------------------------------------------------
 Center     Atomic      Atomic             Coordinates (Angstroms)
 Number     Number       Type             X           Y           Z
 ---------------------------------------------------------------------
      1          6           0       -1.794847   -0.651267    0.021643
      2          6           0       -0.439999   -0.008376   -0.007690
      3          7           0       -0.429704    1.389340    0.072963
      4          6           0        0.698851   -0.717419   -0.032490
      5          7           0        1.965110   -0.046343   -0.032062
      6          1           0       -2.407833   -0.316713   -0.826425
      7          1           0       -1.714561   -1.739222   -0.027853
      8          1           0       -2.341153   -0.384612    0.934294
      9          1           0       -1.183330    1.830506   -0.439043
     10          1           0        0.474723    1.758621   -0.203559
     11          1           0        0.661429   -1.804236   -0.017137
     12          1           0        2.672169   -0.594671   -0.508256
     13          1           0        2.306686    0.111722    0.912895
 ---------------------------------------------------------------------

 SCF Done:  E(RHF) =  -227.241905144     A.U. after    8 cycles

 The electronic state is 1-A.
 Alpha  occ. eigenvalues --  -15.54631 -15.54322 -11.25684 -11.22364 -11.22168
 Alpha  occ. eigenvalues --   -1.21602  -1.16105  -1.00876  -0.90926  -0.73727
 Alpha  occ. eigenvalues --   -0.68776  -0.64191  -0.63662  -0.59244  -0.56446
 Alpha  occ. eigenvalues --   -0.53516  -0.51941  -0.46274  -0.41647  -0.29690
 Alpha virt. eigenvalues --    0.03929   0.04330   0.05100   0.06195   0.06743
 Alpha virt. eigenvalues --    0.07392   0.08090   0.09108   0.09911   0.10486
 Alpha virt. eigenvalues --    0.11866   0.12030   0.13410   0.13712   0.14081

 Mulliken charges:
               1
     1  C   -0.511497
     2  C    0.243143
     3  N   -0.735965
     4  C   -0.186393
     5  N   -0.735398
     6  H    0.167020
     7  H    0.168665
     8  H    0.189457
     9  H    0.293362
    10  H    0.333792
    11  H    0.174719
    12  H    0.296221
    13  H    0.302874
 Sum of Mulliken charges =  -0.00000

 Dipole moment (field-independent basis, Debye):
    X=              0.0032    Y=             -0.5636    Z=             -0.4271  Tot=              0.7071
 Quadrupole moment (field-independent basis, Debye-Ang):
   XX=            -27.0720   YY=            -30.7643   ZZ=            -33.6032
   XY=             -2.1184   XZ=              2.1386   YZ=             -1.5507

 Normal termination of Gaussian 09 at Fri Aug 26 12:56:19 2022.
