 Gaussian 09, Revision E.01,
 Gaussian 09:  ES64L-G09RevE.01 30-Nov-2015

 -----
 #P G4
 -----

 --------
 Frag_829
 --------
 Symbolic Z-matrix:
 Charge =  0 Multiplicity = 1

 SCF Done:  E(RB3LYP) =  -189.265084580     A.U. after   13 cycles
 SCF Done:  E(RB3LYP) =  -189.279782990     A.U. after   13 cycles
 SCF Done:  E(RB3LYP) =  -189.281079760     A.U. after   12 cycles
 SCF Done:  E(RB3LYP) =  -189.281837257     A.U. after   13 cycles
 SCF Done:  E(RB3LYP) =  -189.282617049     A.U. after   13 cycles
 SCF Done:  E(RB3LYP) =  -189.282860893     A.U. after   12 cycles
 SCF Done:  E(RB3LYP) =  -189.282869780     A.U. after   12 cycles
 SCF Done:  E(RB3LYP) =  -189.282879540     A.U. after   10 cycles
 SCF Done:  E(RB3LYP) =  -189.282879675     A.U. after    7 cycles
 SCF Done:  E(RB3LYP) =  -189.282880400     A.U. after    7 cycles
 Optimization completed.
    -- Stationary point found.
 Normal termination of Gaussian 09 at Tue Aug 30 11:39:29 2022.

 ----------------------------------------------------------
 #P Geom=AllCheck Guess=TCheck SCRF=Check B3LYP/GTBas3 Freq
 ----------------------------------------------------------

 Structure from the checkpoint file:  "G4.Frag_829.chk"
 --------
 Frag_829
 --------
 Charge =  0 Multiplicity = 1

 SCF Done:  E(RB3LYP) =  -189.282880400     A.U. after    1 cycles

  Exact polarizability:  46.003   0.901  31.862   4.417  -2.295  34.000
 Approx polarizability:  63.616   2.282  45.874   9.837  -4.337  52.992

                      1                      2                      3
                      A                      A                      A
 Frequencies --    107.0860               220.0418               371.5669
 Red. masses --      3.2127                 1.0966                 2.6945
 Frc consts  --      0.0217                 0.0313                 0.2192
 IR Inten    --      2.8225                 1.1422                18.7299

                      4                      5                      6
                      A                      A                      A
 Frequencies --    565.2307               803.3886               852.8089
 Red. masses --      2.5376                 1.3398                 1.9469
 Frc consts  --      0.4777                 0.5095                 0.8342
 IR Inten    --      0.8419                 4.8092                 1.0517

                      7                      8                      9
                      A                      A                      A
 Frequencies --    927.9776              1014.9142              1134.7181
 Red. masses --      1.2737                 2.6822                 1.9120
 Frc consts  --      0.6462                 1.6278                 1.4505
 IR Inten    --     35.2314                 3.1658                 4.5952

                     10                     11                     12
                      A                      A                      A
 Frequencies --   1175.7267              1276.7579              1351.2443
 Red. masses --      1.6406                 1.1345                 1.3578
 Frc consts  --      1.3362                 1.0896                 1.4607
 IR Inten    --      4.1687                 1.8766                 4.2492

                     13                     14                     15
                      A                      A                      A
 Frequencies --   1404.1602              1466.6738              1489.6287
 Red. masses --      1.2246                 1.1043                 1.0497
 Frc consts  --      1.4226                 1.3997                 1.3723
 IR Inten    --      0.9107                 1.7947                22.9578

                     16                     17                     18
                      A                      A                      A
 Frequencies --   1494.4245              1506.1562              1684.3680
 Red. masses --      1.1936                 1.0843                11.0537
 Frc consts  --      1.5706                 1.4493                18.4771
 IR Inten    --     62.5277                15.4988                18.1928

                     19                     20                     21
                      A                      A                      A
 Frequencies --   2949.3268              3005.7040              3048.1468
 Red. masses --      1.0678                 1.0689                 1.0354
 Frc consts  --      5.4724                 5.6895                 5.6680
 IR Inten    --     45.0345                93.8594                14.8264

                     22                     23                     24
                      A                      A                      A
 Frequencies --   3059.1878              3121.6020              3130.5630
 Red. masses --      1.0911                 1.1024                 1.1023
 Frc consts  --      6.0165                 6.3293                 6.3651
 IR Inten    --     11.5601                20.8270                16.1726

 - Thermochemistry -
 -------------------
 Temperature   298.150 Kelvin.  Pressure   1.00000 Atm.
 Atom     1 has atomic number  6 and mass  12.00000

 Molecular mass:    58.05310 amu.
 Principal axes and moments of inertia in atomic units:
                           1         2         3
     Eigenvalues --    71.15862 387.24946 399.07004
           X            0.99969  -0.02229   0.01098
           Y            0.02269   0.99902  -0.03803
           Z           -0.01012   0.03827   0.99922
 This molecule is an asymmetric top.
 Rotational symmetry number  1.
 Rotational temperatures (Kelvin)      1.21719     0.22366     0.21704
 Rotational constants (GHZ):          25.36223     4.66041     4.52237
 Zero-point vibrational energy     222274.6 (Joules/Mol)
                                   53.12489 (Kcal/Mol)
 Warning -- explicit consideration of   4 degrees of freedom as
           vibrations may cause significant error
 Vibrational temperatures:    154.07   316.59   534.60   813.24  1155.90
          (Kelvin)           1227.00  1335.15  1460.23  1632.60  1691.61
                             1836.97  1944.14  2020.27  2110.21  2143.24
                             2150.14  2167.02  2423.43  4243.42  4324.53
                             4385.60  4401.48  4491.28  4504.18

 Zero-point correction=                           0.084660 (Hartree/Particle)
 Thermal correction to Energy=                    0.089579
 Thermal correction to Enthalpy=                  0.090523
 Thermal correction to Gibbs Free Energy=         0.057413
 Sum of electronic and zero-point Energies=           -189.198220
 Sum of electronic and thermal Energies=              -189.193302
 Sum of electronic and thermal Enthalpies=            -189.192357
 Sum of electronic and thermal Free Energies=         -189.225468

                     E (Thermal)             CV                S
                      KCal/Mol        Cal/Mol-Kelvin    Cal/Mol-Kelvin
 Total                   56.212             15.603             69.686
 Electronic               0.000              0.000              0.000
 Translational            0.889              2.981             38.097
 Rotational               0.889              2.981             23.912
 Vibrational             54.434              9.641              7.677
 Vibration     1          0.606              1.944              3.321
 Vibration     2          0.647              1.811              1.959
 Vibration     3          0.743              1.531              1.073
 Vibration     4          0.921              1.106              0.513

 Optimization completed.
    -- Stationary point found.
 Normal termination of Gaussian 09 at Tue Aug 30 11:39:44 2022.

 -----------------------------------------------------------------
 #P Geom=AllCheck Guess=TCheck SCRF=Check CCSD(T,E4T,FrzG4)/GTBas1
 -----------------------------------------------------------------

 Structure from the checkpoint file:  "G4.Frag_829.chk"
 --------
 Frag_829
 --------
 Charge =  0 Multiplicity = 1

 SCF Done:  E(RHF) =  -188.058954946     A.U. after   14 cycles
 E2 =    -0.5852641432D+00 EUMP2 =    -0.18864421908887D+03
 CCSD(T)
 CCSD(T)= -0.18870442838D+03
 Normal termination of Gaussian 09 at Tue Aug 30 11:40:10 2022.

 ---------------------------------------------------------
 #P Geom=AllCheck Guess=TCheck SCRF=Check MP4=FrzG4/GTBas2
 ---------------------------------------------------------

 Structure from the checkpoint file:  "G4.Frag_829.chk"
 --------
 Frag_829
 --------
 Charge =  0 Multiplicity = 1

 SCF Done:  E(RHF) =  -188.063881947     A.U. after   13 cycles
 E2 =    -0.5921533395D+00 EUMP2 =    -0.18865603528691D+03
 Normal termination of Gaussian 09 at Tue Aug 30 11:40:17 2022.

 ---------------------------------------------------------
 #P Geom=AllCheck Guess=TCheck SCRF=Check MP4=FrzG4/GTBas3
 ---------------------------------------------------------

 Structure from the checkpoint file:  "G4.Frag_829.chk"
 --------
 Frag_829
 --------
 Charge =  0 Multiplicity = 1

 SCF Done:  E(RHF) =  -188.083117290     A.U. after   12 cycles
 E2 =    -0.7110284262D+00 EUMP2 =    -0.18879414571582D+03
 Normal termination of Gaussian 09 at Tue Aug 30 11:40:47 2022.

 -----------------------------------------------------------
 #P Geom=AllCheck Guess=TCheck SCRF=Check MP2=Full/GTLargeXP
 -----------------------------------------------------------

 Structure from the checkpoint file:  "G4.Frag_829.chk"
 --------
 Frag_829
 --------
 Charge =  0 Multiplicity = 1

 SCF Done:  E(RHF) =  -188.128761053     A.U. after   12 cycles
 E2 =    -0.9300478921D+00 EUMP2 =    -0.18905880894469D+03
 Normal termination of Gaussian 09 at Tue Aug 30 11:41:08 2022.
 SCF Done:  E(RHF) =  -188.143770708     A.U. after    9 cycles
 Normal termination of Gaussian 09 at Tue Aug 30 11:41:38 2022.

                         Standard orientation:
 ---------------------------------------------------------------------
 Center     Atomic      Atomic             Coordinates (Angstroms)
 Number     Number       Type             X           Y           Z
 ---------------------------------------------------------------------
      1          6           0        1.645558   -0.300976   -0.148659
      2          6           0        0.421884    0.584018    0.091864
      3          7           0       -0.730714   -0.243056    0.473719
      4          7           0       -1.755460   -0.194548   -0.210819
      5          1           0        1.480681   -0.971551   -0.997048
      6          1           0        1.855868   -0.911220    0.733248
      7          1           0        2.522336    0.316076   -0.363008
      8          1           0        0.178380    1.193587   -0.796099
      9          1           0        0.610870    1.259062    0.935407
     10          1           0       -1.649570    0.479027   -1.012036
 ---------------------------------------------------------------------

 SCF Done:  E(RHF) =  -188.146837287     A.U. after    8 cycles

 The electronic state is 1-A.
 Alpha  occ. eigenvalues --  -15.62847 -15.61884 -11.27192 -11.23280  -1.36025
 Alpha  occ. eigenvalues --   -1.06817  -0.92105  -0.83324  -0.69189  -0.65390
 Alpha  occ. eigenvalues --   -0.59599  -0.55399  -0.54699  -0.49877  -0.47610
 Alpha  occ. eigenvalues --   -0.39108
 Alpha virt. eigenvalues --    0.03984   0.04062   0.05035   0.05947   0.07438
 Alpha virt. eigenvalues --    0.07782   0.07974   0.09648   0.10457   0.11384
 Alpha virt. eigenvalues --    0.13666   0.13939   0.14693   0.15842   0.17437

 Mulliken charges:
               1
     1  C   -0.489270
     2  C   -0.187276
     3  N   -0.059829
     4  N   -0.352545
     5  H    0.169746
     6  H    0.189522
     7  H    0.169765
     8  H    0.139838
     9  H    0.181224
    10  H    0.238825
 Sum of Mulliken charges =  -0.00000

 Dipole moment (field-independent basis, Debye):
    X=              2.1810    Y=              1.9027    Z=             -1.3850  Tot=              3.2086
 Quadrupole moment (field-independent basis, Debye-Ang):
   XX=            -28.8419   YY=            -25.7523   ZZ=            -25.2364
   XY=             -2.3933   XZ=              2.1251   YZ=              0.4142

 Normal termination of Gaussian 09 at Tue Aug 30 11:44:24 2022.
