 Gaussian 09, Revision E.01,
 Gaussian 09:  ES64L-G09RevE.01 30-Nov-2015

 -----
 #P G4
 -----

 --------
 Frag_970
 --------
 Symbolic Z-matrix:
 Charge =  0 Multiplicity = 1

 SCF Done:  E(RB3LYP) =  -264.459618945     A.U. after   13 cycles
 SCF Done:  E(RB3LYP) =  -264.505582191     A.U. after   12 cycles
 SCF Done:  E(RB3LYP) =  -264.509873775     A.U. after   12 cycles
 SCF Done:  E(RB3LYP) =  -264.512039867     A.U. after   12 cycles
 SCF Done:  E(RB3LYP) =  -264.512353694     A.U. after   11 cycles
 SCF Done:  E(RB3LYP) =  -264.512480748     A.U. after   11 cycles
 SCF Done:  E(RB3LYP) =  -264.512563743     A.U. after   10 cycles
 SCF Done:  E(RB3LYP) =  -264.512580412     A.U. after    9 cycles
 SCF Done:  E(RB3LYP) =  -264.512581537     A.U. after    8 cycles
 Optimization completed.
    -- Stationary point found.
 Normal termination of Gaussian 09 at Tue Aug 30 11:49:16 2022.

 ----------------------------------------------------------
 #P Geom=AllCheck Guess=TCheck SCRF=Check B3LYP/GTBas3 Freq
 ----------------------------------------------------------

 Structure from the checkpoint file:  "G4.Frag_970.chk"
 --------
 Frag_970
 --------
 Charge =  0 Multiplicity = 1

 SCF Done:  E(RB3LYP) =  -264.512581537     A.U. after    1 cycles

  Exact polarizability:  59.442   5.017  40.179  -1.040  -0.512  25.701
 Approx polarizability:  81.788  10.076  60.094  -3.177  -1.205  38.328

                      1                      2                      3
                      A                      A                      A
 Frequencies --    130.9518               316.0331               364.3926
 Red. masses --      3.1441                 2.6509                 1.2580
 Frc consts  --      0.0318                 0.1560                 0.0984
 IR Inten    --      9.5782                14.8320                14.8609

                      4                      5                      6
                      A                      A                      A
 Frequencies --    431.7689               542.7438               635.7577
 Red. masses --      2.3126                 1.4245                 1.8051
 Frc consts  --      0.2540                 0.2472                 0.4299
 IR Inten    --      0.7065                74.8983                25.4300

                      7                      8                      9
                      A                      A                      A
 Frequencies --    674.4207               706.4610               730.8431
 Red. masses --      2.6107                 1.2115                 1.3743
 Frc consts  --      0.6996                 0.3562                 0.4325
 IR Inten    --      9.8760                21.6922                46.8130

                     10                     11                     12
                      A                      A                      A
 Frequencies --    735.3403               877.2881               974.4308
 Red. masses --      2.0471                 1.9270                 1.6060
 Frc consts  --      0.6522                 0.8738                 0.8985
 IR Inten    --    101.0518                19.6166                39.3254

                     13                     14                     15
                      A                      A                      A
 Frequencies --    982.6202              1147.2233              1279.3018
 Red. masses --      2.4848                 2.4785                 1.5084
 Frc consts  --      1.4135                 1.9219                 1.4545
 IR Inten    --     78.0103                 4.8173                34.0296

                     16                     17                     18
                      A                      A                      A
 Frequencies --   1308.4830              1403.3418              1439.5789
 Red. masses --      1.2522                 1.7261                 1.4680
 Frc consts  --      1.2632                 2.0029                 1.7924
 IR Inten    --     36.3661                55.2407               184.3746

                     19                     20                     21
                      A                      A                      A
 Frequencies --   1481.3361              1675.4679              1764.6633
 Red. masses --      1.2120                 1.0997                 4.8390
 Frc consts  --      1.5669                 1.8189                 8.8783
 IR Inten    --      0.9999                13.4963               242.6102

                     22                     23                     24
                      A                      A                      A
 Frequencies --   3184.7757              3279.0038              3442.7908
 Red. masses --      1.0605                 1.1158                 1.0536
 Frc consts  --      6.3377                 7.0682                 7.3577
 IR Inten    --      2.0809                 4.7520                 6.8637

                     25                     26                     27
                      A                      A                      A
 Frequencies --   3534.5372              3572.7451              3614.4733
 Red. masses --      1.0755                 1.0896                 1.0636
 Frc consts  --      7.9162                 8.1948                 8.1866
 IR Inten    --      3.9168                10.2246               195.1451

 - Thermochemistry -
 -------------------
 Temperature   298.150 Kelvin.  Pressure   1.00000 Atm.
 Atom     1 has atomic number  6 and mass  12.00000

 Molecular mass:    74.04801 amu.
 Principal axes and moments of inertia in atomic units:
                           1         2         3
     Eigenvalues --   183.38617 426.25586 585.35483
           X            0.99968   0.02532   0.00209
           Y           -0.02530   0.99963  -0.01020
           Z           -0.00235   0.01015   0.99995
 This molecule is an asymmetric top.
 Rotational symmetry number  1.
 Rotational temperatures (Kelvin)      0.47230     0.20320     0.14797
 Rotational constants (GHZ):           9.84121     4.23394     3.08316
 Zero-point vibrational energy     240633.5 (Joules/Mol)
                                   57.51278 (Kcal/Mol)
 Warning -- explicit consideration of   5 degrees of freedom as
           vibrations may cause significant error
 Vibrational temperatures:    188.41   454.70   524.28   621.22   780.89
          (Kelvin)            914.71   970.34  1016.44  1051.52  1057.99
                             1262.22  1401.99  1413.77  1650.60  1840.63
                             1882.61  2019.09  2071.23  2131.31  2410.62
                             2538.95  4582.18  4717.75  4953.40  5085.40
                             5140.38  5200.41

 Zero-point correction=                           0.091652 (Hartree/Particle)
 Thermal correction to Energy=                    0.097163
 Thermal correction to Enthalpy=                  0.098107
 Thermal correction to Gibbs Free Energy=         0.063415
 Sum of electronic and zero-point Energies=           -264.420929
 Sum of electronic and thermal Energies=              -264.415419
 Sum of electronic and thermal Enthalpies=            -264.414475
 Sum of electronic and thermal Free Energies=         -264.449167

                     E (Thermal)             CV                S
                      KCal/Mol        Cal/Mol-Kelvin    Cal/Mol-Kelvin
 Total                   60.970             20.042             73.016
 Electronic               0.000              0.000              0.000
 Translational            0.889              2.981             38.822
 Rotational               0.889              2.981             25.329
 Vibrational             59.193             14.080              8.864
 Vibration     1          0.612              1.922              2.932
 Vibration     2          0.703              1.643              1.331
 Vibration     3          0.738              1.546              1.103
 Vibration     4          0.793              1.401              0.853
 Vibration     5          0.898              1.156              0.559

 Optimization completed.
    -- Stationary point found.
 Normal termination of Gaussian 09 at Tue Aug 30 11:49:35 2022.

 -----------------------------------------------------------------
 #P Geom=AllCheck Guess=TCheck SCRF=Check CCSD(T,E4T,FrzG4)/GTBas1
 -----------------------------------------------------------------

 Structure from the checkpoint file:  "G4.Frag_970.chk"
 --------
 Frag_970
 --------
 Charge =  0 Multiplicity = 1

 SCF Done:  E(RHF) =  -262.913104181     A.U. after   12 cycles
 E2 =    -0.7579007011D+00 EUMP2 =    -0.26367100488216D+03
 CCSD(T)
 CCSD(T)= -0.26373219777D+03
 05\MP4SDQ=-263.708435\CCSD=-263.7087447\CCSD(T)=-263.7321978\RMSD=8.67
 Normal termination of Gaussian 09 at Tue Aug 30 11:50:26 2022.

 ---------------------------------------------------------
 #P Geom=AllCheck Guess=TCheck SCRF=Check MP4=FrzG4/GTBas2
 ---------------------------------------------------------

 Structure from the checkpoint file:  "G4.Frag_970.chk"
 --------
 Frag_970
 --------
 Charge =  0 Multiplicity = 1

 SCF Done:  E(RHF) =  -262.924178472     A.U. after   12 cycles
 E2 =    -0.7706405028D+00 EUMP2 =    -0.26369481897511D+03
 Normal termination of Gaussian 09 at Tue Aug 30 11:50:41 2022.

 ---------------------------------------------------------
 #P Geom=AllCheck Guess=TCheck SCRF=Check MP4=FrzG4/GTBas3
 ---------------------------------------------------------

 Structure from the checkpoint file:  "G4.Frag_970.chk"
 --------
 Frag_970
 --------
 Charge =  0 Multiplicity = 1

 SCF Done:  E(RHF) =  -262.953099035     A.U. after   11 cycles
 E2 =    -0.9280134934D+00 EUMP2 =    -0.26388111252803D+03
 Normal termination of Gaussian 09 at Tue Aug 30 11:51:56 2022.

 -----------------------------------------------------------
 #P Geom=AllCheck Guess=TCheck SCRF=Check MP2=Full/GTLargeXP
 -----------------------------------------------------------

 Structure from the checkpoint file:  "G4.Frag_970.chk"
 --------
 Frag_970
 --------
 Charge =  0 Multiplicity = 1

 SCF Done:  E(RHF) =  -263.025968661     A.U. after   12 cycles
 E2 =    -0.1213083497D+01 EUMP2 =    -0.26423905215776D+03
 Normal termination of Gaussian 09 at Tue Aug 30 11:52:46 2022.
 SCF Done:  E(RHF) =  -263.047323575     A.U. after    9 cycles
 Normal termination of Gaussian 09 at Tue Aug 30 11:53:40 2022.

                         Standard orientation:
 ---------------------------------------------------------------------
 Center     Atomic      Atomic             Coordinates (Angstroms)
 Number     Number       Type             X           Y           Z
 ---------------------------------------------------------------------
      1          6           0       -1.776216   -0.586202    0.122942
      2          6           0       -0.594959    0.015034   -0.043756
      3          8           0       -0.436339    1.352071   -0.052721
      4          7           0        0.606397   -0.692168   -0.302669
      5          7           0        1.767576   -0.024614    0.162728
      6          1           0       -2.678141    0.000055    0.215587
      7          1           0       -1.852717   -1.665161    0.118295
      8          1           0        0.527759    1.493855   -0.026711
      9          1           0        0.540548   -1.663922   -0.022761
     10          1           0        2.535669   -0.229946   -0.465000
     11          1           0        2.026831   -0.306960    1.106827
 ---------------------------------------------------------------------

 SCF Done:  E(RHF) =  -263.051861859     A.U. after    8 cycles

 The electronic state is 1-A.
 Alpha  occ. eigenvalues --  -20.57422 -15.60873 -15.60587 -11.32495 -11.18503
 Alpha  occ. eigenvalues --   -1.41402  -1.29783  -1.09350  -0.97105  -0.78850
 Alpha  occ. eigenvalues --   -0.74499  -0.71970  -0.68960  -0.60479  -0.58865
 Alpha  occ. eigenvalues --   -0.55582  -0.53689  -0.46174  -0.45487  -0.31065
 Alpha virt. eigenvalues --    0.03341   0.04529   0.05848   0.06040   0.07333
 Alpha virt. eigenvalues --    0.07795   0.08491   0.09945   0.10151   0.10949
 Alpha virt. eigenvalues --    0.11817   0.12423   0.15750   0.16708   0.17310

 Mulliken charges:
               1
     1  C   -0.507392
     2  C    0.352861
     3  O   -0.570904
     4  N   -0.356497
     5  N   -0.636862
     6  H    0.203208
     7  H    0.151237
     8  H    0.416352
     9  H    0.307128
    10  H    0.337068
    11  H    0.303801
 Sum of Mulliken charges =  -0.00000

 Dipole moment (field-independent basis, Debye):
    X=              3.5607    Y=             -1.9908    Z=              0.9269  Tot=              4.1834
 Quadrupole moment (field-independent basis, Debye-Ang):
   XX=            -26.3152   YY=            -29.8142   ZZ=            -32.7116
   XY=             -0.3747   XZ=              0.8788   YZ=             -0.9672

 Normal termination of Gaussian 09 at Tue Aug 30 11:59:10 2022.
