 Gaussian 09, Revision E.01,
 Gaussian 09:  ES64L-G09RevE.01 30-Nov-2015

 -----
 #P G4
 -----

 --------
 Frag_741
 --------
 Symbolic Z-matrix:
 Charge =  0 Multiplicity = 1

 SCF Done:  E(RB3LYP) =  -228.455911670     A.U. after   17 cycles
 SCF Done:  E(RB3LYP) =  -228.508803972     A.U. after   14 cycles
 SCF Done:  E(RB3LYP) =  -228.497177815     A.U. after   15 cycles
 SCF Done:  E(RB3LYP) =  -228.531623332     A.U. after   12 cycles
 SCF Done:  E(RB3LYP) =  -228.533299745     A.U. after   11 cycles
 SCF Done:  E(RB3LYP) =  -228.533763191     A.U. after   11 cycles
 SCF Done:  E(RB3LYP) =  -228.533854544     A.U. after   11 cycles
 SCF Done:  E(RB3LYP) =  -228.533922154     A.U. after   10 cycles
 SCF Done:  E(RB3LYP) =  -228.533943628     A.U. after   11 cycles
 SCF Done:  E(RB3LYP) =  -228.533944713     A.U. after    9 cycles
 SCF Done:  E(RB3LYP) =  -228.533949174     A.U. after    8 cycles
 SCF Done:  E(RB3LYP) =  -228.533949555     A.U. after    7 cycles
 Optimization completed.
    -- Stationary point found.
 Normal termination of Gaussian 09 at Tue Aug 30 11:31:18 2022.

 ----------------------------------------------------------
 #P Geom=AllCheck Guess=TCheck SCRF=Check B3LYP/GTBas3 Freq
 ----------------------------------------------------------

 Structure from the checkpoint file:  "G4.Frag_741.chk"
 --------
 Frag_741
 --------
 Charge =  0 Multiplicity = 1

 SCF Done:  E(RB3LYP) =  -228.533949555     A.U. after    1 cycles

  Exact polarizability:  74.965   7.519  50.995   0.354   0.126  34.011
 Approx polarizability: 113.749  13.669  72.348  -1.649   1.189  51.691

                      1                      2                      3
                      A                      A                      A
 Frequencies --    119.8247               193.9491               246.1924
 Red. masses --      2.5188                 1.1607                 1.0734
 Frc consts  --      0.0213                 0.0257                 0.0383
 IR Inten    --     28.8413                 9.1073                 0.9808

                      4                      5                      6
                      A                      A                      A
 Frequencies --    320.9981               436.4192               492.8890
 Red. masses --      2.5427                 2.1906                 2.4458
 Frc consts  --      0.1544                 0.2458                 0.3501
 IR Inten    --     18.4642                 2.2894                 6.5760

                      7                      8                      9
                      A                      A                      A
 Frequencies --    543.2193               665.1887               745.5861
 Red. masses --      2.2985                 1.2155                 4.6655
 Frc consts  --      0.3996                 0.3169                 1.5281
 IR Inten    --     12.8078                11.6124                21.0958

                     10                     11                     12
                      A                      A                      A
 Frequencies --    781.3290               853.0344               994.1305
 Red. masses --      1.4279                 3.3671                 1.7048
 Frc consts  --      0.5136                 1.4436                 0.9927
 IR Inten    --     47.0941                 2.7315                30.0039

                     13                     14                     15
                      A                      A                      A
 Frequencies --   1000.6600              1044.2916              1054.0593
 Red. masses --      1.4295                 1.2488                 1.5126
 Frc consts  --      0.8434                 0.8024                 0.9902
 IR Inten    --      1.4933                27.2883                10.0864

                     16                     17                     18
                      A                      A                      A
 Frequencies --   1132.7616              1333.5844              1393.6307
 Red. masses --      1.5258                 2.8559                 1.3584
 Frc consts  --      1.1535                 2.9925                 1.5544
 IR Inten    --     22.3749                78.3007                22.1906

                     19                     20                     21
                      A                      A                      A
 Frequencies --   1427.7051              1469.7796              1488.6310
 Red. masses --      1.2191                 1.1621                 1.0482
 Frc consts  --      1.4641                 1.4790                 1.3686
 IR Inten    --      5.8303                23.1381                 5.6098

                     22                     23                     24
                      A                      A                      A
 Frequencies --   1498.4790              1624.4073              1650.7054
 Red. masses --      1.0843                 1.0631                 1.6532
 Frc consts  --      1.4344                 1.6528                 2.6541
 IR Inten    --      3.8010                46.1063               153.5235

                     25                     26                     27
                      A                      A                      A
 Frequencies --   1662.0098              2978.5436              3017.6088
 Red. masses --      1.7858                 1.0446                 1.0974
 Frc consts  --      2.9064                 5.4604                 5.8877
 IR Inten    --     28.3771                47.9356                39.5436

                     28                     29                     30
                      A                      A                      A
 Frequencies --   3129.8745              3153.5624              3159.5237
 Red. masses --      1.0910                 1.0642                 1.0580
 Frc consts  --      6.2972                 6.2358                 6.2227
 IR Inten    --      6.8306               159.7145                 4.2731

                     31                     32                     33
                      A                      A                      A
 Frequencies --   3245.9496              3247.6924              3519.9641
 Red. masses --      1.1134                 1.0649                 1.0791
 Frc consts  --      6.9118                 6.6177                 7.8774
 IR Inten    --     21.0702                27.0222                60.2959

 - Thermochemistry -
 -------------------
 Temperature   298.150 Kelvin.  Pressure   1.00000 Atm.
 Atom     1 has atomic number  6 and mass  12.00000

 Molecular mass:    72.06875 amu.
 Principal axes and moments of inertia in atomic units:
                           1         2         3
     Eigenvalues --   211.30938 439.74398 620.62871
           X            0.99987   0.01555   0.00464
           Y           -0.01550   0.99982  -0.01083
           Z           -0.00480   0.01076   0.99993
 This molecule is an asymmetric top.
 Rotational symmetry number  1.
 Rotational temperatures (Kelvin)      0.40989     0.19696     0.13956
 Rotational constants (GHZ):           8.54075     4.10407     2.90792
 Zero-point vibrational energy     296830.5 (Joules/Mol)
                                   70.94419 (Kcal/Mol)
 Warning -- explicit consideration of   7 degrees of freedom as
           vibrations may cause significant error
 Vibrational temperatures:    172.40   279.05   354.22   461.84   627.91
          (Kelvin)            709.16   781.57   957.06  1072.73  1124.16
                             1227.32  1430.33  1439.72  1502.50  1516.55
                             1629.79  1918.73  2005.12  2054.15  2114.68
                             2141.81  2155.97  2337.16  2374.99  2391.26
                             4285.45  4341.66  4503.19  4537.27  4545.84
                             4670.19  4672.70  5064.44

 Zero-point correction=                           0.113057 (Hartree/Particle)
 Thermal correction to Energy=                    0.119319
 Thermal correction to Enthalpy=                  0.120263
 Thermal correction to Gibbs Free Energy=         0.084040
 Sum of electronic and zero-point Energies=           -228.420893
 Sum of electronic and thermal Energies=              -228.414631
 Sum of electronic and thermal Enthalpies=            -228.413687
 Sum of electronic and thermal Free Energies=         -228.449910

                     E (Thermal)             CV                S
                      KCal/Mol        Cal/Mol-Kelvin    Cal/Mol-Kelvin
 Total                   74.874             22.222             76.238
 Electronic               0.000              0.000              0.000
 Translational            0.889              2.981             38.742
 Rotational               0.889              2.981             25.559
 Vibrational             73.096             16.260             11.938
 Vibration     1          0.609              1.933              3.103
 Vibration     2          0.635              1.848              2.190
 Vibration     3          0.661              1.769              1.758
 Vibration     4          0.706              1.633              1.305
 Vibration     5          0.797              1.391              0.838
 Vibration     6          0.849              1.266              0.676
 Vibration     7          0.898              1.155              0.558

 Optimization completed.
    -- Stationary point found.
 Normal termination of Gaussian 09 at Tue Aug 30 11:31:41 2022.

 -----------------------------------------------------------------
 #P Geom=AllCheck Guess=TCheck SCRF=Check CCSD(T,E4T,FrzG4)/GTBas1
 -----------------------------------------------------------------

 Structure from the checkpoint file:  "G4.Frag_741.chk"
 --------
 Frag_741
 --------
 Charge =  0 Multiplicity = 1

 SCF Done:  E(RHF) =  -227.014114570     A.U. after   13 cycles
 E2 =    -0.7187776143D+00 EUMP2 =    -0.22773289218397D+03
 CCSD(T)
 CCSD(T)= -0.22780723434D+03
 Normal termination of Gaussian 09 at Tue Aug 30 11:32:45 2022.

 ---------------------------------------------------------
 #P Geom=AllCheck Guess=TCheck SCRF=Check MP4=FrzG4/GTBas2
 ---------------------------------------------------------

 Structure from the checkpoint file:  "G4.Frag_741.chk"
 --------
 Frag_741
 --------
 Charge =  0 Multiplicity = 1

 SCF Done:  E(RHF) =  -227.026256380     A.U. after   14 cycles
 E2 =    -0.7300810213D+00 EUMP2 =    -0.22775633740106D+03
 Normal termination of Gaussian 09 at Tue Aug 30 11:33:02 2022.

 ---------------------------------------------------------
 #P Geom=AllCheck Guess=TCheck SCRF=Check MP4=FrzG4/GTBas3
 ---------------------------------------------------------

 Structure from the checkpoint file:  "G4.Frag_741.chk"
 --------
 Frag_741
 --------
 Charge =  0 Multiplicity = 1

 SCF Done:  E(RHF) =  -227.047586826     A.U. after   12 cycles
 E2 =    -0.8797776536D+00 EUMP2 =    -0.22792736447917D+03
 Normal termination of Gaussian 09 at Tue Aug 30 11:34:34 2022.

 -----------------------------------------------------------
 #P Geom=AllCheck Guess=TCheck SCRF=Check MP2=Full/GTLargeXP
 -----------------------------------------------------------

 Structure from the checkpoint file:  "G4.Frag_741.chk"
 --------
 Frag_741
 --------
 Charge =  0 Multiplicity = 1

 SCF Done:  E(RHF) =  -227.108751882     A.U. after   12 cycles
 E2 =    -0.1153896207D+01 EUMP2 =    -0.22826264808916D+03
 Normal termination of Gaussian 09 at Tue Aug 30 11:35:36 2022.
 SCF Done:  E(RHF) =  -227.126618690     A.U. after    9 cycles
 Normal termination of Gaussian 09 at Tue Aug 30 11:36:53 2022.

                         Standard orientation:
 ---------------------------------------------------------------------
 Center     Atomic      Atomic             Coordinates (Angstroms)
 Number     Number       Type             X           Y           Z
 ---------------------------------------------------------------------
      1          6           0       -1.757032   -0.727638    0.110974
      2          6           0       -0.555332   -0.126361   -0.028245
      3          6           0       -0.492856    1.395004   -0.044147
      4          7           0        0.585630   -0.876072   -0.246560
      5          7           0        1.769508   -0.109210    0.114051
      6          1           0       -2.674859   -0.153691    0.106514
      7          1           0       -1.834019   -1.807972    0.142597
      8          1           0       -0.010522    1.778789   -0.956989
      9          1           0        0.052798    1.815982    0.813647
     10          1           0       -1.497710    1.817701   -0.007981
     11          1           0        2.558157   -0.657990   -0.223740
     12          1           0        1.914043    0.027682    1.131975
     13          1           0        1.837465    0.830447   -0.309957
 ---------------------------------------------------------------------

 SCF Done:  E(RHF) =  -227.130460995     A.U. after    9 cycles

 The electronic state is 1-A.
 Alpha  occ. eigenvalues --  -15.70160 -15.51331 -11.23935 -11.22300 -11.15674
 Alpha  occ. eigenvalues --   -1.32678  -1.10514  -0.97404  -0.90423  -0.77378
 Alpha  occ. eigenvalues --   -0.75228  -0.69634  -0.62943  -0.57124  -0.56463
 Alpha  occ. eigenvalues --   -0.52851  -0.48950  -0.42219  -0.39195  -0.25543
 Alpha virt. eigenvalues --    0.01844   0.04055   0.05360   0.05625   0.06860
 Alpha virt. eigenvalues --    0.07553   0.07717   0.08636   0.09214   0.10158
 Alpha virt. eigenvalues --    0.10972   0.11919   0.12654   0.14167   0.15072

 Mulliken charges:
               1
     1  C   -0.548158
     2  C    0.228199
     3  C   -0.557267
     4  N   -0.562216
     5  N   -0.469881
     6  H    0.153221
     7  H    0.183276
     8  H    0.161980
     9  H    0.157584
    10  H    0.192778
    11  H    0.368773
    12  H    0.341764
    13  H    0.349949
 Sum of Mulliken charges =  -0.00000

 Dipole moment (field-independent basis, Debye):
    X=              5.5280    Y=              3.4824    Z=              1.0541  Tot=              6.6179
 Quadrupole moment (field-independent basis, Debye-Ang):
   XX=            -22.2492   YY=            -35.1856   ZZ=            -34.4935
   XY=              0.0832   XZ=              1.8134   YZ=             -1.0045

 Normal termination of Gaussian 09 at Tue Aug 30 11:42:01 2022.
