 Gaussian 09, Revision E.01,
 Gaussian 09:  ES64L-G09RevE.01 30-Nov-2015

 -----
 #P G4
 -----

 ---------
 Frag_1153
 ---------
 Symbolic Z-matrix:
 Charge =  0 Multiplicity = 1

 SCF Done:  E(RB3LYP) =  -220.047928878     A.U. after   12 cycles
 SCF Done:  E(RB3LYP) =  -220.073233405     A.U. after   12 cycles
 SCF Done:  E(RB3LYP) =  -220.077053348     A.U. after   11 cycles
 SCF Done:  E(RB3LYP) =  -220.078787942     A.U. after   10 cycles
 SCF Done:  E(RB3LYP) =  -220.079566796     A.U. after   10 cycles
 SCF Done:  E(RB3LYP) =  -220.080046045     A.U. after   12 cycles
 SCF Done:  E(RB3LYP) =  -220.080086218     A.U. after    9 cycles
 SCF Done:  E(RB3LYP) =  -220.083722232     A.U. after   15 cycles
 SCF Done:  E(RB3LYP) =  -220.084269398     A.U. after   14 cycles
 SCF Done:  E(RB3LYP) =  -220.090492985     A.U. after   15 cycles
 SCF Done:  E(RB3LYP) =  -220.091894831     A.U. after    9 cycles
 SCF Done:  E(RB3LYP) =  -220.091895526     A.U. after    9 cycles
 SCF Done:  E(RB3LYP) =  -220.091895466     A.U. after    9 cycles
 Optimization completed.
    -- Stationary point found.
 Normal termination of Gaussian 09 at Fri Aug 26 11:48:18 2022.

 ----------------------------------------------------------
 #P Geom=AllCheck Guess=TCheck SCRF=Check B3LYP/GTBas3 Freq
 ----------------------------------------------------------

 Structure from the checkpoint file:  "G4.Frag_1153.chk"
 ---------
 Frag_1153
 ---------
 Charge =  0 Multiplicity = 1

 SCF Done:  E(RB3LYP) =  -220.091895466     A.U. after    1 cycles

  Exact polarizability:  48.295   0.003  20.920  -1.431  -0.001  17.610
 Approx polarizability:  71.204   0.001  38.819  -0.050   0.001  28.347

                      1                      2                      3
                      A                      A                      A
 Frequencies --    142.6673               453.9500               584.7702
 Red. masses --      9.2194                 4.4654                 2.7663
 Frc consts  --      0.1106                 0.5422                 0.5573
 IR Inten    --      1.5190                24.9619                21.4813

                      4                      5                      6
                      A                      A                      A
 Frequencies --    713.6967              1027.5497              1038.9897
 Red. masses --      6.9248                 1.2741                 1.3731
 Frc consts  --      2.0782                 0.7926                 0.8733
 IR Inten    --     17.7220                23.5660                33.7959

                      7                      8                      9
                      A                      A                      A
 Frequencies --   1451.5143              1462.1197              1616.9619
 Red. masses --      1.2725                 1.2170                10.9525
 Frc consts  --      1.5796                 1.5329                16.8718
 IR Inten    --     88.6173                38.6846                 3.3785

                     10                     11                     12
                      A                      A                      A
 Frequencies --   1645.4657              3317.9405              3318.0728
 Red. masses --      8.8832                 1.0749                 1.0742
 Frc consts  --     14.1709                 6.9719                 6.9682
 IR Inten    --     22.8171                 3.2598                 0.6062

 - Thermochemistry -
 -------------------
 Temperature   298.150 Kelvin.  Pressure   1.00000 Atm.
 Atom     1 has atomic number  7 and mass  14.00307

 Molecular mass:    58.02795 amu.
 Principal axes and moments of inertia in atomic units:
                           1         2         3
     Eigenvalues --    48.99082 286.62539 310.34733
           X            0.99986   0.00003  -0.01679
           Y           -0.00003   1.00000  -0.00009
           Z            0.01679   0.00009   0.99986
 This molecule is an asymmetric top.
 Rotational symmetry number  1.
 Rotational temperatures (Kelvin)      1.76796     0.30218     0.27909
 Rotational constants (GHZ):          36.83835     6.29652     5.81523
 Zero-point vibrational energy     100329.0 (Joules/Mol)
                                   23.97921 (Kcal/Mol)
 Warning -- explicit consideration of   3 degrees of freedom as
           vibrations may cause significant error
 Vibrational temperatures:    205.27   653.13   841.35  1026.85  1478.41
          (Kelvin)           1494.87  2088.40  2103.66  2326.44  2367.46
                             4773.77  4773.96

 Zero-point correction=                           0.038213 (Hartree/Particle)
 Thermal correction to Energy=                    0.042321
 Thermal correction to Enthalpy=                  0.043265
 Thermal correction to Gibbs Free Energy=         0.012090
 Sum of electronic and zero-point Energies=           -220.053682
 Sum of electronic and thermal Energies=              -220.049575
 Sum of electronic and thermal Enthalpies=            -220.048631
 Sum of electronic and thermal Free Energies=         -220.079805

                     E (Thermal)             CV                S
                      KCal/Mol        Cal/Mol-Kelvin    Cal/Mol-Kelvin
 Total                   26.557             12.045             65.612
 Electronic               0.000              0.000              0.000
 Translational            0.889              2.981             38.096
 Rotational               0.889              2.981             22.993
 Vibrational             24.779              6.083              4.524
 Vibration     1          0.616              1.911              2.768
 Vibration     2          0.812              1.352              0.784
 Vibration     3          0.942              1.064              0.477

 Optimization completed.
    -- Stationary point found.
 Normal termination of Gaussian 09 at Fri Aug 26 11:48:29 2022.

 -----------------------------------------------------------------
 #P Geom=AllCheck Guess=TCheck SCRF=Check CCSD(T,E4T,FrzG4)/GTBas1
 -----------------------------------------------------------------

 Structure from the checkpoint file:  "G4.Frag_1153.chk"
 ---------
 Frag_1153
 ---------
 Charge =  0 Multiplicity = 1

 SCF Done:  E(RHF) =  -218.819257042     A.U. after   15 cycles
 E2 =    -0.6437594431D+00 EUMP2 =    -0.21946301648495D+03
 CCSD(T)
 CCSD(T)= -0.21951072514D+03
 9277\CCSD=-219.4846955\CCSD(T)=-219.5107251\RMSD=2.707e-09\PG=C01 [X(H
 Normal termination of Gaussian 09 at Fri Aug 26 11:48:47 2022.

 ---------------------------------------------------------
 #P Geom=AllCheck Guess=TCheck SCRF=Check MP4=FrzG4/GTBas2
 ---------------------------------------------------------

 Structure from the checkpoint file:  "G4.Frag_1153.chk"
 ---------
 Frag_1153
 ---------
 Charge =  0 Multiplicity = 1

 SCF Done:  E(RHF) =  -218.828898509     A.U. after   14 cycles
 E2 =    -0.6537133988D+00 EUMP2 =    -0.21948261190779D+03
 Normal termination of Gaussian 09 at Fri Aug 26 11:48:53 2022.

 ---------------------------------------------------------
 #P Geom=AllCheck Guess=TCheck SCRF=Check MP4=FrzG4/GTBas3
 ---------------------------------------------------------

 Structure from the checkpoint file:  "G4.Frag_1153.chk"
 ---------
 Frag_1153
 ---------
 Charge =  0 Multiplicity = 1

 SCF Done:  E(RHF) =  -218.843999991     A.U. after   13 cycles
 E2 =    -0.7548244955D+00 EUMP2 =    -0.21959882448693D+03
 Normal termination of Gaussian 09 at Fri Aug 26 11:49:11 2022.

 -----------------------------------------------------------
 #P Geom=AllCheck Guess=TCheck SCRF=Check MP2=Full/GTLargeXP
 -----------------------------------------------------------

 Structure from the checkpoint file:  "G4.Frag_1153.chk"
 ---------
 Frag_1153
 ---------
 Charge =  0 Multiplicity = 1

 SCF Done:  E(RHF) =  -218.903954115     A.U. after   13 cycles
 E2 =    -0.9808943438D+00 EUMP2 =    -0.21988484845828D+03
 Normal termination of Gaussian 09 at Fri Aug 26 11:49:23 2022.
 SCF Done:  E(RHF) =  -218.921809578     A.U. after   10 cycles
 Normal termination of Gaussian 09 at Fri Aug 26 11:49:38 2022.

                         Standard orientation:
 ---------------------------------------------------------------------
 Center     Atomic      Atomic             Coordinates (Angstroms)
 Number     Number       Type             X           Y           Z
 ---------------------------------------------------------------------
      1          7           0        1.397007   -0.404874    0.194942
      2          7           0        0.635761    0.441620   -0.289530
      3          7           0       -0.635798    0.441668    0.289581
      4          7           0       -1.397036   -0.404663   -0.195158
      5          1           0        2.306978   -0.257605   -0.267667
      6          1           0       -2.306508   -0.258654    0.268822
 ---------------------------------------------------------------------

 SCF Done:  E(RHF) =  -218.925087409     A.U. after    7 cycles

 The electronic state is 1-A.
 Alpha  occ. eigenvalues --  -15.68480 -15.68418 -15.64573 -15.64571  -1.45866
 Alpha  occ. eigenvalues --   -1.33697  -1.05070  -0.82408  -0.72927  -0.70069
 Alpha  occ. eigenvalues --   -0.67407  -0.53892  -0.52014  -0.46163  -0.41347
 Alpha virt. eigenvalues --    0.05362   0.05368   0.06842   0.06937   0.08662
 Alpha virt. eigenvalues --    0.09333   0.09971   0.11218   0.11225   0.11912
 Alpha virt. eigenvalues --    0.14311   0.14643   0.15061   0.15964   0.18943

 Mulliken charges:
               1
     1  N   -0.350215
     2  N    0.022067
     3  N    0.022151
     4  N   -0.350187
     5  H    0.328103
     6  H    0.328080
 Sum of Mulliken charges =  -0.00000

 Dipole moment (field-independent basis, Debye):
    X=             -0.0000    Y=              0.1059    Z=              0.0015  Tot=              0.1059
 Quadrupole moment (field-independent basis, Debye-Ang):
   XX=            -13.8423   YY=            -25.8984   ZZ=            -24.8432
   XY=              0.0033   XZ=             -2.4523   YZ=             -0.0010

 Normal termination of Gaussian 09 at Fri Aug 26 11:50:53 2022.
