 Gaussian 09, Revision E.01,
 Gaussian 09:  ES64L-G09RevE.01 30-Nov-2015

 -----
 #P G4
 -----

 --------
 Frag_647
 --------
 Symbolic Z-matrix:
 Charge =  0 Multiplicity = 1

 SCF Done:  E(RB3LYP) =  -379.111454754     A.U. after   14 cycles
 SCF Done:  E(RB3LYP) =  -379.128169093     A.U. after   12 cycles
 SCF Done:  E(RB3LYP) =  -379.130036168     A.U. after   12 cycles
 SCF Done:  E(RB3LYP) =  -379.132052766     A.U. after   13 cycles
 SCF Done:  E(RB3LYP) =  -379.134821505     A.U. after   13 cycles
 SCF Done:  E(RB3LYP) =  -379.137115749     A.U. after   12 cycles
 SCF Done:  E(RB3LYP) =  -379.137915967     A.U. after   12 cycles
 SCF Done:  E(RB3LYP) =  -379.137890734     A.U. after   12 cycles
 SCF Done:  E(RB3LYP) =  -379.138257568     A.U. after   10 cycles
 SCF Done:  E(RB3LYP) =  -379.138458511     A.U. after   11 cycles
 SCF Done:  E(RB3LYP) =  -379.138562340     A.U. after    8 cycles
 SCF Done:  E(RB3LYP) =  -379.138562703     A.U. after    7 cycles
 SCF Done:  E(RB3LYP) =  -379.138562805     A.U. after    7 cycles
 Optimization completed.
    -- Stationary point found.
 Normal termination of Gaussian 09 at Fri Aug 26 02:45:14 2022.

 ----------------------------------------------------------
 #P Geom=AllCheck Guess=TCheck SCRF=Check B3LYP/GTBas3 Freq
 ----------------------------------------------------------

 Structure from the checkpoint file:  "G4.Frag_647.chk"
 --------
 Frag_647
 --------
 Charge =  0 Multiplicity = 1

 SCF Done:  E(RB3LYP) =  -379.138562805     A.U. after    1 cycles

  Exact polarizability:  57.660   0.074  56.825  -0.068   0.116  44.987
 Approx polarizability:  78.474   2.464  91.545   1.338  -1.449  62.438

                      1                      2                      3
                      A                      A                      A
 Frequencies --     77.5003               225.8214               232.1016
 Red. masses --      6.5418                 1.2689                 1.9961
 Frc consts  --      0.0232                 0.0381                 0.0634
 IR Inten    --      0.9858                 0.9623                 0.8438

                      4                      5                      6
                      A                      A                      A
 Frequencies --    293.1909               307.2648               364.4471
 Red. masses --      2.0452                 1.4427                 2.4293
 Frc consts  --      0.1036                 0.0803                 0.1901
 IR Inten    --      1.3822                43.5590                23.5004

                      7                      8                      9
                      A                      A                      A
 Frequencies --    387.9245               405.5070               464.4991
 Red. masses --      3.6224                 1.6763                 2.1652
 Frc consts  --      0.3212                 0.1624                 0.2752
 IR Inten    --     12.0476                72.1087               144.0131

                     10                     11                     12
                      A                      A                      A
 Frequencies --    516.1164               529.3316               599.0392
 Red. masses --      1.9210                 1.4716                 3.3198
 Frc consts  --      0.3015                 0.2429                 0.7019
 IR Inten    --      3.3565                40.2052                15.9651

                     13                     14                     15
                      A                      A                      A
 Frequencies --    658.3160               723.4096               775.9366
 Red. masses --      1.1494                 3.2153                 4.0253
 Frc consts  --      0.2935                 0.9914                 1.4279
 IR Inten    --     10.5222                15.0850                 7.0359

                     16                     17                     18
                      A                      A                      A
 Frequencies --    879.9243               930.7627               990.2359
 Red. masses --      2.3261                 1.8116                 1.6824
 Frc consts  --      1.0611                 0.9247                 0.9720
 IR Inten    --     80.1480                32.0536                 5.9675

                     19                     20                     21
                      A                      A                      A
 Frequencies --   1032.4296              1109.9345              1174.4582
 Red. masses --      1.5790                 1.9133                 2.4591
 Frc consts  --      0.9916                 1.3887                 1.9985
 IR Inten    --     39.9834                 1.0924                18.6368

                     22                     23                     24
                      A                      A                      A
 Frequencies --   1198.9472              1301.8094              1347.4994
 Red. masses --      2.7847                 1.7017                 2.2121
 Frc consts  --      2.3584                 1.6991                 2.3666
 IR Inten    --    138.8022                30.5550               164.8039

                     25                     26                     27
                      A                      A                      A
 Frequencies --   1397.9313              1445.4546              1486.4378
 Red. masses --      1.2749                 1.5029                 1.0615
 Frc consts  --      1.4679                 1.8500                 1.3819
 IR Inten    --     11.2763                33.4649                 5.5305

                     28                     29                     30
                      A                      A                      A
 Frequencies --   1499.9489              1591.1762              1666.2130
 Red. masses --      1.2105                 1.3027                 1.0998
 Frc consts  --      1.6046                 1.9433                 1.7990
 IR Inten    --      7.4983               126.3222                33.4746

                     31                     32                     33
                      A                      A                      A
 Frequencies --   1789.1591              3043.5779              3119.5625
 Red. masses --      9.6415                 1.0349                 1.1011
 Frc consts  --     18.1841                 5.6484                 6.3134
 IR Inten    --    265.6207                12.4892                17.3218

                     34                     35                     36
                      A                      A                      A
 Frequencies --   3135.7442              3484.6690              3560.5911
 Red. masses --      1.1028                 1.0492                 1.0920
 Frc consts  --      6.3891                 7.5062                 8.1565
 IR Inten    --     14.6536                 0.8533                 2.4138

                     37                     38                     39
                      A                      A                      A
 Frequencies --   3581.9015              3659.0845              3721.1918
 Red. masses --      1.0436                 1.0644                 1.1049
 Frc consts  --      7.8887                 8.3963                 9.0148
 IR Inten    --     41.0835                92.3114                69.2467

 - Thermochemistry -
 -------------------
 Temperature   298.150 Kelvin.  Pressure   1.00000 Atm.
 Atom     1 has atomic number  6 and mass  12.00000

 Molecular mass:   104.05858 amu.
 Principal axes and moments of inertia in atomic units:
                           1         2         3
     Eigenvalues --   523.34153 731.72377 882.52883
           X            0.99931  -0.02273  -0.02941
           Y            0.02344   0.99943   0.02418
           Z            0.02884  -0.02485   0.99927
 This molecule is an asymmetric top.
 Rotational symmetry number  1.
 Warning -- assumption of classical behavior for rotation
           may cause significant error
 Rotational temperatures (Kelvin)      0.16550     0.11837     0.09814
 Rotational constants (GHZ):           3.44850     2.46642     2.04497
 Zero-point vibrational energy     327232.8 (Joules/Mol)
                                   78.21051 (Kcal/Mol)
 Warning -- explicit consideration of  12 degrees of freedom as
           vibrations may cause significant error
 Vibrational temperatures:    111.51   324.91   333.94   421.84   442.08
          (Kelvin)            524.36   558.14   583.43   668.31   742.58
                              761.59   861.88   947.17  1040.82  1116.40
                             1266.01  1339.16  1424.73  1485.43  1596.95
                             1689.78  1725.02  1873.01  1938.75  2011.31
                             2079.68  2138.65  2158.09  2289.34  2397.31
                             2574.20  4379.02  4488.35  4511.63  5013.66
                             5122.89  5153.55  5264.60  5353.96

 Zero-point correction=                           0.124636 (Hartree/Particle)
 Thermal correction to Energy=                    0.132527
 Thermal correction to Enthalpy=                  0.133472
 Thermal correction to Gibbs Free Energy=         0.093194
 Sum of electronic and zero-point Energies=           -379.013926
 Sum of electronic and thermal Energies=              -379.006035
 Sum of electronic and thermal Enthalpies=            -379.005091
 Sum of electronic and thermal Free Energies=         -379.045369

                     E (Thermal)             CV                S
                      KCal/Mol        Cal/Mol-Kelvin    Cal/Mol-Kelvin
 Total                   83.162             29.679             84.771
 Electronic               0.000              0.000              0.000
 Translational            0.889              2.981             39.837
 Rotational               0.889              2.981             27.316
 Vibrational             81.385             23.718             17.618
 Vibration     1          0.599              1.964              3.953
 Vibration     2          0.650              1.802              1.912
 Vibration     3          0.653              1.792              1.863
 Vibration     4          0.688              1.686              1.455
 Vibration     5          0.697              1.660              1.377
 Vibration     6          0.738              1.545              1.103
 Vibration     7          0.756              1.496              1.008
 Vibration     8          0.770              1.458              0.943
 Vibration     9          0.822              1.329              0.753
 Vibration    10          0.871              1.214              0.619
 Vibration    11          0.884              1.185              0.589
 Vibration    12          0.957              1.034              0.451

 Optimization completed.
    -- Stationary point found.
 Normal termination of Gaussian 09 at Fri Aug 26 02:46:01 2022.

 -----------------------------------------------------------------
 #P Geom=AllCheck Guess=TCheck SCRF=Check CCSD(T,E4T,FrzG4)/GTBas1
 -----------------------------------------------------------------

 Structure from the checkpoint file:  "G4.Frag_647.chk"
 --------
 Frag_647
 --------
 Charge =  0 Multiplicity = 1

 SCF Done:  E(RHF) =  -376.899041588     A.U. after   13 cycles
 E2 =    -0.1072027045D+01 EUMP2 =    -0.37797106863291D+03
 CCSD(T)
 CCSD(T)= -0.37804850724D+03
 78.0153402\CCSD(T)=-378.0485072\RMSD=8.749e-09\PG=C01 [X(C3H8N2O2)]\\@
 Normal termination of Gaussian 09 at Fri Aug 26 02:49:57 2022.

 ---------------------------------------------------------
 #P Geom=AllCheck Guess=TCheck SCRF=Check MP4=FrzG4/GTBas2
 ---------------------------------------------------------

 Structure from the checkpoint file:  "G4.Frag_647.chk"
 --------
 Frag_647
 --------
 Charge =  0 Multiplicity = 1

 SCF Done:  E(RHF) =  -376.912387473     A.U. after   12 cycles
 E2 =    -0.1090915357D+01 EUMP2 =    -0.37800330282962D+03
 Normal termination of Gaussian 09 at Fri Aug 26 02:51:09 2022.

 ---------------------------------------------------------
 #P Geom=AllCheck Guess=TCheck SCRF=Check MP4=FrzG4/GTBas3
 ---------------------------------------------------------

 Structure from the checkpoint file:  "G4.Frag_647.chk"
 --------
 Frag_647
 --------
 Charge =  0 Multiplicity = 1

 SCF Done:  E(RHF) =  -376.949552164     A.U. after   12 cycles
 E2 =    -0.1314364585D+01 EUMP2 =    -0.37826391674854D+03
 Normal termination of Gaussian 09 at Fri Aug 26 02:58:45 2022.

 -----------------------------------------------------------
 #P Geom=AllCheck Guess=TCheck SCRF=Check MP2=Full/GTLargeXP
 -----------------------------------------------------------

 Structure from the checkpoint file:  "G4.Frag_647.chk"
 --------
 Frag_647
 --------
 Charge =  0 Multiplicity = 1

 SCF Done:  E(RHF) =  -377.052471673     A.U. after   13 cycles
 E2 =    -0.1715705359D+01 EUMP2 =    -0.37876817703205D+03
 Normal termination of Gaussian 09 at Fri Aug 26 03:02:22 2022.
 SCF Done:  E(RHF) =  -377.082000104     A.U. after    9 cycles
 Normal termination of Gaussian 09 at Fri Aug 26 03:05:25 2022.

                         Standard orientation:
 ---------------------------------------------------------------------
 Center     Atomic      Atomic             Coordinates (Angstroms)
 Number     Number       Type             X           Y           Z
 ---------------------------------------------------------------------
      1          6           0       -1.136972   -0.131235    1.380025
      2          6           0       -0.592218    0.015842   -0.049693
      3          7           0       -0.973315   -1.151749   -0.830548
      4          8           0       -1.059241    1.217066   -0.625031
      5          6           0        0.955767    0.114290    0.005661
      6          7           0        1.602620   -1.067510    0.091266
      7          8           0        1.496284    1.209654    0.009019
      8          1           0       -0.789503    0.702977    1.993699
      9          1           0       -0.817730   -1.070611    1.838512
     10          1           0       -2.230645   -0.097338    1.348748
     11          1           0       -1.969496   -1.319148   -0.719608
     12          1           0       -0.828980   -0.940433   -1.815166
     13          1           0       -0.314119    1.836415   -0.540778
     14          1           0        1.080260   -1.907013   -0.104751
     15          1           0        2.609276   -1.077186    0.086461
 ---------------------------------------------------------------------

 SCF Done:  E(RHF) =  -377.088366469     A.U. after    8 cycles

 The electronic state is 1-A.
 Alpha  occ. eigenvalues --  -20.55240 -20.53280 -15.58980 -15.56269 -11.35803
 Alpha  occ. eigenvalues --  -11.33300 -11.22884  -1.40902  -1.36212  -1.23222
 Alpha  occ. eigenvalues --   -1.18691  -1.00732  -0.88952  -0.78343  -0.75723
 Alpha  occ. eigenvalues --   -0.70375  -0.68212  -0.66299  -0.63131  -0.59752
 Alpha  occ. eigenvalues --   -0.57801  -0.54960  -0.54017  -0.52633  -0.47231
 Alpha  occ. eigenvalues --   -0.45694  -0.42673  -0.41645
 Alpha virt. eigenvalues --    0.03225   0.04137   0.04673   0.05427   0.06843
 Alpha virt. eigenvalues --    0.07075   0.07212   0.07430   0.08222   0.09856
 Alpha virt. eigenvalues --    0.11408   0.11652   0.11846   0.12825   0.13329

 Mulliken charges:
               1
     1  C   -0.557519
     2  C    0.458155
     3  N   -0.744060
     4  O   -0.631157
     5  C    0.571276
     6  N   -0.741688
     7  O   -0.656892
     8  H    0.196274
     9  H    0.180779
    10  H    0.174984
    11  H    0.299054
    12  H    0.304761
    13  H    0.414362
    14  H    0.373728
    15  H    0.357940
 Sum of Mulliken charges =  -0.00000

 Dipole moment (field-independent basis, Debye):
    X=             -0.3464    Y=             -3.4375    Z=              0.0606  Tot=              3.4554
 Quadrupole moment (field-independent basis, Debye-Ang):
   XX=            -40.9197   YY=            -44.1634   ZZ=            -41.0830
   XY=             -3.1027   XZ=             -1.1049   YZ=              1.3832

 Normal termination of Gaussian 09 at Fri Aug 26 03:16:27 2022.
