 Gaussian 09, Revision E.01,
 Gaussian 09:  ES64L-G09RevE.01 30-Nov-2015

 -----
 #P G4
 -----

 --------
 Frag_751
 --------
 Symbolic Z-matrix:
 Charge =  0 Multiplicity = 1

 SCF Done:  E(RB3LYP) =  -209.163947663     A.U. after   13 cycles
 SCF Done:  E(RB3LYP) =  -209.178363191     A.U. after   12 cycles
 SCF Done:  E(RB3LYP) =  -209.178626191     A.U. after   10 cycles
 SCF Done:  E(RB3LYP) =  -209.178674780     A.U. after    9 cycles
 SCF Done:  E(RB3LYP) =  -209.178723103     A.U. after   10 cycles
 SCF Done:  E(RB3LYP) =  -209.178743506     A.U. after   10 cycles
 SCF Done:  E(RB3LYP) =  -209.178766341     A.U. after   10 cycles
 SCF Done:  E(RB3LYP) =  -209.178814895     A.U. after   11 cycles
 SCF Done:  E(RB3LYP) =  -209.178920420     A.U. after   11 cycles
 SCF Done:  E(RB3LYP) =  -209.178913539     A.U. after   11 cycles
 SCF Done:  E(RB3LYP) =  -209.178920195     A.U. after   11 cycles
 SCF Done:  E(RB3LYP) =  -209.178930151     A.U. after   10 cycles
 SCF Done:  E(RB3LYP) =  -209.178931876     A.U. after    9 cycles
 Optimization completed.
    -- Stationary point found.
 Normal termination of Gaussian 09 at Tue Aug 30 11:32:05 2022.

 ----------------------------------------------------------
 #P Geom=AllCheck Guess=TCheck SCRF=Check B3LYP/GTBas3 Freq
 ----------------------------------------------------------

 Structure from the checkpoint file:  "G4.Frag_751.chk"
 --------
 Frag_751
 --------
 Charge =  0 Multiplicity = 1

 SCF Done:  E(RB3LYP) =  -209.178931876     A.U. after    1 cycles

  Exact polarizability:  49.633  -1.543  33.058  -0.135  -0.352  18.989
 Approx polarizability:  75.860  -1.478  45.617  -1.116   0.500  27.919

                      1                      2                      3
                      A                      A                      A
 Frequencies --    198.9394               245.7621               326.6555
 Red. masses --      1.1379                 3.6554                 1.1057
 Frc consts  --      0.0265                 0.1301                 0.0695
 IR Inten    --    126.4857                25.1496                38.0659

                      4                      5                      6
                      A                      A                      A
 Frequencies --    509.8693               697.3491               717.0881
 Red. masses --      2.8651                 1.2671                 3.2929
 Frc consts  --      0.4388                 0.3631                 0.9976
 IR Inten    --     35.2758               179.0828                21.0205

                      7                      8                      9
                      A                      A                      A
 Frequencies --    781.7250               874.9748              1021.3417
 Red. masses --      1.5244                 1.1704                 3.5218
 Frc consts  --      0.5489                 0.5279                 2.1645
 IR Inten    --    118.9474                14.6351                 8.7060

                     10                     11                     12
                      A                      A                      A
 Frequencies --   1101.8004              1181.4066              1274.7946
 Red. masses --      1.7828                 1.2567                 1.4103
 Frc consts  --      1.2752                 1.0334                 1.3504
 IR Inten    --     76.5309                15.0366               109.3863

                     13                     14                     15
                      A                      A                      A
 Frequencies --   1318.7083              1435.4834              1644.2447
 Red. masses --      1.3700                 1.4136                 1.1236
 Frc consts  --      1.4037                 1.7162                 1.7897
 IR Inten    --      7.6637                25.0239                33.7807

                     16                     17                     18
                      A                      A                      A
 Frequencies --   1771.7311              3177.7017              3207.7750
 Red. masses --      5.4415                 1.0861                 1.0971
 Frc consts  --     10.0639                 6.4619                 6.6511
 IR Inten    --     29.6732                 4.8128                18.8892

                     19                     20                     21
                      A                      A                      A
 Frequencies --   3526.5676              3624.5105              3840.7909
 Red. masses --      1.0469                 1.0963                 1.0666
 Frc consts  --      7.6712                 8.4855                 9.2702
 IR Inten    --      4.0885                 8.4073                51.5694

 - Thermochemistry -
 -------------------
 Temperature   298.150 Kelvin.  Pressure   1.00000 Atm.
 Atom     1 has atomic number  7 and mass  14.00307

 Molecular mass:    59.03711 amu.
 Principal axes and moments of inertia in atomic units:
                           1         2         3
     Eigenvalues --    93.29302 304.07412 393.59320
           X            0.99976  -0.02150   0.00512
           Y            0.02162   0.99948  -0.02410
           Z           -0.00460   0.02420   0.99970
 This molecule is an asymmetric top.
 Rotational symmetry number  1.
 Rotational temperatures (Kelvin)      0.92841     0.28484     0.22006
 Rotational constants (GHZ):          19.34487     5.93520     4.58530
 Zero-point vibrational energy     194268.9 (Joules/Mol)
                                   46.43138 (Kcal/Mol)
 Warning -- explicit consideration of   4 degrees of freedom as
           vibrations may cause significant error
 Vibrational temperatures:    286.23   353.60   469.98   733.59  1003.33
          (Kelvin)           1031.73  1124.73  1258.89  1469.48  1585.24
                             1699.78  1834.14  1897.32  2065.34  2365.70
                             2549.12  4572.00  4615.27  5073.94  5214.86
                             5526.03

 Zero-point correction=                           0.073993 (Hartree/Particle)
 Thermal correction to Energy=                    0.078958
 Thermal correction to Enthalpy=                  0.079903
 Thermal correction to Gibbs Free Energy=         0.047054
 Sum of electronic and zero-point Energies=           -209.104939
 Sum of electronic and thermal Energies=              -209.099974
 Sum of electronic and thermal Enthalpies=            -209.099029
 Sum of electronic and thermal Free Energies=         -209.131878

                     E (Thermal)             CV                S
                      KCal/Mol        Cal/Mol-Kelvin    Cal/Mol-Kelvin
 Total                   49.547             16.588             69.135
 Electronic               0.000              0.000              0.000
 Translational            0.889              2.981             38.147
 Rotational               0.889              2.981             23.927
 Vibrational             47.770             10.626              7.060
 Vibration     1          0.637              1.841              2.143
 Vibration     2          0.660              1.770              1.761
 Vibration     3          0.710              1.622              1.277
 Vibration     4          0.865              1.228              0.634

 Optimization completed.
    -- Stationary point found.
 Normal termination of Gaussian 09 at Tue Aug 30 11:32:18 2022.

 -----------------------------------------------------------------
 #P Geom=AllCheck Guess=TCheck SCRF=Check CCSD(T,E4T,FrzG4)/GTBas1
 -----------------------------------------------------------------

 Structure from the checkpoint file:  "G4.Frag_751.chk"
 --------
 Frag_751
 --------
 Charge =  0 Multiplicity = 1

 SCF Done:  E(RHF) =  -207.909748287     A.U. after   13 cycles
 E2 =    -0.5955510800D+00 EUMP2 =    -0.20850529936722D+03
 CCSD(T)
 CCSD(T)= -0.20855561090D+03
 5371845\CCSD=-208.5375225\CCSD(T)=-208.5556109\RMSD=3.571e-09\PG=C01 [
 Normal termination of Gaussian 09 at Tue Aug 30 11:32:40 2022.

 ---------------------------------------------------------
 #P Geom=AllCheck Guess=TCheck SCRF=Check MP4=FrzG4/GTBas2
 ---------------------------------------------------------

 Structure from the checkpoint file:  "G4.Frag_751.chk"
 --------
 Frag_751
 --------
 Charge =  0 Multiplicity = 1

 SCF Done:  E(RHF) =  -207.920668792     A.U. after   13 cycles
 E2 =    -0.6060214002D+00 EUMP2 =    -0.20852669019239D+03
 Normal termination of Gaussian 09 at Tue Aug 30 11:32:47 2022.

 ---------------------------------------------------------
 #P Geom=AllCheck Guess=TCheck SCRF=Check MP4=FrzG4/GTBas3
 ---------------------------------------------------------

 Structure from the checkpoint file:  "G4.Frag_751.chk"
 --------
 Frag_751
 --------
 Charge =  0 Multiplicity = 1

 SCF Done:  E(RHF) =  -207.942464390     A.U. after   11 cycles
 E2 =    -0.7308892338D+00 EUMP2 =    -0.20867335362343D+03
 Normal termination of Gaussian 09 at Tue Aug 30 11:33:14 2022.

 -----------------------------------------------------------
 #P Geom=AllCheck Guess=TCheck SCRF=Check MP2=Full/GTLargeXP
 -----------------------------------------------------------

 Structure from the checkpoint file:  "G4.Frag_751.chk"
 --------
 Frag_751
 --------
 Charge =  0 Multiplicity = 1

 SCF Done:  E(RHF) =  -208.003145084     A.U. after   12 cycles
 E2 =    -0.9585685167D+00 EUMP2 =    -0.20896171360087D+03
 Normal termination of Gaussian 09 at Tue Aug 30 11:33:33 2022.
 SCF Done:  E(RHF) =  -208.020330850     A.U. after    9 cycles
 Normal termination of Gaussian 09 at Tue Aug 30 11:33:59 2022.

                         Standard orientation:
 ---------------------------------------------------------------------
 Center     Atomic      Atomic             Coordinates (Angstroms)
 Number     Number       Type             X           Y           Z
 ---------------------------------------------------------------------
      1          7           0        1.464680   -0.500776   -0.089484
      2          6           0        0.645869    0.633964    0.003700
      3          6           0       -0.687573    0.609430    0.011528
      4          8           0       -1.363396   -0.595861   -0.051567
      5          1           0        0.950276   -1.350020    0.110648
      6          1           0        2.291930   -0.446361    0.490492
      7          1           0        1.158241    1.588982   -0.016265
      8          1           0       -1.281260    1.516690   -0.020452
      9          1           0       -2.214550   -0.497335    0.383128
 ---------------------------------------------------------------------

 SCF Done:  E(RHF) =  -208.024070958     A.U. after    8 cycles

 The electronic state is 1-A.
 Alpha  occ. eigenvalues --  -20.57550 -15.55312 -11.26670 -11.25286  -1.38420
 Alpha  occ. eigenvalues --   -1.19719  -0.98734  -0.78606  -0.72836  -0.67664
 Alpha  occ. eigenvalues --   -0.62832  -0.59037  -0.55065  -0.51384  -0.47600
 Alpha  occ. eigenvalues --   -0.30516
 Alpha virt. eigenvalues --    0.03780   0.04439   0.05327   0.06739   0.07223
 Alpha virt. eigenvalues --    0.08284   0.08987   0.11651   0.11665   0.13246
 Alpha virt. eigenvalues --    0.14283   0.15291   0.16450   0.16890   0.19422

 Mulliken charges:
               1
     1  N   -0.665249
     2  C   -0.076359
     3  C   -0.066673
     4  O   -0.563258
     5  H    0.320373
     6  H    0.297856
     7  H    0.197499
     8  H    0.181002
     9  H    0.374810
 Sum of Mulliken charges =  -0.00000

 Dipole moment (field-independent basis, Debye):
    X=             -0.5939    Y=              0.7308    Z=              1.8436  Tot=              2.0702
 Quadrupole moment (field-independent basis, Debye-Ang):
   XX=            -17.9888   YY=            -23.1856   ZZ=            -27.4816
   XY=             -0.5597   XZ=              0.7957   YZ=             -1.4984

 Normal termination of Gaussian 09 at Tue Aug 30 11:36:23 2022.
