 Gaussian 09, Revision E.01,
 Gaussian 09:  ES64L-G09RevE.01 30-Nov-2015

 -----
 #P G4
 -----

 --------
 Frag_686
 --------
 Symbolic Z-matrix:
 Charge =  0 Multiplicity = 1

 SCF Done:  E(RB3LYP) =  -193.123021028     A.U. after   12 cycles
 SCF Done:  E(RB3LYP) =  -193.125142063     A.U. after   11 cycles
 SCF Done:  E(RB3LYP) =  -193.125243632     A.U. after   10 cycles
 SCF Done:  E(RB3LYP) =  -193.125302663     A.U. after    9 cycles
 SCF Done:  E(RB3LYP) =  -193.124400713     A.U. after   13 cycles
 SCF Done:  E(RB3LYP) =  -193.125583508     A.U. after   11 cycles
 SCF Done:  E(RB3LYP) =  -193.126102837     A.U. after   12 cycles
 SCF Done:  E(RB3LYP) =  -193.127064103     A.U. after   10 cycles
 SCF Done:  E(RB3LYP) =  -193.128857661     A.U. after   11 cycles
 SCF Done:  E(RB3LYP) =  -193.129926855     A.U. after   12 cycles
 SCF Done:  E(RB3LYP) =  -193.130577659     A.U. after    8 cycles
 SCF Done:  E(RB3LYP) =  -193.130604415     A.U. after   10 cycles
 SCF Done:  E(RB3LYP) =  -193.130612582     A.U. after    9 cycles
 Optimization completed.
    -- Stationary point found.
 Normal termination of Gaussian 09 at Fri Aug 19 12:35:47 2022.

 ----------------------------------------------------------
 #P Geom=AllCheck Guess=TCheck SCRF=Check B3LYP/GTBas3 Freq
 ----------------------------------------------------------

 Structure from the checkpoint file:  "G4.Frag_686.chk"
 --------
 Frag_686
 --------
 Charge =  0 Multiplicity = 1

 SCF Done:  E(RB3LYP) =  -193.130612582     A.U. after    1 cycles

  Exact polarizability:  45.329  -5.537  41.435   0.001   0.002  23.838
 Approx polarizability:  58.598 -11.215  63.498   0.000   0.003  34.207

                      1                      2                      3
                      A                      A                      A
 Frequencies --    143.2907               253.3207               281.5943
 Red. masses --      1.5239                 1.1940                 3.5233
 Frc consts  --      0.0184                 0.0451                 0.1646
 IR Inten    --     57.6449                60.3328                 3.3819

                      4                      5                      6
                      A                      A                      A
 Frequencies --    567.3453               599.6150               890.4284
 Red. masses --      1.2198                 2.8112                 2.7605
 Frc consts  --      0.2313                 0.5955                 1.2895
 IR Inten    --      5.8122                10.0561                 2.8209

                      7                      8                      9
                      A                      A                      A
 Frequencies --    953.4844              1008.8097              1031.8275
 Red. masses --      1.3313                 1.7264                 1.1474
 Frc consts  --      0.7131                 1.0352                 0.7197
 IR Inten    --     32.3305                45.0405                 2.1657

                     10                     11                     12
                      A                      A                      A
 Frequencies --   1048.4319              1148.1665              1241.0552
 Red. masses --      1.5483                 2.4085                 1.2009
 Frc consts  --      1.0027                 1.8707                 1.0898
 IR Inten    --     15.3750                21.2284                73.1849

                     13                     14                     15
                      A                      A                      A
 Frequencies --   1252.9505              1323.4410              1435.4513
 Red. masses --      1.0709                 1.2750                 1.1799
 Frc consts  --      0.9905                 1.3158                 1.4324
 IR Inten    --      0.0207                 2.2488                 1.8231

                     16                     17                     18
                      A                      A                      A
 Frequencies --   1464.9787              1507.4491              1724.3271
 Red. masses --      1.4416                 1.0955                 4.9786
 Frc consts  --      1.8228                 1.4667                 8.7216
 IR Inten    --     13.2437                 8.0367                 7.4876

                     19                     20                     21
                      A                      A                      A
 Frequencies --   2939.3030              2951.1510              3146.3954
 Red. masses --      1.0549                 1.1031                 1.0766
 Frc consts  --      5.3695                 5.6602                 6.2794
 IR Inten    --     63.4313                61.9206                13.1487

                     22                     23                     24
                      A                      A                      A
 Frequencies --   3164.9811              3248.8110              3844.3410
 Red. masses --      1.0735                 1.1142                 1.0665
 Frc consts  --      6.3355                 6.9291                 9.2867
 IR Inten    --      8.3591                 7.1596                25.9125

 - Thermochemistry -
 -------------------
 Temperature   298.150 Kelvin.  Pressure   1.00000 Atm.
 Atom     1 has atomic number  6 and mass  12.00000

 Molecular mass:    58.04186 amu.
 Principal axes and moments of inertia in atomic units:
                           1         2         3
     Eigenvalues --   104.60551 300.35168 393.74660
           X            0.99931  -0.03703   0.00001
           Y            0.03703   0.99931   0.00002
           Z           -0.00001  -0.00002   1.00000
 This molecule is an asymmetric top.
 Rotational symmetry number  1.
 Rotational temperatures (Kelvin)      0.82800     0.28837     0.21997
 Rotational constants (GHZ):          17.25283     6.00876     4.58351
 Zero-point vibrational energy     222331.7 (Joules/Mol)
                                   53.13854 (Kcal/Mol)
 Warning -- explicit consideration of   5 degrees of freedom as
           vibrations may cause significant error
 Vibrational temperatures:    206.16   364.47   405.15   816.28   862.71
          (Kelvin)           1281.13  1371.85  1451.45  1484.57  1508.46
                             1651.95  1785.60  1802.71  1904.13  2065.29
                             2107.77  2168.88  2480.92  4229.00  4246.04
                             4526.96  4553.70  4674.31  5531.14

 Zero-point correction=                           0.084682 (Hartree/Particle)
 Thermal correction to Energy=                    0.089710
 Thermal correction to Enthalpy=                  0.090654
 Thermal correction to Gibbs Free Energy=         0.057503
 Sum of electronic and zero-point Energies=           -193.045931
 Sum of electronic and thermal Energies=              -193.040903
 Sum of electronic and thermal Enthalpies=            -193.039959
 Sum of electronic and thermal Free Energies=         -193.073110

                     E (Thermal)             CV                S
                      KCal/Mol        Cal/Mol-Kelvin    Cal/Mol-Kelvin
 Total                   56.294             16.470             69.773
 Electronic               0.000              0.000              0.000
 Translational            0.889              2.981             38.096
 Rotational               0.889              2.981             24.029
 Vibrational             54.516             10.508              7.647
 Vibration     1          0.616              1.910              2.759
 Vibration     2          0.664              1.757              1.707
 Vibration     3          0.681              1.708              1.524
 Vibration     4          0.923              1.102              0.509
 Vibration     5          0.958              1.033              0.450

 Optimization completed.
    -- Stationary point found.
 Normal termination of Gaussian 09 at Fri Aug 19 12:36:24 2022.

 -----------------------------------------------------------------
 #P Geom=AllCheck Guess=TCheck SCRF=Check CCSD(T,E4T,FrzG4)/GTBas1
 -----------------------------------------------------------------

 Structure from the checkpoint file:  "G4.Frag_686.chk"
 --------
 Frag_686
 --------
 Charge =  0 Multiplicity = 1

 SCF Done:  E(RHF) =  -191.914632714     A.U. after   12 cycles
 E2 =    -0.5601395125D+00 EUMP2 =    -0.19247477222638D+03
 CCSD(T)
 CCSD(T)= -0.19253200214D+03
 Normal termination of Gaussian 09 at Fri Aug 19 12:36:51 2022.

 ---------------------------------------------------------
 #P Geom=AllCheck Guess=TCheck SCRF=Check MP4=FrzG4/GTBas2
 ---------------------------------------------------------

 Structure from the checkpoint file:  "G4.Frag_686.chk"
 --------
 Frag_686
 --------
 Charge =  0 Multiplicity = 1

 SCF Done:  E(RHF) =  -191.923389990     A.U. after   11 cycles
 E2 =    -0.5681380963D+00 EUMP2 =    -0.19249152808642D+03
 Normal termination of Gaussian 09 at Fri Aug 19 12:37:05 2022.

 ---------------------------------------------------------
 #P Geom=AllCheck Guess=TCheck SCRF=Check MP4=FrzG4/GTBas3
 ---------------------------------------------------------

 Structure from the checkpoint file:  "G4.Frag_686.chk"
 --------
 Frag_686
 --------
 Charge =  0 Multiplicity = 1

 SCF Done:  E(RHF) =  -191.942066246     A.U. after   11 cycles
 E2 =    -0.6942327565D+00 EUMP2 =    -0.19263629900230D+03
 Normal termination of Gaussian 09 at Fri Aug 19 12:43:20 2022.

 -----------------------------------------------------------
 #P Geom=AllCheck Guess=TCheck SCRF=Check MP2=Full/GTLargeXP
 -----------------------------------------------------------

 Structure from the checkpoint file:  "G4.Frag_686.chk"
 --------
 Frag_686
 --------
 Charge =  0 Multiplicity = 1

 SCF Done:  E(RHF) =  -191.994155541     A.U. after   11 cycles
 E2 =    -0.9156948625D+00 EUMP2 =    -0.19290985040380D+03
 Normal termination of Gaussian 09 at Fri Aug 19 12:44:08 2022.
 SCF Done:  E(RHF) =  -192.010286564     A.U. after    8 cycles
 Normal termination of Gaussian 09 at Fri Aug 19 12:45:38 2022.

                         Standard orientation:
 ---------------------------------------------------------------------
 Center     Atomic      Atomic             Coordinates (Angstroms)
 Number     Number       Type             X           Y           Z
 ---------------------------------------------------------------------
      1          6           0        1.509213   -0.527115   -0.000035
      2          6           0        0.780513    0.582446    0.000022
      3          6           0       -0.718043    0.628204   -0.000076
      4          8           0       -1.250251   -0.681223    0.000059
      5          1           0        2.593188   -0.493092    0.000376
      6          1           0        1.041856   -1.504702   -0.000408
      7          1           0        1.258865    1.560152    0.000084
      8          1           0       -1.056604    1.200394   -0.882503
      9          1           0       -1.056653    1.200434    0.882408
     10          1           0       -2.208739   -0.614614    0.000106
 ---------------------------------------------------------------------

 SCF Done:  E(RHF) =  -192.013673915     A.U. after    7 cycles

 The electronic state is 1-A.
 Alpha  occ. eigenvalues --  -20.56062 -11.28504 -11.22981 -11.21451  -1.36768
 Alpha  occ. eigenvalues --   -1.05568  -0.92227  -0.75340  -0.71108  -0.63431
 Alpha  occ. eigenvalues --   -0.61485  -0.59475  -0.51931  -0.49067  -0.46181
 Alpha  occ. eigenvalues --   -0.35899
 Alpha virt. eigenvalues --    0.03642   0.04725   0.04965   0.05906   0.07223
 Alpha virt. eigenvalues --    0.07563   0.08314   0.09074   0.10060   0.10782
 Alpha virt. eigenvalues --    0.14204   0.15655   0.16272   0.16605   0.16766

 Mulliken charges:
               1
     1  C   -0.420726
     2  C   -0.202716
     3  C   -0.036863
     4  O   -0.576988
     5  H    0.190062
     6  H    0.204615
     7  H    0.186785
     8  H    0.143083
     9  H    0.143072
    10  H    0.369676
 Sum of Mulliken charges =  -0.00000

 Dipole moment (field-independent basis, Debye):
    X=             -1.2170    Y=              1.4455    Z=             -0.0001  Tot=              1.8896
 Quadrupole moment (field-independent basis, Debye-Ang):
   XX=            -19.7908   YY=            -24.7505   ZZ=            -27.5910
   XY=             -0.7707   XZ=              0.0006   YZ=              0.0003

 Normal termination of Gaussian 09 at Fri Aug 19 13:25:59 2022.
