 Gaussian 09, Revision E.01,
 Gaussian 09:  ES64L-G09RevE.01 30-Nov-2015

 -----
 #P G4
 -----

 --------
 Frag_797
 --------
 Symbolic Z-matrix:
 Charge =  0 Multiplicity = 1

 SCF Done:  E(RB3LYP) =  -395.027698071     A.U. after   17 cycles
 SCF Done:  E(RB3LYP) =  -395.059935898     A.U. after   14 cycles
 SCF Done:  E(RB3LYP) =  -395.053988915     A.U. after   15 cycles
 SCF Done:  E(RB3LYP) =  -395.062761663     A.U. after   12 cycles
 SCF Done:  E(RB3LYP) =  -395.064144307     A.U. after   14 cycles
 SCF Done:  E(RB3LYP) =  -395.067559042     A.U. after   14 cycles
 SCF Done:  E(RB3LYP) =  -395.068782710     A.U. after   13 cycles
 SCF Done:  E(RB3LYP) =  -395.069082324     A.U. after   13 cycles
 SCF Done:  E(RB3LYP) =  -395.069293126     A.U. after   14 cycles
 SCF Done:  E(RB3LYP) =  -395.069471841     A.U. after   14 cycles
 SCF Done:  E(RB3LYP) =  -395.069603817     A.U. after    9 cycles
 SCF Done:  E(RB3LYP) =  -395.069604584     A.U. after    9 cycles
 SCF Done:  E(RB3LYP) =  -395.069605522     A.U. after    9 cycles
 Optimization completed.
    -- Stationary point found.
 Normal termination of Gaussian 09 at Fri Aug 26 03:44:32 2022.

 ----------------------------------------------------------
 #P Geom=AllCheck Guess=TCheck SCRF=Check B3LYP/GTBas3 Freq
 ----------------------------------------------------------

 Structure from the checkpoint file:  "G4.Frag_797.chk"
 --------
 Frag_797
 --------
 Charge =  0 Multiplicity = 1

 SCF Done:  E(RB3LYP) =  -395.069605522     A.U. after    1 cycles

  Exact polarizability:  52.583  -0.133  57.035  -0.664  -0.887  44.947
 Approx polarizability:  75.063  -1.682 104.470  -1.946  -2.844  62.875

                      1                      2                      3
                      A                      A                      A
 Frequencies --     44.5428               223.6579               248.4459
 Red. masses --      6.6806                 1.2058                 1.0445
 Frc consts  --      0.0078                 0.0355                 0.0380
 IR Inten    --      0.6091                 5.2240                19.3719

                      4                      5                      6
                      A                      A                      A
 Frequencies --    262.2094               282.6891               347.2141
 Red. masses --      2.4804                 2.4260                 1.9084
 Frc consts  --      0.1005                 0.1142                 0.1356
 IR Inten    --      8.9604                20.0490                 7.2564

                      7                      8                      9
                      A                      A                      A
 Frequencies --    360.8554               377.2822               462.4563
 Red. masses --      4.7762                 1.9695                 2.8740
 Frc consts  --      0.3664                 0.1652                 0.3621
 IR Inten    --     22.2495                22.7645                 2.9370

                     10                     11                     12
                      A                      A                      A
 Frequencies --    534.4906               565.1034               724.2244
 Red. masses --      3.6040                 2.8371                 6.4918
 Frc consts  --      0.6066                 0.5338                 2.0061
 IR Inten    --     14.2048                11.1158                 8.4523

                     13                     14                     15
                      A                      A                      A
 Frequencies --    824.3970               826.9951               852.0567
 Red. masses --      2.5164                 2.3003                 4.6479
 Frc consts  --      1.0076                 0.9269                 1.9881
 IR Inten    --     62.9137               139.9104               128.5750

                     16                     17                     18
                      A                      A                      A
 Frequencies --    905.7171              1009.8546              1035.7869
 Red. masses --      1.3745                 1.4886                 1.6422
 Frc consts  --      0.6643                 0.8944                 1.0380
 IR Inten    --    107.8317                 4.4385                25.1460

                     19                     20                     21
                      A                      A                      A
 Frequencies --   1088.3973              1241.7714              1357.8217
 Red. masses --      1.6771                 1.7037                 1.7349
 Frc consts  --      1.1705                 1.5479                 1.8845
 IR Inten    --     17.1564                40.8389                26.6760

                     22                     23                     24
                      A                      A                      A
 Frequencies --   1367.5271              1395.9950              1428.9140
 Red. masses --      2.8720                 1.6788                 4.1738
 Frc consts  --      3.1645                 1.9276                 5.0211
 IR Inten    --     53.2597                27.6786                51.9599

                     25                     26                     27
                      A                      A                      A
 Frequencies --   1485.5356              1493.2396              1613.7322
 Red. masses --      1.0945                 1.0566                 1.3431
 Frc consts  --      1.4231                 1.3881                 2.0608
 IR Inten    --      1.5784                 3.8152               168.6390

                     28                     29                     30
                      A                      A                      A
 Frequencies --   1652.7380              1667.9575              3046.9999
 Red. masses --      1.2798                 2.9806                 1.0364
 Frc consts  --      2.0597                 4.8857                 5.6691
 IR Inten    --      3.5549               176.0266                 8.9686

                     31                     32                     33
                      A                      A                      A
 Frequencies --   3120.8761              3147.9522              3516.7111
 Red. masses --      1.1001                 1.1028                 1.0483
 Frc consts  --      6.3130                 6.4385                 7.6388
 IR Inten    --     13.4149                 7.0147                 5.9070

                     34                     35                     36
                      A                      A                      A
 Frequencies --   3526.7639              3606.0101              3615.5767
 Red. masses --      1.0489                 1.0936                 1.0933
 Frc consts  --      7.6868                 8.3781                 8.4206
 IR Inten    --      8.9690                12.0654                11.4183

 - Thermochemistry -
 -------------------
 Temperature   298.150 Kelvin.  Pressure   1.00000 Atm.
 Atom     1 has atomic number  6 and mass  12.00000

 Molecular mass:   105.05383 amu.
 Principal axes and moments of inertia in atomic units:
                           1         2         3
     Eigenvalues --   508.98018 721.46511 836.89447
           X            0.99948   0.02411   0.02127
           Y           -0.02467   0.99934   0.02684
           Z           -0.02061  -0.02735   0.99941
 This molecule is an asymmetric top.
 Rotational symmetry number  1.
 Warning -- assumption of classical behavior for rotation
           may cause significant error
 Rotational temperatures (Kelvin)      0.17017     0.12005     0.10349
 Rotational constants (GHZ):           3.54580     2.50149     2.15647
 Zero-point vibrational energy     294655.2 (Joules/Mol)
                                   70.42428 (Kcal/Mol)
 Warning -- explicit consideration of  11 degrees of freedom as
           vibrations may cause significant error
 Vibrational temperatures:     64.09   321.79   357.46   377.26   406.73
          (Kelvin)            499.56   519.19   542.82   665.37   769.01
                              813.06  1042.00  1186.12  1189.86  1225.92
                             1303.12  1452.95  1490.26  1565.96  1786.63
                             1953.60  1967.56  2008.52  2055.89  2137.35
                             2148.44  2321.80  2377.92  2399.82  4383.95
                             4490.24  4529.20  5059.76  5074.22  5188.24
                             5202.00

 Zero-point correction=                           0.112228 (Hartree/Particle)
 Thermal correction to Energy=                    0.120033
 Thermal correction to Enthalpy=                  0.120977
 Thermal correction to Gibbs Free Energy=         0.080346
 Sum of electronic and zero-point Energies=           -394.957377
 Sum of electronic and thermal Energies=              -394.949573
 Sum of electronic and thermal Enthalpies=            -394.948629
 Sum of electronic and thermal Free Energies=         -394.989259

                     E (Thermal)             CV                S
                      KCal/Mol        Cal/Mol-Kelvin    Cal/Mol-Kelvin
 Total                   75.322             28.198             85.515
 Electronic               0.000              0.000              0.000
 Translational            0.889              2.981             39.865
 Rotational               0.889              2.981             27.221
 Vibrational             73.544             22.237             18.428
 Vibration     1          0.595              1.980              5.046
 Vibration     2          0.649              1.805              1.929
 Vibration     3          0.662              1.765              1.742
 Vibration     4          0.670              1.742              1.647
 Vibration     5          0.682              1.706              1.517
 Vibration     6          0.725              1.581              1.179
 Vibration     7          0.735              1.553              1.118
 Vibration     8          0.748              1.519              1.050
 Vibration     9          0.820              1.333              0.759
 Vibration    10          0.889              1.174              0.577
 Vibration    11          0.921              1.107              0.514

 Optimization completed.
    -- Stationary point found.
 Normal termination of Gaussian 09 at Fri Aug 26 03:45:13 2022.

 -----------------------------------------------------------------
 #P Geom=AllCheck Guess=TCheck SCRF=Check CCSD(T,E4T,FrzG4)/GTBas1
 -----------------------------------------------------------------

 Structure from the checkpoint file:  "G4.Frag_797.chk"
 --------
 Frag_797
 --------
 Charge =  0 Multiplicity = 1

 SCF Done:  E(RHF) =  -392.755507556     A.U. after   14 cycles
 E2 =    -0.1135879930D+01 EUMP2 =    -0.39389138748603D+03
 CCSD(T)
 CCSD(T)= -0.39396198143D+03
 MP4SDQ=-393.9239269\CCSD=-393.9204081\CCSD(T)=-393.9619814\RMSD=8.972e
 Normal termination of Gaussian 09 at Fri Aug 26 03:49:31 2022.

 ---------------------------------------------------------
 #P Geom=AllCheck Guess=TCheck SCRF=Check MP4=FrzG4/GTBas2
 ---------------------------------------------------------

 Structure from the checkpoint file:  "G4.Frag_797.chk"
 --------
 Frag_797
 --------
 Charge =  0 Multiplicity = 1

 SCF Done:  E(RHF) =  -392.769941611     A.U. after   14 cycles
 E2 =    -0.1154511347D+01 EUMP2 =    -0.39392445295789D+03
 Normal termination of Gaussian 09 at Fri Aug 26 03:50:50 2022.

 ---------------------------------------------------------
 #P Geom=AllCheck Guess=TCheck SCRF=Check MP4=FrzG4/GTBas3
 ---------------------------------------------------------

 Structure from the checkpoint file:  "G4.Frag_797.chk"
 --------
 Frag_797
 --------
 Charge =  0 Multiplicity = 1

 SCF Done:  E(RHF) =  -392.806428243     A.U. after   13 cycles
 E2 =    -0.1377574093D+01 EUMP2 =    -0.39418400233626D+03
 Normal termination of Gaussian 09 at Fri Aug 26 03:57:59 2022.

 -----------------------------------------------------------
 #P Geom=AllCheck Guess=TCheck SCRF=Check MP2=Full/GTLargeXP
 -----------------------------------------------------------

 Structure from the checkpoint file:  "G4.Frag_797.chk"
 --------
 Frag_797
 --------
 Charge =  0 Multiplicity = 1

 SCF Done:  E(RHF) =  -392.913105026     A.U. after   13 cycles
 E2 =    -0.1782918176D+01 EUMP2 =    -0.39469602320203D+03
 Normal termination of Gaussian 09 at Fri Aug 26 04:00:54 2022.
 SCF Done:  E(RHF) =  -392.944655917     A.U. after    9 cycles
 Normal termination of Gaussian 09 at Fri Aug 26 04:03:39 2022.

                         Standard orientation:
 ---------------------------------------------------------------------
 Center     Atomic      Atomic             Coordinates (Angstroms)
 Number     Number       Type             X           Y           Z
 ---------------------------------------------------------------------
      1          6           0       -0.994113   -0.413509   -1.387794
      2          6           0       -0.617660    0.017333    0.034131
      3          7           0       -1.142008    1.291358    0.347178
      4          7           0       -0.935024   -0.897592    1.104520
      5          7           0        0.988220    0.021424    0.021520
      6          8           0        1.543910    1.103305   -0.030039
      7          8           0        1.542271   -1.067223    0.024449
      8          1           0       -2.081236   -0.505867   -1.448600
      9          1           0       -0.532216   -1.373367   -1.625216
     10          1           0       -0.668001    0.324948   -2.127448
     11          1           0       -0.820870    1.998647   -0.303116
     12          1           0       -0.871038    1.562784    1.286242
     13          1           0       -0.483930   -1.790474    0.937134
     14          1           0       -1.939841   -1.034600    1.135175
 ---------------------------------------------------------------------

 SCF Done:  E(RHF) =  -392.951315066     A.U. after    8 cycles

 The electronic state is 1-A.
 Alpha  occ. eigenvalues --  -20.60103 -20.59638 -15.82911 -15.57488 -15.57424
 Alpha  occ. eigenvalues --  -11.37912 -11.25037  -1.59779  -1.39746  -1.28430
 Alpha  occ. eigenvalues --   -1.16873  -1.03362  -0.95309  -0.81562  -0.77678
 Alpha  occ. eigenvalues --   -0.73045  -0.72115  -0.69483  -0.66586  -0.62838
 Alpha  occ. eigenvalues --   -0.59168  -0.58602  -0.56342  -0.51616  -0.48727
 Alpha  occ. eigenvalues --   -0.45483  -0.44295  -0.42547
 Alpha virt. eigenvalues --    0.02958   0.04444   0.04635   0.05725   0.06698
 Alpha virt. eigenvalues --    0.07098   0.07617   0.09114   0.09173   0.10118
 Alpha virt. eigenvalues --    0.11629   0.12021   0.12570   0.13293   0.14317

 Mulliken charges:
               1
     1  C   -0.571448
     2  C    0.434977
     3  N   -0.701434
     4  N   -0.699285
     5  N    0.527026
     6  O   -0.426836
     7  O   -0.442557
     8  H    0.193944
     9  H    0.209366
    10  H    0.190484
    11  H    0.315275
    12  H    0.327216
    13  H    0.331395
    14  H    0.311878
 Sum of Mulliken charges =  -0.00000

 Dipole moment (field-independent basis, Debye):
    X=             -3.8214    Y=             -0.2866    Z=             -0.9881  Tot=              3.9575
 Quadrupole moment (field-independent basis, Debye-Ang):
   XX=            -48.3100   YY=            -39.7746   ZZ=            -40.8142
   XY=              2.3803   XZ=              0.4073   YZ=              0.1617

 Normal termination of Gaussian 09 at Fri Aug 26 04:13:52 2022.
