 Gaussian 09, Revision E.01,
 Gaussian 09:  ES64L-G09RevE.01 30-Nov-2015

 -----
 #P G4
 -----

 --------
 Frag_717
 --------
 Symbolic Z-matrix:
 Charge =  0 Multiplicity = 1

 SCF Done:  E(RB3LYP) =  -191.871647917     A.U. after   12 cycles
 SCF Done:  E(RB3LYP) =  -191.873249025     A.U. after   12 cycles
 SCF Done:  E(RB3LYP) =  -191.865854909     A.U. after   14 cycles
 SCF Done:  E(RB3LYP) =  -191.873921418     A.U. after   11 cycles
 SCF Done:  E(RB3LYP) =  -191.874068129     A.U. after   12 cycles
 SCF Done:  E(RB3LYP) =  -191.874580118     A.U. after   11 cycles
 SCF Done:  E(RB3LYP) =  -191.874734713     A.U. after   11 cycles
 SCF Done:  E(RB3LYP) =  -191.874673800     A.U. after   11 cycles
 SCF Done:  E(RB3LYP) =  -191.874841471     A.U. after   10 cycles
 SCF Done:  E(RB3LYP) =  -191.874890439     A.U. after   10 cycles
 SCF Done:  E(RB3LYP) =  -191.874893317     A.U. after    8 cycles
 SCF Done:  E(RB3LYP) =  -191.874893733     A.U. after    7 cycles
 Optimization completed.
    -- Stationary point found.
 Normal termination of Gaussian 09 at Fri Aug 26 09:50:59 2022.

 ----------------------------------------------------------
 #P Geom=AllCheck Guess=TCheck SCRF=Check B3LYP/GTBas3 Freq
 ----------------------------------------------------------

 Structure from the checkpoint file:  "G4.Frag_717.chk"
 --------
 Frag_717
 --------
 Charge =  0 Multiplicity = 1

 SCF Done:  E(RB3LYP) =  -191.874893733     A.U. after    1 cycles

  Exact polarizability:  47.587  -5.308  27.817  -0.360  -0.841  23.240
 Approx polarizability:  75.722 -11.406  39.967   0.552  -1.320  32.907

                      1                      2                      3
                      A                      A                      A
 Frequencies --    205.2287               283.5348               354.1196
 Red. masses --      3.0515                 1.7135                 1.8993
 Frc consts  --      0.0757                 0.0812                 0.1403
 IR Inten    --      5.9985                58.6160                59.2588

                      4                      5                      6
                      A                      A                      A
 Frequencies --    563.3753               621.9285               682.0807
 Red. masses --      6.8891                 1.2070                 1.2463
 Frc consts  --      1.2883                 0.2751                 0.3416
 IR Inten    --     10.5885                47.8155                35.3799

                      7                      8                      9
                      A                      A                      A
 Frequencies --    914.6494               996.1456              1062.4327
 Red. masses --      3.9426                 1.6130                 6.1826
 Frc consts  --      1.9433                 0.9430                 4.1117
 IR Inten    --     21.3817                19.2655                95.6777

                     10                     11                     12
                      A                      A                      A
 Frequencies --   1216.3330              1360.2203              1419.0293
 Red. masses --      1.0876                 1.2152                 1.2227
 Frc consts  --      0.9481                 1.3247                 1.4506
 IR Inten    --     14.1045                 3.0551                67.1513

                     13                     14                     15
                      A                      A                      A
 Frequencies --   1491.8629              2234.6352              2979.5114
 Red. masses --      1.0793                 5.8915                 1.0712
 Frc consts  --      1.4153                17.3336                 5.6030
 IR Inten    --      0.8628                 1.4293                44.8833

                     16                     17                     18
                      A                      A                      A
 Frequencies --   3066.8991              3504.8115              3816.9658
 Red. masses --      1.0886                 1.1628                 1.0663
 Frc consts  --      6.0326                 8.4158                 9.1532
 IR Inten    --     14.8252                56.8588                23.4485

 - Thermochemistry -
 -------------------
 Temperature   298.150 Kelvin.  Pressure   1.00000 Atm.
 Atom     1 has atomic number  6 and mass  12.00000

 Molecular mass:    56.02621 amu.
 Principal axes and moments of inertia in atomic units:
                           1         2         3
     Eigenvalues --    55.11045 384.63825 425.31905
           X            0.99971  -0.02270  -0.00792
           Y            0.02234   0.99883  -0.04297
           Z            0.00889   0.04278   0.99905
 This molecule is an asymmetric top.
 Rotational symmetry number  1.
 Rotational temperatures (Kelvin)      1.57164     0.22518     0.20364
 Rotational constants (GHZ):          32.74772     4.69205     4.24326
 Zero-point vibrational energy     160142.7 (Joules/Mol)
                                   38.27502 (Kcal/Mol)
 Warning -- explicit consideration of   4 degrees of freedom as
           vibrations may cause significant error
 Vibrational temperatures:    295.28   407.94   509.50   810.57   894.82
          (Kelvin)            981.36  1315.97  1433.23  1528.60  1750.03
                             1957.05  2041.66  2146.46  3215.14  4286.85
                             4412.58  5042.64  5491.76

 Zero-point correction=                           0.060995 (Hartree/Particle)
 Thermal correction to Energy=                    0.065782
 Thermal correction to Enthalpy=                  0.066726
 Thermal correction to Gibbs Free Energy=         0.034370
 Sum of electronic and zero-point Energies=           -191.813899
 Sum of electronic and thermal Energies=              -191.809112
 Sum of electronic and thermal Enthalpies=            -191.808168
 Sum of electronic and thermal Free Energies=         -191.840524

                     E (Thermal)             CV                S
                      KCal/Mol        Cal/Mol-Kelvin    Cal/Mol-Kelvin
 Total                   41.279             15.698             68.099
 Electronic               0.000              0.000              0.000
 Translational            0.889              2.981             37.991
 Rotational               0.889              2.981             23.715
 Vibrational             39.501              9.736              6.393
 Vibration     1          0.640              1.832              2.086
 Vibration     2          0.682              1.704              1.512
 Vibration     3          0.730              1.567              1.148
 Vibration     4          0.919              1.111              0.517

 Optimization completed.
    -- Stationary point found.
 Normal termination of Gaussian 09 at Fri Aug 26 09:51:11 2022.

 -----------------------------------------------------------------
 #P Geom=AllCheck Guess=TCheck SCRF=Check CCSD(T,E4T,FrzG4)/GTBas1
 -----------------------------------------------------------------

 Structure from the checkpoint file:  "G4.Frag_717.chk"
 --------
 Frag_717
 --------
 Charge =  0 Multiplicity = 1

 SCF Done:  E(RHF) =  -190.704728473     A.U. after   13 cycles
 E2 =    -0.5538912955D+00 EUMP2 =    -0.19125861976842D+03
 CCSD(T)
 CCSD(T)= -0.19130568091D+03
 =-191.3063106\MP4SDQ=-191.2859351\CCSD=-191.2862655\CCSD(T)=-191.30568
 Normal termination of Gaussian 09 at Fri Aug 26 09:51:29 2022.

 ---------------------------------------------------------
 #P Geom=AllCheck Guess=TCheck SCRF=Check MP4=FrzG4/GTBas2
 ---------------------------------------------------------

 Structure from the checkpoint file:  "G4.Frag_717.chk"
 --------
 Frag_717
 --------
 Charge =  0 Multiplicity = 1

 SCF Done:  E(RHF) =  -190.713963321     A.U. after   14 cycles
 E2 =    -0.5607931263D+00 EUMP2 =    -0.19127475644723D+03
 Normal termination of Gaussian 09 at Fri Aug 26 09:51:35 2022.

 ---------------------------------------------------------
 #P Geom=AllCheck Guess=TCheck SCRF=Check MP4=FrzG4/GTBas3
 ---------------------------------------------------------

 Structure from the checkpoint file:  "G4.Frag_717.chk"
 --------
 Frag_717
 --------
 Charge =  0 Multiplicity = 1

 SCF Done:  E(RHF) =  -190.731228070     A.U. after   12 cycles
 E2 =    -0.6742598621D+00 EUMP2 =    -0.19140548793254D+03
 Normal termination of Gaussian 09 at Fri Aug 26 09:51:58 2022.

 -----------------------------------------------------------
 #P Geom=AllCheck Guess=TCheck SCRF=Check MP2=Full/GTLargeXP
 -----------------------------------------------------------

 Structure from the checkpoint file:  "G4.Frag_717.chk"
 --------
 Frag_717
 --------
 Charge =  0 Multiplicity = 1

 SCF Done:  E(RHF) =  -190.783191218     A.U. after   13 cycles
 E2 =    -0.8915385520D+00 EUMP2 =    -0.19167472976969D+03
 Normal termination of Gaussian 09 at Fri Aug 26 09:52:15 2022.
 SCF Done:  E(RHF) =  -190.798868442     A.U. after   10 cycles
 Normal termination of Gaussian 09 at Fri Aug 26 09:52:38 2022.

                         Standard orientation:
 ---------------------------------------------------------------------
 Center     Atomic      Atomic             Coordinates (Angstroms)
 Number     Number       Type             X           Y           Z
 ---------------------------------------------------------------------
      1          6           0        1.913622   -0.218893   -0.011659
      2          6           0        0.774075    0.163738   -0.007404
      3          6           0       -0.625878    0.586439    0.035855
      4          8           0       -1.543600   -0.488426   -0.098820
      5          1           0        2.923760   -0.546426   -0.030159
      6          1           0       -0.802793    1.155071    0.962693
      7          1           0       -0.837213    1.266337   -0.796662
      8          1           0       -1.305871   -1.155278    0.553932
 ---------------------------------------------------------------------

 SCF Done:  E(RHF) =  -190.802018998     A.U. after    8 cycles

 The electronic state is 1-A.
 Alpha  occ. eigenvalues --  -20.57094 -11.31200 -11.24186 -11.23508  -1.37616
 Alpha  occ. eigenvalues --   -1.05541  -0.95015  -0.75021  -0.70438  -0.66093
 Alpha  occ. eigenvalues --   -0.62467  -0.54435  -0.48257  -0.40635  -0.39695
 Alpha virt. eigenvalues --    0.03842   0.04683   0.05330   0.05860   0.06796
 Alpha virt. eigenvalues --    0.07548   0.07832   0.10293   0.11018   0.11449
 Alpha virt. eigenvalues --    0.12680   0.13458   0.14722   0.16484   0.17571

 Mulliken charges:
               1
     1  C   -0.444503
     2  C    0.138272
     3  C   -0.129384
     4  O   -0.537974
     5  H    0.244321
     6  H    0.170103
     7  H    0.193809
     8  H    0.365355
 Sum of Mulliken charges =   0.00000

 Dipole moment (field-independent basis, Debye):
    X=              1.0035    Y=              0.1843    Z=              1.1417  Tot=              1.5312
 Quadrupole moment (field-independent basis, Debye-Ang):
   XX=            -23.4759   YY=            -22.3628   ZZ=            -24.4661
   XY=             -2.2629   XZ=             -1.7729   YZ=             -1.7018

 Normal termination of Gaussian 09 at Fri Aug 26 09:54:40 2022.
