 Gaussian 09, Revision E.01,
 Gaussian 09:  ES64L-G09RevE.01 30-Nov-2015

 -----
 #P G4
 -----

 ---------
 Frag_1125
 ---------
 Symbolic Z-matrix:
 Charge =  0 Multiplicity = 1

 SCF Done:  E(RB3LYP) =  -231.089382849     A.U. after   25 cycles
 SCF Done:  E(RB3LYP) =  -231.148642336     A.U. after   16 cycles
 SCF Done:  E(RB3LYP) =  -231.197642456     A.U. after   15 cycles
 SCF Done:  E(RB3LYP) =  -231.202716610     A.U. after   13 cycles
 SCF Done:  E(RB3LYP) =  -231.204419318     A.U. after   13 cycles
 SCF Done:  E(RB3LYP) =  -231.202298034     A.U. after   12 cycles
 SCF Done:  E(RB3LYP) =  -231.204747293     A.U. after    9 cycles
 SCF Done:  E(RB3LYP) =  -231.204536404     A.U. after   12 cycles
 SCF Done:  E(RB3LYP) =  -231.205056305     A.U. after    9 cycles
 SCF Done:  E(RB3LYP) =  -231.205391060     A.U. after   11 cycles
 SCF Done:  E(RB3LYP) =  -231.209238620     A.U. after   10 cycles
 SCF Done:  E(RB3LYP) =  -231.209240605     A.U. after   10 cycles
 SCF Done:  E(RB3LYP) =  -231.209240646     A.U. after    7 cycles
 Optimization completed.
    -- Stationary point found.
 Normal termination of Gaussian 09 at Mon Aug 22 12:34:07 2022.

 ----------------------------------------------------------
 #P Geom=AllCheck Guess=TCheck SCRF=Check B3LYP/GTBas3 Freq
 ----------------------------------------------------------

 Structure from the checkpoint file:  "G4.Frag_1125.chk"
 ---------
 Frag_1125
 ---------
 Charge =  0 Multiplicity = 1

 SCF Done:  E(RB3LYP) =  -231.209240646     A.U. after    1 cycles

  Exact polarizability:  81.994  -0.698  35.500  -0.001  -0.000  32.398
 Approx polarizability: 123.969  -5.581  49.477  -0.001  -0.002  45.914

                      1                      2                      3
                      A                      A                      A
 Frequencies --    111.3085               186.7546               198.8717
 Red. masses --      1.2764                 3.5612                 1.0848
 Frc consts  --      0.0093                 0.0732                 0.0253
 IR Inten    --     60.4125                 1.2532                12.0359

                      4                      5                      6
                      A                      A                      A
 Frequencies --    253.8848               395.3215               478.1306
 Red. masses --      2.0056                 2.8552                 2.5123
 Frc consts  --      0.0762                 0.2629                 0.3384
 IR Inten    --     22.9037                 4.0153                 0.0002

                      7                      8                      9
                      A                      A                      A
 Frequencies --    619.1987               651.8142               769.1045
 Red. masses --      6.0747                 1.1753                 4.7577
 Frc consts  --      1.3723                 0.2942                 1.6581
 IR Inten    --      6.0122                 0.0702                12.5956

                     10                     11                     12
                      A                      A                      A
 Frequencies --    918.9230              1005.8223              1034.6978
 Red. masses --      1.3254                 1.5194                 1.4305
 Frc consts  --      0.6594                 0.9057                 0.9024
 IR Inten    --     31.9749                 9.5307                 1.8377

                     13                     14                     15
                      A                      A                      A
 Frequencies --   1061.5349              1167.4474              1256.4910
 Red. masses --      1.4361                 1.7627                 3.8881
 Frc consts  --      0.9534                 1.4155                 3.6167
 IR Inten    --      0.1094                28.8888               293.2556

                     16                     17                     18
                      A                      A                      A
 Frequencies --   1402.2962              1409.4047              1479.0114
 Red. masses --      1.2255                 1.3716                 1.0425
 Frc consts  --      1.4199                 1.6052                 1.3436
 IR Inten    --      9.4875                26.7845                 5.8504

                     19                     20                     21
                      A                      A                      A
 Frequencies --   1482.4433              1532.6075              2093.6153
 Red. masses --      1.0788                 1.7447                10.1410
 Frc consts  --      1.3968                 2.4146                26.1895
 IR Inten    --      1.8818                24.8132                24.7474

                     22                     23                     24
                      A                      A                      A
 Frequencies --   3010.0028              3059.4971              3096.4602
 Red. masses --      1.0402                 1.1002                 1.0578
 Frc consts  --      5.5526                 6.0675                 5.9758
 IR Inten    --     38.3972                21.9014                26.7553

                     25                     26                     27
                      A                      A                      A
 Frequencies --   3142.4449              3158.5104              3834.7892
 Red. masses --      1.0956                 1.1133                 1.0663
 Frc consts  --      6.3746                 6.5440                 9.2391
 IR Inten    --      9.1754                10.7284                55.2730

 - Thermochemistry -
 -------------------
 Temperature   298.150 Kelvin.  Pressure   1.00000 Atm.
 Atom     1 has atomic number  6 and mass  12.00000

 Molecular mass:    70.04186 amu.
 Principal axes and moments of inertia in atomic units:
                           1         2         3
     Eigenvalues --   192.56481 493.99594 662.98616
           X            0.99938   0.03534  -0.00001
           Y           -0.03534   0.99938   0.00002
           Z            0.00001  -0.00002   1.00000
 This molecule is an asymmetric top.
 Rotational symmetry number  1.
 Rotational temperatures (Kelvin)      0.44979     0.17533     0.13064
 Rotational constants (GHZ):           9.37212     3.65335     2.72214
 Zero-point vibrational energy     232137.7 (Joules/Mol)
                                   55.48224 (Kcal/Mol)
 Warning -- explicit consideration of   7 degrees of freedom as
           vibrations may cause significant error
 Vibrational temperatures:    160.15   268.70   286.13   365.28   568.78
          (Kelvin)            687.92   890.89   937.81  1106.57  1322.12
                             1447.15  1488.70  1527.31  1679.69  1807.81
                             2017.59  2027.82  2127.96  2132.90  2205.08
                             3012.24  4330.72  4401.93  4455.11  4521.27
                             4544.39  5517.40

 Zero-point correction=                           0.088417 (Hartree/Particle)
 Thermal correction to Energy=                    0.094723
 Thermal correction to Enthalpy=                  0.095667
 Thermal correction to Gibbs Free Energy=         0.059130
 Sum of electronic and zero-point Energies=           -231.120824
 Sum of electronic and thermal Energies=              -231.114517
 Sum of electronic and thermal Enthalpies=            -231.113573
 Sum of electronic and thermal Free Energies=         -231.150111

                     E (Thermal)             CV                S
                      KCal/Mol        Cal/Mol-Kelvin    Cal/Mol-Kelvin
 Total                   59.440             21.097             76.900
 Electronic               0.000              0.000              0.000
 Translational            0.889              2.981             38.657
 Rotational               0.889              2.981             25.648
 Vibrational             57.662             15.135             12.595
 Vibration     1          0.607              1.940              3.246
 Vibration     2          0.632              1.858              2.260
 Vibration     3          0.637              1.841              2.144
 Vibration     4          0.665              1.756              1.703
 Vibration     5          0.762              1.480              0.980
 Vibration     6          0.835              1.299              0.715
 Vibration     7          0.979              0.991              0.418

 Optimization completed.
    -- Stationary point found.
 Normal termination of Gaussian 09 at Mon Aug 22 12:35:16 2022.

 -----------------------------------------------------------------
 #P Geom=AllCheck Guess=TCheck SCRF=Check CCSD(T,E4T,FrzG4)/GTBas1
 -----------------------------------------------------------------

 Structure from the checkpoint file:  "G4.Frag_1125.chk"
 ---------
 Frag_1125
 ---------
 Charge =  0 Multiplicity = 1

 SCF Done:  E(RHF) =  -229.745074898     A.U. after   12 cycles
 E2 =    -0.6839254847D+00 EUMP2 =    -0.23042900038311D+03
 CCSD(T)
 CCSD(T)= -0.23049697552D+03
 9676\MP4SDQ=-230.471123\CCSD=-230.4718229\CCSD(T)=-230.4969755\RMSD=6.
 Normal termination of Gaussian 09 at Mon Aug 22 12:36:49 2022.

 ---------------------------------------------------------
 #P Geom=AllCheck Guess=TCheck SCRF=Check MP4=FrzG4/GTBas2
 ---------------------------------------------------------

 Structure from the checkpoint file:  "G4.Frag_1125.chk"
 ---------
 Frag_1125
 ---------
 Charge =  0 Multiplicity = 1

 SCF Done:  E(RHF) =  -229.753737099     A.U. after   14 cycles
 E2 =    -0.6927527673D+00 EUMP2 =    -0.23044648986624D+03
 Normal termination of Gaussian 09 at Mon Aug 22 12:38:16 2022.

 ---------------------------------------------------------
 #P Geom=AllCheck Guess=TCheck SCRF=Check MP4=FrzG4/GTBas3
 ---------------------------------------------------------

 Structure from the checkpoint file:  "G4.Frag_1125.chk"
 ---------
 Frag_1125
 ---------
 Charge =  0 Multiplicity = 1

 SCF Done:  E(RHF) =  -229.777424861     A.U. after   11 cycles
 E2 =    -0.8361322105D+00 EUMP2 =    -0.23061355707126D+03
 Normal termination of Gaussian 09 at Mon Aug 22 13:12:03 2022.

 -----------------------------------------------------------
 #P Geom=AllCheck Guess=TCheck SCRF=Check MP2=Full/GTLargeXP
 -----------------------------------------------------------

 Structure from the checkpoint file:  "G4.Frag_1125.chk"
 ---------
 Frag_1125
 ---------
 Charge =  0 Multiplicity = 1

 SCF Done:  E(RHF) =  -229.835675473     A.U. after   11 cycles
 E2 =    -0.1106530424D+01 EUMP2 =    -0.23094220589748D+03
 Normal termination of Gaussian 09 at Mon Aug 22 13:14:09 2022.
 SCF Done:  E(RHF) =  -229.854341437     A.U. after    9 cycles
 Normal termination of Gaussian 09 at Mon Aug 22 13:16:56 2022.

                         Standard orientation:
 ---------------------------------------------------------------------
 Center     Atomic      Atomic             Coordinates (Angstroms)
 Number     Number       Type             X           Y           Z
 ---------------------------------------------------------------------
      1          6           0       -2.225223    0.070768    0.000037
      2          6           0       -0.926728   -0.020382   -0.000177
      3          6           0        0.381190   -0.072163   -0.000023
      4          6           0        1.253002    1.153809    0.000039
      5          8           0        1.034699   -1.286367    0.000108
      6          1           0       -2.802641    0.107449    0.922986
      7          1           0       -2.803024    0.107633   -0.922653
      8          1           0        0.651121    2.063196   -0.000062
      9          1           0        1.901031    1.169275   -0.886429
     10          1           0        1.900792    1.169330    0.886680
     11          1           0        1.981684   -1.118138   -0.000643
 ---------------------------------------------------------------------

 SCF Done:  E(RHF) =  -229.858206581     A.U. after    8 cycles

 The electronic state is 1-A.
 Alpha  occ. eigenvalues --  -20.58364 -11.30317 -11.24204 -11.23451 -11.23049
 Alpha  occ. eigenvalues --   -1.39700  -1.07439  -1.00004  -0.90407  -0.73108
 Alpha  occ. eigenvalues --   -0.68043  -0.64900  -0.62104  -0.58720  -0.56893
 Alpha  occ. eigenvalues --   -0.54201  -0.52779  -0.37819  -0.33480
 Alpha virt. eigenvalues --    0.03583   0.04322   0.04908   0.05559   0.06553
 Alpha virt. eigenvalues --    0.07222   0.07293   0.08836   0.08837   0.09984
 Alpha virt. eigenvalues --    0.10306   0.11575   0.13703   0.14650   0.15123

 Mulliken charges:
               1
     1  C   -0.491511
     2  C    0.148197
     3  C    0.091458
     4  C   -0.565509
     5  O   -0.530680
     6  H    0.198877
     7  H    0.198871
     8  H    0.196682
     9  H    0.187811
    10  H    0.187854
    11  H    0.377950
 Sum of Mulliken charges =  -0.00000

 Dipole moment (field-independent basis, Debye):
    X=              1.5381    Y=              1.6038    Z=             -0.0009  Tot=              2.2221
 Quadrupole moment (field-independent basis, Debye-Ang):
   XX=            -23.1088   YY=            -33.9526   ZZ=            -31.2237
   XY=             -0.1213   XZ=             -0.0032   YZ=              0.0016

 Normal termination of Gaussian 09 at Mon Aug 22 14:33:53 2022.
