 Gaussian 09, Revision E.01,
 Gaussian 09:  ES64L-G09RevE.01 30-Nov-2015

 -----
 #P G4
 -----

 --------
 Frag_576
 --------
 Symbolic Z-matrix:
 Charge =  0 Multiplicity = 1

 SCF Done:  E(RB3LYP) =  -248.482217275     A.U. after   13 cycles
 SCF Done:  E(RB3LYP) =  -248.492131134     A.U. after   12 cycles
 SCF Done:  E(RB3LYP) =  -248.493863746     A.U. after   11 cycles
 SCF Done:  E(RB3LYP) =  -248.497229881     A.U. after   13 cycles
 SCF Done:  E(RB3LYP) =  -248.498209512     A.U. after   11 cycles
 SCF Done:  E(RB3LYP) =  -248.498804689     A.U. after   11 cycles
 SCF Done:  E(RB3LYP) =  -248.498758853     A.U. after   11 cycles
 SCF Done:  E(RB3LYP) =  -248.499047385     A.U. after   10 cycles
 SCF Done:  E(RB3LYP) =  -248.499084991     A.U. after    9 cycles
 SCF Done:  E(RB3LYP) =  -248.499088368     A.U. after    8 cycles
 SCF Done:  E(RB3LYP) =  -248.499088739     A.U. after    7 cycles
 SCF Done:  E(RB3LYP) =  -248.499088980     A.U. after    7 cycles
 Optimization completed.
    -- Stationary point found.
 Normal termination of Gaussian 09 at Fri Aug 26 12:04:48 2022.

 ----------------------------------------------------------
 #P Geom=AllCheck Guess=TCheck SCRF=Check B3LYP/GTBas3 Freq
 ----------------------------------------------------------

 Structure from the checkpoint file:  "G4.Frag_576.chk"
 --------
 Frag_576
 --------
 Charge =  0 Multiplicity = 1

 SCF Done:  E(RB3LYP) =  -248.499088980     A.U. after    1 cycles

  Exact polarizability:  52.347  -5.881  49.752   4.090  -1.096  32.043
 Approx polarizability:  74.046 -14.457  73.789   7.047  -4.584  47.615

                      1                      2                      3
                      A                      A                      A
 Frequencies --    109.7119               273.6915               364.6289
 Red. masses --      2.8596                 3.1427                 1.3071
 Frc consts  --      0.0203                 0.1387                 0.1024
 IR Inten    --      4.6600                 1.6667                52.7821

                      4                      5                      6
                      A                      A                      A
 Frequencies --    422.2219               434.9546               468.2644
 Red. masses --      1.6814                 1.2849                 1.6947
 Frc consts  --      0.1766                 0.1432                 0.2189
 IR Inten    --     21.7702                25.3758               101.6542

                      7                      8                      9
                      A                      A                      A
 Frequencies --    631.1946               670.8572               742.8066
 Red. masses --      2.8238                 1.2094                 1.2973
 Frc consts  --      0.6628                 0.3207                 0.4217
 IR Inten    --     34.6286               165.5209                30.0094

                     10                     11                     12
                      A                      A                      A
 Frequencies --    823.7280               873.1588               974.8488
 Red. masses --      1.4345                 3.0933                 1.4135
 Frc consts  --      0.5735                 1.3895                 0.7914
 IR Inten    --     59.2869                12.1664                23.9841

                     13                     14                     15
                      A                      A                      A
 Frequencies --    997.5266              1054.0471              1142.1765
 Red. masses --      1.7994                 5.1692                 1.4294
 Frc consts  --      1.0549                 3.3837                 1.0986
 IR Inten    --      8.0943                74.7602                 9.4978

                     16                     17                     18
                      A                      A                      A
 Frequencies --   1202.9583              1362.5499              1371.8745
 Red. masses --      1.1073                 1.2335                 2.6336
 Frc consts  --      0.9441                 1.3492                 2.9204
 IR Inten    --     17.0644                 0.8309                24.2870

                     19                     20                     21
                      A                      A                      A
 Frequencies --   1414.0979              1456.6252              1491.2223
 Red. masses --      1.3314                 1.1593                 1.0855
 Frc consts  --      1.5686                 1.4493                 1.4222
 IR Inten    --     70.8921                 3.6648                 2.4212

                     22                     23                     24
                      A                      A                      A
 Frequencies --   1643.8159              1722.5962              3027.1669
 Red. masses --      1.1472                 5.3630                 1.0588
 Frc consts  --      1.8265                 9.3762                 5.7168
 IR Inten    --     41.4102                96.2462                36.4624

                     25                     26                     27
                      A                      A                      A
 Frequencies --   3076.5269              3156.1521              3243.7759
 Red. masses --      1.1053                 1.0616                 1.1135
 Frc consts  --      6.1640                 6.2306                 6.9030
 IR Inten    --     27.0859                 4.7216                10.9909

                     28                     29                     30
                      A                      A                      A
 Frequencies --   3546.9855              3649.7663              3803.0924
 Red. masses --      1.0469                 1.0972                 1.0661
 Frc consts  --      7.7599                 8.6113                 9.0852
 IR Inten    --     17.9686                17.4644                18.0215

 - Thermochemistry -
 -------------------
 Temperature   298.150 Kelvin.  Pressure   1.00000 Atm.
 Atom     1 has atomic number  6 and mass  12.00000

 Molecular mass:    73.05276 amu.
 Principal axes and moments of inertia in atomic units:
                           1         2         3
     Eigenvalues --   216.70378 449.50301 600.91000
           X            0.99990  -0.00005   0.01438
           Y           -0.00026   0.99975   0.02214
           Z           -0.01438  -0.02215   0.99965
 This molecule is an asymmetric top.
 Rotational symmetry number  1.
 Rotational temperatures (Kelvin)      0.39969     0.19269     0.14414
 Rotational constants (GHZ):           8.32815     4.01497     3.00335
 Zero-point vibrational energy     270075.1 (Joules/Mol)
                                   64.54949 (Kcal/Mol)
 Warning -- explicit consideration of   6 degrees of freedom as
           vibrations may cause significant error
 Vibrational temperatures:    157.85   393.78   524.62   607.48   625.80
          (Kelvin)            673.73   908.15   965.21  1068.73  1185.16
                             1256.28  1402.59  1435.22  1516.54  1643.34
                             1730.79  1960.40  1973.82  2034.57  2095.76
                             2145.53  2365.08  2478.43  4355.41  4426.43
                             4540.99  4667.06  5103.31  5251.19  5471.79

 Zero-point correction=                           0.102866 (Hartree/Particle)
 Thermal correction to Energy=                    0.108710
 Thermal correction to Enthalpy=                  0.109654
 Thermal correction to Gibbs Free Energy=         0.074218
 Sum of electronic and zero-point Energies=           -248.396223
 Sum of electronic and thermal Energies=              -248.390379
 Sum of electronic and thermal Enthalpies=            -248.389435
 Sum of electronic and thermal Free Energies=         -248.424871

                     E (Thermal)             CV                S
                      KCal/Mol        Cal/Mol-Kelvin    Cal/Mol-Kelvin
 Total                   68.217             21.196             74.581
 Electronic               0.000              0.000              0.000
 Translational            0.889              2.981             38.782
 Rotational               0.889              2.981             25.574
 Vibrational             66.439             15.234             10.226
 Vibration     1          0.606              1.941              3.274
 Vibration     2          0.676              1.722              1.573
 Vibration     3          0.738              1.545              1.102
 Vibration     4          0.785              1.422              0.884
 Vibration     5          0.796              1.394              0.843
 Vibration     6          0.825              1.320              0.742

 Normal termination of Gaussian 09 at Fri Aug 26 12:05:10 2022.

 -----------------------------------------------------------------
 #P Geom=AllCheck Guess=TCheck SCRF=Check CCSD(T,E4T,FrzG4)/GTBas1
 -----------------------------------------------------------------

 Structure from the checkpoint file:  "G4.Frag_576.chk"
 --------
 Frag_576
 --------
 Charge =  0 Multiplicity = 1

 SCF Done:  E(RHF) =  -246.949592009     A.U. after   12 cycles
 E2 =    -0.7263125381D+00 EUMP2 =    -0.24767590454705D+03
 CCSD(T)
 CCSD(T)= -0.24774183535D+03
 247.7191388\CCSD(T)=-247.7418354\RMSD=9.046e-09\PG=C01 [X(C3H7N1O1)]\\
 Normal termination of Gaussian 09 at Fri Aug 26 12:06:03 2022.

 ---------------------------------------------------------
 #P Geom=AllCheck Guess=TCheck SCRF=Check MP4=FrzG4/GTBas2
 ---------------------------------------------------------

 Structure from the checkpoint file:  "G4.Frag_576.chk"
 --------
 Frag_576
 --------
 Charge =  0 Multiplicity = 1

 SCF Done:  E(RHF) =  -246.960532084     A.U. after   13 cycles
 E2 =    -0.7381784960D+00 EUMP2 =    -0.24769871058021D+03
 Normal termination of Gaussian 09 at Fri Aug 26 12:06:19 2022.

 ---------------------------------------------------------
 #P Geom=AllCheck Guess=TCheck SCRF=Check MP4=FrzG4/GTBas3
 ---------------------------------------------------------

 Structure from the checkpoint file:  "G4.Frag_576.chk"
 --------
 Frag_576
 --------
 Charge =  0 Multiplicity = 1

 SCF Done:  E(RHF) =  -246.986534442     A.U. after   11 cycles
 E2 =    -0.8945577351D+00 EUMP2 =    -0.24788109217723D+03
 Normal termination of Gaussian 09 at Fri Aug 26 12:07:44 2022.

 -----------------------------------------------------------
 #P Geom=AllCheck Guess=TCheck SCRF=Check MP2=Full/GTLargeXP
 -----------------------------------------------------------

 Structure from the checkpoint file:  "G4.Frag_576.chk"
 --------
 Frag_576
 --------
 Charge =  0 Multiplicity = 1

 SCF Done:  E(RHF) =  -247.054102867     A.U. after   12 cycles
 E2 =    -0.1174511017D+01 EUMP2 =    -0.24822861388359D+03
 Normal termination of Gaussian 09 at Fri Aug 26 12:08:35 2022.
 SCF Done:  E(RHF) =  -247.074133317     A.U. after    8 cycles
 Normal termination of Gaussian 09 at Fri Aug 26 12:09:30 2022.

                         Standard orientation:
 ---------------------------------------------------------------------
 Center     Atomic      Atomic             Coordinates (Angstroms)
 Number     Number       Type             X           Y           Z
 ---------------------------------------------------------------------
      1          6           0       -1.606952    0.840426   -0.212146
      2          6           0       -0.578268    0.037097    0.084656
      3          7           0       -0.632559   -1.353200    0.162496
      4          6           0        0.785174    0.582268    0.440881
      5          8           0        1.822456   -0.038498   -0.319642
      6          1           0       -2.593228    0.453567   -0.445940
      7          1           0       -1.490574    1.916091   -0.187805
      8          1           0        0.248298   -1.788370   -0.079008
      9          1           0       -1.412228   -1.780491   -0.316476
     10          1           0        0.793296    1.672889    0.326143
     11          1           0        1.021765    0.346144    1.484429
     12          1           0        1.681215    0.201815   -1.242022
 ---------------------------------------------------------------------

 SCF Done:  E(RHF) =  -247.078434593     A.U. after    8 cycles

 The electronic state is 1-A.
 Alpha  occ. eigenvalues --  -20.56759 -15.55903 -11.28632 -11.27438 -11.20525
 Alpha  occ. eigenvalues --   -1.37144  -1.21452  -1.02204  -0.92471  -0.76761
 Alpha  occ. eigenvalues --   -0.70650  -0.69609  -0.62331  -0.61410  -0.58510
 Alpha  occ. eigenvalues --   -0.55717  -0.50720  -0.48249  -0.46059  -0.32341
 Alpha virt. eigenvalues --    0.03805   0.04759   0.04894   0.05636   0.07019
 Alpha virt. eigenvalues --    0.07485   0.07952   0.08484   0.09229   0.10430
 Alpha virt. eigenvalues --    0.12634   0.13270   0.13766   0.14669   0.15034

 Mulliken charges:
               1
     1  C   -0.499058
     2  C    0.209963
     3  N   -0.709248
     4  C   -0.102101
     5  O   -0.567247
     6  H    0.159756
     7  H    0.175009
     8  H    0.326414
     9  H    0.303328
    10  H    0.149045
    11  H    0.186024
    12  H    0.368115
 Sum of Mulliken charges =  -0.00000

 Dipole moment (field-independent basis, Debye):
    X=             -0.4989    Y=              0.1075    Z=             -1.4196  Tot=              1.5086
 Quadrupole moment (field-independent basis, Debye-Ang):
   XX=            -34.3934   YY=            -28.7481   ZZ=            -31.1947
   XY=              2.1687   XZ=              0.3865   YZ=              1.9388

 Normal termination of Gaussian 09 at Fri Aug 26 12:15:55 2022.
