 Gaussian 09, Revision E.01,
 Gaussian 09:  ES64L-G09RevE.01 30-Nov-2015

 -----
 #P G4
 -----

 --------
 Frag_940
 --------
 Symbolic Z-matrix:
 Charge =  0 Multiplicity = 1

 SCF Done:  E(RB3LYP) =  -403.584389740     A.U. after   12 cycles
 SCF Done:  E(RB3LYP) =  -403.592557848     A.U. after   11 cycles
 SCF Done:  E(RB3LYP) =  -403.594527282     A.U. after   10 cycles
 SCF Done:  E(RB3LYP) =  -403.595799439     A.U. after   11 cycles
 SCF Done:  E(RB3LYP) =  -403.595462914     A.U. after   11 cycles
 SCF Done:  E(RB3LYP) =  -403.595958536     A.U. after    8 cycles
 SCF Done:  E(RB3LYP) =  -403.596013200     A.U. after   10 cycles
 SCF Done:  E(RB3LYP) =  -403.596192184     A.U. after    9 cycles
 SCF Done:  E(RB3LYP) =  -403.596209925     A.U. after    9 cycles
 SCF Done:  E(RB3LYP) =  -403.596235901     A.U. after    9 cycles
 SCF Done:  E(RB3LYP) =  -403.601964241     A.U. after    7 cycles
 SCF Done:  E(RB3LYP) =  -403.601965566     A.U. after    7 cycles
 SCF Done:  E(RB3LYP) =  -403.601965414     A.U. after    6 cycles
 Optimization completed.
    -- Stationary point found.
 Normal termination of Gaussian 09 at Fri Aug 19 19:10:10 2022.

 ----------------------------------------------------------
 #P Geom=AllCheck Guess=TCheck SCRF=Check B3LYP/GTBas3 Freq
 ----------------------------------------------------------

 Structure from the checkpoint file:  "G4.Frag_940.chk"
 --------
 Frag_940
 --------
 Charge =  0 Multiplicity = 1

 SCF Done:  E(RB3LYP) =  -403.601965414     A.U. after    1 cycles

  Exact polarizability:  75.175   0.680  68.502   0.864  -0.021  66.049
 Approx polarizability: 101.887   0.120  97.416   0.347  -0.188  96.119

                      1                      2                      3
                      A                      A                      A
 Frequencies --    111.6013               200.7071               236.8140
 Red. masses --      3.0932                 1.0306                 1.3439
 Frc consts  --      0.0227                 0.0245                 0.0444
 IR Inten    --      2.9011                 0.2737                 0.9625

                      4                      5                      6
                      A                      A                      A
 Frequencies --    256.1374               267.4489               269.7425
 Red. masses --      1.1326                 2.6722                 1.8173
 Frc consts  --      0.0438                 0.1126                 0.0779
 IR Inten    --     23.9682                 2.9122                11.4008

                      7                      8                      9
                      A                      A                      A
 Frequencies --    277.9595               329.2255               349.6227
 Red. masses --      1.1517                 1.3159                 2.3593
 Frc consts  --      0.0524                 0.0840                 0.1699
 IR Inten    --     44.2909                17.7677                 3.6931

                     10                     11                     12
                      A                      A                      A
 Frequencies --    369.3483               376.9216               413.8278
 Red. masses --      2.6781                 2.5760                 2.5836
 Frc consts  --      0.2153                 0.2156                 0.2607
 IR Inten    --      5.7458                 4.6103                 1.2645

                     13                     14                     15
                      A                      A                      A
 Frequencies --    434.2374               525.0975               531.3848
 Red. masses --      2.7993                 3.4114                 2.5421
 Frc consts  --      0.3110                 0.5542                 0.4229
 IR Inten    --     11.9229                 7.8001                 0.6371

                     16                     17                     18
                      A                      A                      A
 Frequencies --    570.6739               676.1142               707.2809
 Red. masses --      3.8955                 2.3153                 1.3457
 Frc consts  --      0.7475                 0.6236                 0.3966
 IR Inten    --     23.2657                10.4880                82.6481

                     19                     20                     21
                      A                      A                      A
 Frequencies --    838.4910               910.8924               928.1002
 Red. masses --      2.8456                 2.2452                 1.3882
 Frc consts  --      1.1788                 1.0976                 0.7045
 IR Inten    --     33.1747                48.3596                99.1206

                     22                     23                     24
                      A                      A                      A
 Frequencies --    937.6569               952.0676               970.5507
 Red. masses --      1.4984                 2.1010                 1.7261
 Frc consts  --      0.7762                 1.1221                 0.9579
 IR Inten    --      4.4630                27.7016                 1.6761

                     25                     26                     27
                      A                      A                      A
 Frequencies --   1019.8872              1080.7030              1094.1893
 Red. masses --      1.3091                 1.5580                 1.5292
 Frc consts  --      0.8023                 1.0721                 1.0787
 IR Inten    --      9.2579                31.8610                 1.0687

                     28                     29                     30
                      A                      A                      A
 Frequencies --   1120.2530              1181.9388              1222.5638
 Red. masses --      2.5732                 2.5212                 2.6653
 Frc consts  --      1.9026                 2.0752                 2.3472
 IR Inten    --    131.1414                98.4033                 9.7882

                     31                     32                     33
                      A                      A                      A
 Frequencies --   1250.3365              1333.0042              1359.8163
 Red. masses --      2.7996                 1.6911                 1.7085
 Frc consts  --      2.5787                 1.7704                 1.8613
 IR Inten    --     30.4528                 5.3969                 7.9755

                     34                     35                     36
                      A                      A                      A
 Frequencies --   1396.4275              1399.2973              1419.4579
 Red. masses --      1.2641                 1.2856                 1.2443
 Frc consts  --      1.4523                 1.4832                 1.4771
 IR Inten    --      2.7696                22.5784                 8.9131

                     37                     38                     39
                      A                      A                      A
 Frequencies --   1450.6426              1478.7521              1484.1825
 Red. masses --      1.4825                 1.0549                 1.0519
 Frc consts  --      1.8380                 1.3592                 1.3652
 IR Inten    --    132.2483                 4.0432                 2.1763

                     40                     41                     42
                      A                      A                      A
 Frequencies --   1490.8621              1499.3978              1503.4305
 Red. masses --      1.0908                 1.0513                 1.0569
 Frc consts  --      1.4285                 1.3926                 1.4076
 IR Inten    --      6.9322                 2.1308                 2.8361

                     43                     44                     45
                      A                      A                      A
 Frequencies --   1516.5670              1632.4869              3032.4357
 Red. masses --      1.0890                 1.0981                 1.0380
 Frc consts  --      1.4758                 1.7243                 5.6238
 IR Inten    --     11.7564                43.0126                15.7521

                     46                     47                     48
                      A                      A                      A
 Frequencies --   3040.2878              3053.4188              3093.6642
 Red. masses --      1.0402                 1.0372                 1.0997
 Frc consts  --      5.6647                 5.6974                 6.2014
 IR Inten    --     28.0693                 9.0476                19.3805

                     49                     50                     51
                      A                      A                      A
 Frequencies --   3107.3096              3122.0444              3130.6902
 Red. masses --      1.0952                 1.0985                 1.0998
 Frc consts  --      6.2302                 6.3084                 6.3508
 IR Inten    --     37.2020                12.6593                17.3032

                     52                     53                     54
                      A                      A                      A
 Frequencies --   3136.9296              3145.6465              3497.0095
 Red. masses --      1.1018                 1.1026                 1.0484
 Frc consts  --      6.3879                 6.4284                 7.5536
 IR Inten    --     21.5800                14.1133                 0.9795

                     55                     56                     57
                      A                      A                      A
 Frequencies --   3582.5188              3615.2578              3810.6873
 Red. masses --      1.0935                 1.0638                 1.0655
 Frc consts  --      8.2685                 8.1922                 9.1161
 IR Inten    --      2.1647               107.2668                26.6809

 - Thermochemistry -
 -------------------
 Temperature   298.150 Kelvin.  Pressure   1.00000 Atm.
 Atom     1 has atomic number  6 and mass  12.00000

 Molecular mass:   119.09463 amu.
 Principal axes and moments of inertia in atomic units:
                           1         2         3
     Eigenvalues --   732.957671015.222681019.14663
           X            0.99962   0.02294   0.01555
           Y           -0.02491   0.98962   0.14154
           Z           -0.01214  -0.14187   0.98981
 This molecule is an asymmetric top.
 Rotational symmetry number  1.
 Warning -- assumption of classical behavior for rotation
           may cause significant error
 Rotational temperatures (Kelvin)      0.11817     0.08532     0.08499
 Rotational constants (GHZ):           2.46227     1.77768     1.77084
 Zero-point vibrational energy     488937.7 (Joules/Mol)
                                  116.85891 (Kcal/Mol)
 Warning -- explicit consideration of  16 degrees of freedom as
           vibrations may cause significant error
 Vibrational temperatures:    160.57   288.77   340.72   368.52   384.80
          (Kelvin)            388.10   399.92   473.68   503.03   531.41
                              542.31   595.41   624.77   755.50   764.54
                              821.07   972.78  1017.62  1206.40  1310.57
                             1335.33  1349.08  1369.81  1396.40  1467.39
                             1554.89  1574.29  1611.79  1700.54  1758.99
                             1798.95  1917.89  1956.47  2009.15  2013.27
                             2042.28  2087.15  2127.59  2135.40  2145.02
                             2157.30  2163.10  2182.00  2348.78  4362.99
                             4374.29  4393.18  4451.09  4470.72  4491.92
                             4504.36  4513.34  4525.88  5031.41  5154.44
                             5201.54  5482.72

 Zero-point correction=                           0.186227 (Hartree/Particle)
 Thermal correction to Energy=                    0.196032
 Thermal correction to Enthalpy=                  0.196976
 Thermal correction to Gibbs Free Energy=         0.153266
 Sum of electronic and zero-point Energies=           -403.415739
 Sum of electronic and thermal Energies=              -403.405933
 Sum of electronic and thermal Enthalpies=            -403.404989
 Sum of electronic and thermal Free Energies=         -403.448700

                     E (Thermal)             CV                S
                      KCal/Mol        Cal/Mol-Kelvin    Cal/Mol-Kelvin
 Total                  123.012             38.472             91.997
 Electronic               0.000              0.000              0.000
 Translational            0.889              2.981             40.239
 Rotational               0.889              2.981             28.119
 Vibrational            121.234             32.510             23.639
 Vibration     1          0.607              1.940              3.241
 Vibration     2          0.638              1.839              2.127
 Vibration     3          0.656              1.784              1.827
 Vibration     4          0.666              1.752              1.688
 Vibration     5          0.673              1.733              1.613
 Vibration     6          0.674              1.729              1.598
 Vibration     7          0.679              1.714              1.546
 Vibration     8          0.712              1.617              1.264
 Vibration     9          0.727              1.576              1.168
 Vibration    10          0.742              1.535              1.082
 Vibration    11          0.747              1.519              1.051
 Vibration    12          0.777              1.440              0.913
 Vibration    13          0.795              1.396              0.845
 Vibration    14          0.880              1.194              0.598
 Vibration    15          0.886              1.181              0.584
 Vibration    16          0.927              1.095              0.503

 Optimization completed.
    -- Stationary point found.
 Normal termination of Gaussian 09 at Fri Aug 19 19:23:21 2022.

 -----------------------------------------------------------------
 #P Geom=AllCheck Guess=TCheck SCRF=Check CCSD(T,E4T,FrzG4)/GTBas1
 -----------------------------------------------------------------

 Structure from the checkpoint file:  "G4.Frag_940.chk"
 --------
 Frag_940
 --------
 Charge =  0 Multiplicity = 1

 SCF Done:  E(RHF) =  -401.076776827     A.U. after   11 cycles
 E2 =    -0.1191787756D+01 EUMP2 =    -0.40226856458288D+03
 CCSD(T)
 CCSD(T)= -0.40237475066D+03
 MP4SDTQ=-402.3746521\MP4SDQ=-402.3387035\CCSD=-402.3392045\CCSD(T)=-40
 Normal termination of Gaussian 09 at Fri Aug 19 20:00:50 2022.

 ---------------------------------------------------------
 #P Geom=AllCheck Guess=TCheck SCRF=Check MP4=FrzG4/GTBas2
 ---------------------------------------------------------

 Structure from the checkpoint file:  "G4.Frag_940.chk"
 --------
 Frag_940
 --------
 Charge =  0 Multiplicity = 1

 SCF Done:  E(RHF) =  -401.088576706     A.U. after   12 cycles
 E2 =    -0.1212257381D+01 EUMP2 =    -0.40230083408713D+03
 Normal termination of Gaussian 09 at Fri Aug 19 20:54:13 2022.

 ---------------------------------------------------------
 #P Geom=AllCheck Guess=TCheck SCRF=Check MP4=FrzG4/GTBas3
 ---------------------------------------------------------

 Structure from the checkpoint file:  "G4.Frag_940.chk"
 --------
 Frag_940
 --------
 Charge =  0 Multiplicity = 1

 SCF Done:  E(RHF) =  -401.132743019     A.U. after   10 cycles
 E2 =    -0.1482235388D+01 EUMP2 =    -0.40261497840654D+03
 Normal termination of Gaussian 09 at Sat Aug 20 12:46:19 2022.

 -----------------------------------------------------------
 #P Geom=AllCheck Guess=TCheck SCRF=Check MP2=Full/GTLargeXP
 -----------------------------------------------------------

 Structure from the checkpoint file:  "G4.Frag_940.chk"
 --------
 Frag_940
 --------
 Charge =  0 Multiplicity = 1

 SCF Done:  E(RHF) =  -401.235134914     A.U. after   12 cycles
 E2 =    -0.1935178080D+01 EUMP2 =    -0.40317031299423D+03
 Normal termination of Gaussian 09 at Sat Aug 20 13:14:09 2022.
 SCF Done:  E(RHF) =  -401.266865852     A.U. after    8 cycles
 Normal termination of Gaussian 09 at Sat Aug 20 13:31:11 2022.

                         Standard orientation:
 ---------------------------------------------------------------------
 Center     Atomic      Atomic             Coordinates (Angstroms)
 Number     Number       Type             X           Y           Z
 ---------------------------------------------------------------------
      1          6           0       -1.298796    0.348466    1.429366
      2          6           0       -0.772553    0.034457    0.018847
      3          6           0       -1.312404    1.054320   -0.992445
      4          7           0       -1.176136   -1.311599   -0.446683
      5          6           0        0.791810   -0.016017   -0.022599
      6          6           0        1.505686    1.306915    0.239335
      7          8           0        1.211982   -0.474447   -1.278996
      8          8           0        1.148180   -0.968964    0.984414
      9          1           0       -1.003600    1.348466    1.763417
     10          1           0       -2.393932    0.311870    1.433999
     11          1           0       -0.921755   -0.375857    2.154370
     12          1           0       -2.401168    0.960219   -1.074083
     13          1           0       -1.098364    2.078653   -0.678003
     14          1           0       -0.875323    0.892197   -1.980028
     15          1           0       -0.939984   -1.991561    0.269884
     16          1           0       -2.179929   -1.348171   -0.591078
     17          1           0        2.585388    1.140521    0.175194
     18          1           0        1.274495    1.684024    1.237205
     19          1           0        1.240190    2.059282   -0.506119
     20          1           0        0.542983   -1.141268   -1.519647
     21          1           0        2.040200   -1.258739    0.763309
 ---------------------------------------------------------------------

 SCF Done:  E(RHF) =  -401.273847858     A.U. after    8 cycles

 The electronic state is 1-A.
 Alpha  occ. eigenvalues --  -20.55259 -20.54597 -15.54561 -11.33267 -11.26836
 Alpha  occ. eigenvalues --  -11.21575 -11.21361 -11.21346  -1.40610  -1.32177
 Alpha  occ. eigenvalues --   -1.19419  -1.03892  -0.98148  -0.93772  -0.86135
 Alpha  occ. eigenvalues --   -0.75706  -0.72116  -0.66838  -0.64386  -0.63558
 Alpha  occ. eigenvalues --   -0.61782  -0.59419  -0.55850  -0.55400  -0.54779
 Alpha  occ. eigenvalues --   -0.53788  -0.52629  -0.51994  -0.48720  -0.47832
 Alpha  occ. eigenvalues --   -0.46390  -0.43542  -0.40463
 Alpha virt. eigenvalues --    0.03038   0.04113   0.04366   0.04714   0.06034
 Alpha virt. eigenvalues --    0.06553   0.06936   0.07010   0.07216   0.09122
 Alpha virt. eigenvalues --    0.09380   0.09567   0.09757   0.10388   0.11322

 Mulliken charges:
               1
     1  C   -0.607385
     2  C    0.429692
     3  C   -0.615319
     4  N   -0.830994
     5  C    0.524005
     6  C   -0.593241
     7  O   -0.648736
     8  O   -0.659819
     9  H    0.166464
    10  H    0.165256
    11  H    0.198838
    12  H    0.163062
    13  H    0.175211
    14  H    0.193433
    15  H    0.323379
    16  H    0.298970
    17  H    0.174703
    18  H    0.180350
    19  H    0.173402
    20  H    0.410706
    21  H    0.378024
 Sum of Mulliken charges =  -0.00000

 Dipole moment (field-independent basis, Debye):
    X=             -1.3206    Y=              0.3035    Z=              0.7358  Tot=              1.5420
 Quadrupole moment (field-independent basis, Debye-Ang):
   XX=            -47.0597   YY=            -49.1076   ZZ=            -55.5395
   XY=              0.6384   XZ=              2.1996   YZ=              0.0025

 Normal termination of Gaussian 09 at Sat Aug 20 21:46:03 2022.
