 Gaussian 09, Revision E.01,
 Gaussian 09:  ES64L-G09RevE.01 30-Nov-2015

 -----
 #P G4
 -----

 --------
 Frag_557
 --------
 Symbolic Z-matrix:
 Charge =  0 Multiplicity = 1

 SCF Done:  E(RB3LYP) =  -248.479931143     A.U. after   13 cycles
 SCF Done:  E(RB3LYP) =  -248.494056315     A.U. after   12 cycles
 SCF Done:  E(RB3LYP) =  -248.494411979     A.U. after   10 cycles
 SCF Done:  E(RB3LYP) =  -248.494459989     A.U. after    8 cycles
 SCF Done:  E(RB3LYP) =  -248.494462831     A.U. after    8 cycles
 SCF Done:  E(RB3LYP) =  -248.494463218     A.U. after    7 cycles
 SCF Done:  E(RB3LYP) =  -248.494464254     A.U. after    8 cycles
 SCF Done:  E(RB3LYP) =  -248.494462969     A.U. after    8 cycles
 SCF Done:  E(RB3LYP) =  -248.466949188     A.U. after   13 cycles
 SCF Done:  E(RB3LYP) =  -248.494465509     A.U. after    7 cycles
 SCF Done:  E(RB3LYP) =  -248.503975841     A.U. after    8 cycles
 SCF Done:  E(RB3LYP) =  -248.503978336     A.U. after    8 cycles
 SCF Done:  E(RB3LYP) =  -248.503979060     A.U. after    8 cycles
 Optimization completed.
    -- Stationary point found.
 Normal termination of Gaussian 09 at Fri Aug 26 10:39:14 2022.

 ----------------------------------------------------------
 #P Geom=AllCheck Guess=TCheck SCRF=Check B3LYP/GTBas3 Freq
 ----------------------------------------------------------

 Structure from the checkpoint file:  "G4.Frag_557.chk"
 --------
 Frag_557
 --------
 Charge =  0 Multiplicity = 1

 SCF Done:  E(RB3LYP) =  -248.503979060     A.U. after    1 cycles

  Exact polarizability:  65.404   4.559  44.657   0.349  -0.301  28.842
 Approx polarizability:  91.878  12.454  66.033  -0.923  -0.033  42.476

                      1                      2                      3
                      A                      A                      A
 Frequencies --    205.2247               218.1801               246.7574
 Red. masses --      1.4541                 1.1053                 2.7732
 Frc consts  --      0.0361                 0.0310                 0.0995
 IR Inten    --     25.3692                84.5355                18.4077

                      4                      5                      6
                      A                      A                      A
 Frequencies --    267.4371               334.0873               386.7446
 Red. masses --      1.5738                 1.2140                 2.6554
 Frc consts  --      0.0663                 0.0798                 0.2340
 IR Inten    --      8.1155                48.7785                 3.1735

                      7                      8                      9
                      A                      A                      A
 Frequencies --    541.2750               598.8086               773.5712
 Red. masses --      3.3854                 3.5776                 1.3433
 Frc consts  --      0.5844                 0.7558                 0.4736
 IR Inten    --     18.0898                 3.2633               279.0737

                     10                     11                     12
                      A                      A                      A
 Frequencies --    832.7505               856.5206              1002.8092
 Red. masses --      1.2942                 4.0004                 1.4788
 Frc consts  --      0.5288                 1.7291                 0.8762
 IR Inten    --     36.4590                28.6382                 1.9054

                     13                     14                     15
                      A                      A                      A
 Frequencies --   1066.3014              1121.9519              1185.1123
 Red. masses --      1.4184                 1.3988                 2.0369
 Frc consts  --      0.9502                 1.0374                 1.6855
 IR Inten    --      3.0703                68.3145                 1.8733

                     16                     17                     18
                      A                      A                      A
 Frequencies --   1251.7644              1316.3421              1388.2699
 Red. masses --      1.8397                 2.2072                 1.3766
 Frc consts  --      1.6984                 2.2533                 1.5632
 IR Inten    --     53.6029               122.4787                13.3983

                     19                     20                     21
                      A                      A                      A
 Frequencies --   1419.0541              1470.9277              1497.7849
 Red. masses --      1.3279                 1.0440                 1.0597
 Frc consts  --      1.5755                 1.3309                 1.4006
 IR Inten    --      6.7965                 6.1789                 6.4078

                     22                     23                     24
                      A                      A                      A
 Frequencies --   1643.0681              1795.1555              2989.3476
 Red. masses --      1.1169                 5.9667                 1.0460
 Frc consts  --      1.7766                11.3290                 5.5074
 IR Inten    --     33.5923                18.0112                63.8790

                     25                     26                     27
                      A                      A                      A
 Frequencies --   3034.0011              3118.0401              3202.2700
 Red. masses --      1.0935                 1.0946                 1.0909
 Frc consts  --      5.9305                 6.2701                 6.5907
 IR Inten    --     33.6854                15.2581                11.2958

                     28                     29                     30
                      A                      A                      A
 Frequencies --   3518.5094              3615.7902              3822.0436
 Red. masses --      1.0471                 1.0957                 1.0663
 Frc consts  --      7.6379                 8.4400                 9.1773
 IR Inten    --      3.4286                 7.6567                32.2670

 - Thermochemistry -
 -------------------
 Temperature   298.150 Kelvin.  Pressure   1.00000 Atm.
 Atom     1 has atomic number  6 and mass  12.00000

 Molecular mass:    73.05276 amu.
 Principal axes and moments of inertia in atomic units:
                           1         2         3
     Eigenvalues --   189.79311 479.51924 654.38999
           X            0.99977  -0.01982   0.00871
           Y            0.01989   0.99977  -0.00836
           Z           -0.00854   0.00853   0.99993
 This molecule is an asymmetric top.
 Rotational symmetry number  1.
 Rotational temperatures (Kelvin)      0.45636     0.18063     0.13236
 Rotational constants (GHZ):           9.50899     3.76365     2.75790
 Zero-point vibrational energy     267484.4 (Joules/Mol)
                                   63.93031 (Kcal/Mol)
 Warning -- explicit consideration of   8 degrees of freedom as
           vibrations may cause significant error
 Vibrational temperatures:    295.27   313.91   355.03   384.78   480.68
          (Kelvin)            556.44   778.77   861.55  1113.00  1198.14
                             1232.34  1442.82  1534.17  1614.24  1705.11
                             1801.01  1893.92  1997.41  2041.70  2116.33
                             2154.98  2364.01  2582.83  4301.00  4365.25
                             4486.16  4607.35  5062.34  5202.31  5499.06

 Zero-point correction=                           0.101879 (Hartree/Particle)
 Thermal correction to Energy=                    0.108187
 Thermal correction to Enthalpy=                  0.109131
 Thermal correction to Gibbs Free Energy=         0.073003
 Sum of electronic and zero-point Energies=           -248.402100
 Sum of electronic and thermal Energies=              -248.395792
 Sum of electronic and thermal Enthalpies=            -248.394848
 Sum of electronic and thermal Free Energies=         -248.430976

                     E (Thermal)             CV                S
                      KCal/Mol        Cal/Mol-Kelvin    Cal/Mol-Kelvin
 Total                   67.888             22.177             76.039
 Electronic               0.000              0.000              0.000
 Translational            0.889              2.981             38.782
 Rotational               0.889              2.981             25.591
 Vibrational             66.111             16.215             11.666
 Vibration     1          0.640              1.832              2.086
 Vibration     2          0.646              1.813              1.974
 Vibration     3          0.661              1.768              1.754
 Vibration     4          0.673              1.733              1.613
 Vibration     5          0.716              1.607              1.240
 Vibration     6          0.755              1.498              1.013
 Vibration     7          0.896              1.159              0.563
 Vibration     8          0.957              1.034              0.452

 Optimization completed.
    -- Stationary point found.
 Normal termination of Gaussian 09 at Fri Aug 26 10:39:35 2022.

 -----------------------------------------------------------------
 #P Geom=AllCheck Guess=TCheck SCRF=Check CCSD(T,E4T,FrzG4)/GTBas1
 -----------------------------------------------------------------

 Structure from the checkpoint file:  "G4.Frag_557.chk"
 --------
 Frag_557
 --------
 Charge =  0 Multiplicity = 1

 SCF Done:  E(RHF) =  -246.950868733     A.U. after   13 cycles
 E2 =    -0.7283747189D+00 EUMP2 =    -0.24767924345217D+03
 CCSD(T)
 CCSD(T)= -0.24774490925D+03
 SD=-247.7220351\CCSD(T)=-247.7449093\RMSD=2.811e-09\PG=C01 [X(C3H7N1O1
 Normal termination of Gaussian 09 at Fri Aug 26 10:40:30 2022.

 ---------------------------------------------------------
 #P Geom=AllCheck Guess=TCheck SCRF=Check MP4=FrzG4/GTBas2
 ---------------------------------------------------------

 Structure from the checkpoint file:  "G4.Frag_557.chk"
 --------
 Frag_557
 --------
 Charge =  0 Multiplicity = 1

 SCF Done:  E(RHF) =  -246.961191540     A.U. after   12 cycles
 E2 =    -0.7401536151D+00 EUMP2 =    -0.24770134515526D+03
 Normal termination of Gaussian 09 at Fri Aug 26 10:40:46 2022.

 ---------------------------------------------------------
 #P Geom=AllCheck Guess=TCheck SCRF=Check MP4=FrzG4/GTBas3
 ---------------------------------------------------------

 Structure from the checkpoint file:  "G4.Frag_557.chk"
 --------
 Frag_557
 --------
 Charge =  0 Multiplicity = 1

 SCF Done:  E(RHF) =  -246.988679344     A.U. after   11 cycles
 E2 =    -0.8961588965D+00 EUMP2 =    -0.24788483824086D+03
 Normal termination of Gaussian 09 at Fri Aug 26 10:42:10 2022.

 -----------------------------------------------------------
 #P Geom=AllCheck Guess=TCheck SCRF=Check MP2=Full/GTLargeXP
 -----------------------------------------------------------

 Structure from the checkpoint file:  "G4.Frag_557.chk"
 --------
 Frag_557
 --------
 Charge =  0 Multiplicity = 1

 SCF Done:  E(RHF) =  -247.055578832     A.U. after   12 cycles
 E2 =    -0.1176589325D+01 EUMP2 =    -0.24823216815757D+03
 Normal termination of Gaussian 09 at Fri Aug 26 10:43:01 2022.
 SCF Done:  E(RHF) =  -247.075726367     A.U. after    9 cycles
 Normal termination of Gaussian 09 at Fri Aug 26 10:44:05 2022.

                         Standard orientation:
 ---------------------------------------------------------------------
 Center     Atomic      Atomic             Coordinates (Angstroms)
 Number     Number       Type             X           Y           Z
 ---------------------------------------------------------------------
      1          6           0        1.782640   -0.637709    0.003053
      2          6           0        0.421789   -0.020710   -0.010634
      3          8           0        0.365193    1.365229    0.043497
      4          6           0       -0.731916   -0.695210   -0.006283
      5          7           0       -2.001450   -0.099850    0.093917
      6          1           0        1.717772   -1.727158   -0.048847
      7          1           0        2.342000   -0.371948    0.910332
      8          1           0        2.385785   -0.301930   -0.854549
      9          1           0        1.172376    1.721721   -0.339556
     10          1           0       -0.717881   -1.778529    0.015634
     11          1           0       -1.956682    0.893851   -0.099028
     12          1           0       -2.689840   -0.537113   -0.506202
 ---------------------------------------------------------------------

 SCF Done:  E(RHF) =  -247.080074884     A.U. after    8 cycles

 The electronic state is 1-A.
 Alpha  occ. eigenvalues --  -20.57309 -15.54632 -11.27119 -11.24314 -11.23068
 Alpha  occ. eigenvalues --   -1.38439  -1.18993  -1.03210  -0.92245  -0.77683
 Alpha  occ. eigenvalues --   -0.68569  -0.67061  -0.63388  -0.60339  -0.55535
 Alpha  occ. eigenvalues --   -0.54791  -0.53399  -0.50370  -0.46851  -0.29453
 Alpha virt. eigenvalues --    0.03715   0.04423   0.04903   0.06154   0.06682
 Alpha virt. eigenvalues --    0.07146   0.08192   0.08968   0.10057   0.10495
 Alpha virt. eigenvalues --    0.11867   0.12737   0.14495   0.15309   0.16337

 Mulliken charges:
               1
     1  C   -0.522432
     2  C    0.216548
     3  O   -0.591834
     4  C   -0.104617
     5  N   -0.686244
     6  H    0.172190
     7  H    0.186243
     8  H    0.164523
     9  H    0.371030
    10  H    0.178188
    11  H    0.319758
    12  H    0.296648
 Sum of Mulliken charges =  -0.00000

 Dipole moment (field-independent basis, Debye):
    X=              1.3389    Y=             -0.4296    Z=             -1.7347  Tot=              2.2330
 Quadrupole moment (field-independent basis, Debye-Ang):
   XX=            -26.9642   YY=            -28.9552   ZZ=            -33.7076
   XY=              2.0221   XZ=              2.6204   YZ=             -1.0487

 Normal termination of Gaussian 09 at Fri Aug 26 10:50:32 2022.
