 Gaussian 09, Revision E.01,
 Gaussian 09:  ES64L-G09RevE.01 30-Nov-2015

 -----
 #P G4
 -----

 ---------
 Frag_1065
 ---------
 Symbolic Z-matrix:
 Charge =  0 Multiplicity = 1

 SCF Done:  E(RB3LYP) =  -285.188565082     A.U. after   13 cycles
 SCF Done:  E(RB3LYP) =  -285.195258770     A.U. after   11 cycles
 SCF Done:  E(RB3LYP) =  -285.195710719     A.U. after   10 cycles
 SCF Done:  E(RB3LYP) =  -285.195870830     A.U. after   10 cycles
 SCF Done:  E(RB3LYP) =  -285.195926938     A.U. after    9 cycles
 SCF Done:  E(RB3LYP) =  -285.195980037     A.U. after   10 cycles
 SCF Done:  E(RB3LYP) =  -285.196029979     A.U. after   10 cycles
 SCF Done:  E(RB3LYP) =  -285.195985208     A.U. after   10 cycles
 SCF Done:  E(RB3LYP) =  -285.191860474     A.U. after   13 cycles
 SCF Done:  E(RB3LYP) =  -285.197237979     A.U. after   12 cycles
 SCF Done:  E(RB3LYP) =  -285.200848532     A.U. after    9 cycles
 SCF Done:  E(RB3LYP) =  -285.200849879     A.U. after    7 cycles
 SCF Done:  E(RB3LYP) =  -285.200850019     A.U. after    6 cycles
 Optimization completed.
    -- Stationary point found.
 Normal termination of Gaussian 09 at Thu Aug 25 02:28:40 2022.

 ----------------------------------------------------------
 #P Geom=AllCheck Guess=TCheck SCRF=Check B3LYP/GTBas3 Freq
 ----------------------------------------------------------

 Structure from the checkpoint file:  "G4.Frag_1065.chk"
 ---------
 Frag_1065
 ---------
 Charge =  0 Multiplicity = 1

 SCF Done:  E(RB3LYP) =  -285.200850019     A.U. after    1 cycles

  Exact polarizability:  62.759  -0.916  55.848  -0.298   0.777  52.413
 Approx polarizability:  80.429  -1.606  78.002   0.053   0.175  75.795

                      1                      2                      3
                      A                      A                      A
 Frequencies --    116.3461               211.2642               233.5952
 Red. masses --      2.9665                 1.4121                 1.0438
 Frc consts  --      0.0237                 0.0371                 0.0336
 IR Inten    --      2.0401                 8.1754                10.6240

                      4                      5                      6
                      A                      A                      A
 Frequencies --    252.0369               275.0867               306.4811
 Red. masses --      1.2680                 1.3806                 1.5622
 Frc consts  --      0.0475                 0.0616                 0.0865
 IR Inten    --     10.0840                 8.1879                10.5552

                      7                      8                      9
                      A                      A                      A
 Frequencies --    324.9526               390.4479               458.5251
 Red. masses --      1.6713                 2.1751                 2.2895
 Frc consts  --      0.1040                 0.1954                 0.2836
 IR Inten    --     25.1817                 6.8031                20.7598

                     10                     11                     12
                      A                      A                      A
 Frequencies --    533.6931               614.8766               786.9857
 Red. masses --      3.3702                 2.9254                 2.2569
 Frc consts  --      0.5656                 0.6516                 0.8236
 IR Inten    --      9.9146                20.1180                41.5098

                     13                     14                     15
                      A                      A                      A
 Frequencies --    841.3961               892.8667               973.4433
 Red. masses --      1.9014                 1.4335                 2.1134
 Frc consts  --      0.7931                 0.6733                 1.1799
 IR Inten    --    117.0104                96.2041                13.5461

                     16                     17                     18
                      A                      A                      A
 Frequencies --   1024.8334              1067.8915              1093.9989
 Red. masses --      1.9236                 1.5569                 2.8536
 Frc consts  --      1.1904                 1.0461                 2.0122
 IR Inten    --     52.7561                21.5643                73.9292

                     19                     20                     21
                      A                      A                      A
 Frequencies --   1120.1866              1167.3094              1195.3222
 Red. masses --      1.2829                 1.5527                 1.5333
 Frc consts  --      0.9485                 1.2465                 1.2907
 IR Inten    --      4.0123                14.1383                12.2025

                     22                     23                     24
                      A                      A                      A
 Frequencies --   1261.9448              1275.2420              1324.4017
 Red. masses --      1.6008                 2.0226                 2.3440
 Frc consts  --      1.5020                 1.9379                 2.4224
 IR Inten    --     14.8046                12.0865                43.4175

                     25                     26                     27
                      A                      A                      A
 Frequencies --   1384.6272              1430.6039              1441.4198
 Red. masses --      1.3538                 1.1548                 1.2234
 Frc consts  --      1.5292                 1.3925                 1.4976
 IR Inten    --     33.8786                 2.6147                14.4286

                     28                     29                     30
                      A                      A                      A
 Frequencies --   1475.9556              1479.9965              1500.4157
 Red. masses --      1.2046                 1.0524                 1.0746
 Frc consts  --      1.5461                 1.3582                 1.4253
 IR Inten    --     19.5268                11.3262                 4.1799

                     31                     32                     33
                      A                      A                      A
 Frequencies --   1508.4426              1523.6168              1627.9325
 Red. masses --      1.0552                 1.0567                 1.1052
 Frc consts  --      1.4146                 1.4452                 1.7256
 IR Inten    --      2.2214                12.4649                35.6805

                     34                     35                     36
                      A                      A                      A
 Frequencies --   1652.9856              2953.5596              2961.1088
 Red. masses --      1.0992                 1.0576                 1.0795
 Frc consts  --      1.7695                 5.4356                 5.5766
 IR Inten    --     25.9479                67.5172                46.3860

                     37                     38                     39
                      A                      A                      A
 Frequencies --   2973.2163              3057.1601              3064.9097
 Red. masses --      1.0557                 1.0809                 1.0780
 Frc consts  --      5.4984                 5.9521                 5.9662
 IR Inten    --     78.1662                36.8721                38.0335

                     40                     41                     42
                      A                      A                      A
 Frequencies --   3095.3747              3132.2028              3487.7035
 Red. masses --      1.1021                 1.0977                 1.0492
 Frc consts  --      6.2217                 6.3451                 7.5192
 IR Inten    --     35.0949                12.0775                 0.2214

                     43                     44                     45
                      A                      A                      A
 Frequencies --   3490.4128              3573.6341              3578.6580
 Red. masses --      1.0485                 1.0924                 1.0928
 Frc consts  --      7.5263                 8.2196                 8.2455
 IR Inten    --      0.3142                 1.3908                 0.1037

 - Thermochemistry -
 -------------------
 Temperature   298.150 Kelvin.  Pressure   1.00000 Atm.
 Atom     1 has atomic number  6 and mass  12.00000

 Molecular mass:    89.09530 amu.
 Principal axes and moments of inertia in atomic units:
                           1         2         3
     Eigenvalues --   384.08786 639.97092 731.71808
           X            0.99995  -0.00255  -0.01003
           Y            0.00344   0.99594   0.08996
           Z            0.00976  -0.08999   0.99590
 This molecule is an asymmetric top.
 Rotational symmetry number  1.
 Rotational temperatures (Kelvin)      0.22551     0.13534     0.11837
 Rotational constants (GHZ):           4.69877     2.82004     2.46644
 Zero-point vibrational energy     407550.1 (Joules/Mol)
                                   97.40682 (Kcal/Mol)
 Warning -- explicit consideration of  11 degrees of freedom as
           vibrations may cause significant error
 Vibrational temperatures:    167.40   303.96   336.09   362.62   395.79
          (Kelvin)            440.96   467.53   561.77   659.71   767.86
                              884.67  1132.30  1210.58  1284.63  1400.57
                             1474.50  1536.46  1574.02  1611.70  1679.50
                             1719.80  1815.65  1834.79  1905.52  1992.17
                             2058.32  2073.88  2123.57  2129.38  2158.76
                             2170.31  2192.14  2342.23  2378.27  4249.51
                             4260.37  4277.79  4398.57  4409.72  4453.55
                             4506.54  5018.02  5021.92  5141.66  5148.88

 Zero-point correction=                           0.155228 (Hartree/Particle)
 Thermal correction to Energy=                    0.162962
 Thermal correction to Enthalpy=                  0.163906
 Thermal correction to Gibbs Free Energy=         0.124449
 Sum of electronic and zero-point Energies=           -285.045622
 Sum of electronic and thermal Energies=              -285.037888
 Sum of electronic and thermal Enthalpies=            -285.036944
 Sum of electronic and thermal Free Energies=         -285.076401

                     E (Thermal)             CV                S
                      KCal/Mol        Cal/Mol-Kelvin    Cal/Mol-Kelvin
 Total                  102.260             28.336             83.044
 Electronic               0.000              0.000              0.000
 Translational            0.889              2.981             39.374
 Rotational               0.889              2.981             26.689
 Vibrational            100.483             22.375             16.981
 Vibration     1          0.608              1.936              3.160
 Vibration     2          0.643              1.824              2.033
 Vibration     3          0.654              1.790              1.851
 Vibration     4          0.664              1.759              1.716
 Vibration     5          0.677              1.719              1.564
 Vibration     6          0.697              1.661              1.381
 Vibration     7          0.709              1.626              1.285
 Vibration     8          0.758              1.491              0.998
 Vibration     9          0.817              1.342              0.770
 Vibration    10          0.889              1.175              0.579
 Vibration    11          0.974              1.000              0.425

 Optimization completed.
    -- Stationary point found.
 Normal termination of Gaussian 09 at Thu Aug 25 02:32:05 2022.

 -----------------------------------------------------------------
 #P Geom=AllCheck Guess=TCheck SCRF=Check CCSD(T,E4T,FrzG4)/GTBas1
 -----------------------------------------------------------------

 Structure from the checkpoint file:  "G4.Frag_1065.chk"
 ---------
 Frag_1065
 ---------
 Charge =  0 Multiplicity = 1

 SCF Done:  E(RHF) =  -283.321309589     A.U. after   12 cycles
 E2 =    -0.8888495351D+00 EUMP2 =    -0.28421015912396D+03
 CCSD(T)
 CCSD(T)= -0.28429824158D+03
 3973\CCSD=-284.2717456\CCSD(T)=-284.2982416\RMSD=2.081e-09\PG=C01 [X(C
 Normal termination of Gaussian 09 at Thu Aug 25 02:39:38 2022.

 ---------------------------------------------------------
 #P Geom=AllCheck Guess=TCheck SCRF=Check MP4=FrzG4/GTBas2
 ---------------------------------------------------------

 Structure from the checkpoint file:  "G4.Frag_1065.chk"
 ---------
 Frag_1065
 ---------
 Charge =  0 Multiplicity = 1

 SCF Done:  E(RHF) =  -283.331227120     A.U. after   11 cycles
 E2 =    -0.9039923214D+00 EUMP2 =    -0.28423521944129D+03
 Normal termination of Gaussian 09 at Thu Aug 25 02:49:58 2022.

 ---------------------------------------------------------
 #P Geom=AllCheck Guess=TCheck SCRF=Check MP4=FrzG4/GTBas3
 ---------------------------------------------------------

 Structure from the checkpoint file:  "G4.Frag_1065.chk"
 ---------
 Frag_1065
 ---------
 Charge =  0 Multiplicity = 1

 SCF Done:  E(RHF) =  -283.363328480     A.U. after   11 cycles
 E2 =    -0.1100094290D+01 EUMP2 =    -0.28446342277019D+03
 Normal termination of Gaussian 09 at Thu Aug 25 06:57:05 2022.

 -----------------------------------------------------------
 #P Geom=AllCheck Guess=TCheck SCRF=Check MP2=Full/GTLargeXP
 -----------------------------------------------------------

 Structure from the checkpoint file:  "G4.Frag_1065.chk"
 ---------
 Frag_1065
 ---------
 Charge =  0 Multiplicity = 1

 SCF Done:  E(RHF) =  -283.434374191     A.U. after   11 cycles
 E2 =    -0.1435470851D+01 EUMP2 =    -0.28486984504214D+03
 Normal termination of Gaussian 09 at Thu Aug 25 07:05:01 2022.
 SCF Done:  E(RHF) =  -283.456071463     A.U. after    8 cycles
 Normal termination of Gaussian 09 at Thu Aug 25 07:12:04 2022.

                         Standard orientation:
 ---------------------------------------------------------------------
 Center     Atomic      Atomic             Coordinates (Angstroms)
 Number     Number       Type             X           Y           Z
 ---------------------------------------------------------------------
      1          6           0       -1.710116   -0.769141   -0.468327
      2          7           0       -0.673417    0.246486   -0.365721
      3          6           0       -0.947369    1.183310    0.719383
      4          6           0        0.663308   -0.326495   -0.332836
      5          7           0        0.971010   -1.036968    0.910011
      6          7           0        1.614423    0.762851   -0.561675
      7          1           0       -1.768479   -1.419170    0.420474
      8          1           0       -2.680867   -0.281122   -0.603226
      9          1           0       -1.527275   -1.402800   -1.342896
     10          1           0       -0.134712    1.908514    0.787294
     11          1           0       -1.063467    0.687911    1.699327
     12          1           0       -1.877571    1.719639    0.504633
     13          1           0        0.677618   -1.090783   -1.126832
     14          1           0        1.305185   -0.368792    1.599657
     15          1           0        1.718823   -1.706814    0.761667
     16          1           0        2.552037    0.386028   -0.657181
     17          1           0        1.379652    1.234755   -1.430540
 ---------------------------------------------------------------------

 SCF Done:  E(RHF) =  -283.460925994     A.U. after    8 cycles

 The electronic state is 1-A.
 Alpha  occ. eigenvalues --  -15.53940 -15.53743 -15.53679 -11.30737 -11.23217
 Alpha  occ. eigenvalues --  -11.22877  -1.26209  -1.16307  -1.12385  -0.94112
 Alpha  occ. eigenvalues --   -0.89986  -0.77818  -0.69182  -0.66936  -0.64267
 Alpha  occ. eigenvalues --   -0.60923  -0.59285  -0.57270  -0.53774  -0.52692
 Alpha  occ. eigenvalues --   -0.50086  -0.49928  -0.41187  -0.40048  -0.35592
 Alpha virt. eigenvalues --    0.03633   0.04218   0.04465   0.05133   0.06424
 Alpha virt. eigenvalues --    0.06903   0.07279   0.07918   0.08606   0.09854
 Alpha virt. eigenvalues --    0.11386   0.11688   0.12224   0.12463   0.13172

 Mulliken charges:
               1
     1  C   -0.542895
     2  N    0.020001
     3  C   -0.532200
     4  C    0.185489
     5  N   -0.762505
     6  N   -0.719092
     7  H    0.175934
     8  H    0.164368
     9  H    0.156693
    10  H    0.204313
    11  H    0.149084
    12  H    0.167005
    13  H    0.144862
    14  H    0.307740
    15  H    0.290616
    16  H    0.286385
    17  H    0.304203
 Sum of Mulliken charges =  -0.00000

 Dipole moment (field-independent basis, Debye):
    X=              1.3796    Y=             -0.5983    Z=             -0.7097  Tot=              1.6628
 Quadrupole moment (field-independent basis, Debye-Ang):
   XX=            -34.5968   YY=            -40.7819   ZZ=            -38.8708
   XY=             -2.7038   XZ=             -1.0966   YZ=              1.4045

 Normal termination of Gaussian 09 at Thu Aug 25 10:40:40 2022.
