 Gaussian 09, Revision E.01,
 Gaussian 09:  ES64L-G09RevE.01 30-Nov-2015

 -----
 #P G4
 -----

 --------
 Frag_640
 --------
 Symbolic Z-matrix:
 Charge =  0 Multiplicity = 1

 SCF Done:  E(RB3LYP) =  -303.855395645     A.U. after   13 cycles
 SCF Done:  E(RB3LYP) =  -303.874674266     A.U. after   12 cycles
 SCF Done:  E(RB3LYP) =  -303.875729831     A.U. after   10 cycles
 SCF Done:  E(RB3LYP) =  -303.875760297     A.U. after    9 cycles
 SCF Done:  E(RB3LYP) =  -303.875762389     A.U. after    8 cycles
 SCF Done:  E(RB3LYP) =  -303.875766611     A.U. after    8 cycles
 SCF Done:  E(RB3LYP) =  -303.875768382     A.U. after    7 cycles
 SCF Done:  E(RB3LYP) =  -303.875771051     A.U. after    8 cycles
 SCF Done:  E(RB3LYP) =  -303.875771535     A.U. after    7 cycles
 Optimization completed.
    -- Stationary point found.
 Normal termination of Gaussian 09 at Fri Aug 26 14:55:06 2022.

 ----------------------------------------------------------
 #P Geom=AllCheck Guess=TCheck SCRF=Check B3LYP/GTBas3 Freq
 ----------------------------------------------------------

 Structure from the checkpoint file:  "G4.Frag_640.chk"
 --------
 Frag_640
 --------
 Charge =  0 Multiplicity = 1

 SCF Done:  E(RB3LYP) =  -303.875771535     A.U. after    1 cycles

  Exact polarizability:  59.620  -0.717  44.143  -2.702   0.886  49.281
 Approx polarizability:  80.662  -3.211  60.743  -8.076   2.384  78.961

                      1                      2                      3
                      A                      A                      A
 Frequencies --     57.7014               218.6588               241.0513
 Red. masses --      4.5141                 1.1672                 2.3506
 Frc consts  --      0.0089                 0.0329                 0.0805
 IR Inten    --      0.0871                 0.2047                 1.2501

                      4                      5                      6
                      A                      A                      A
 Frequencies --    267.2811               300.0324               362.1751
 Red. masses --      2.4952                 1.2874                 2.6731
 Frc consts  --      0.1050                 0.0683                 0.2066
 IR Inten    --      4.6906                34.1107                 9.4470

                      7                      8                      9
                      A                      A                      A
 Frequencies --    475.0365               523.1372               605.3928
 Red. masses --      1.1038                 3.2962                 2.6909
 Frc consts  --      0.1468                 0.5315                 0.5811
 IR Inten    --     77.1201                22.1491                19.0313

                     10                     11                     12
                      A                      A                      A
 Frequencies --    717.3273               784.0901               873.3240
 Red. masses --      3.2540                 2.7854                 1.4199
 Frc consts  --      0.9865                 1.0089                 0.6381
 IR Inten    --      8.2384                45.1532                81.0154

                     13                     14                     15
                      A                      A                      A
 Frequencies --    901.2058               929.2416              1019.1651
 Red. masses --      1.8252                 1.7580                 1.3807
 Frc consts  --      0.8734                 0.8944                 0.8450
 IR Inten    --    125.7993                20.3312                11.0522

                     16                     17                     18
                      A                      A                      A
 Frequencies --   1039.5837              1121.9883              1145.6587
 Red. masses --      1.8137                 1.3677                 2.1983
 Frc consts  --      1.1549                 1.0144                 1.7000
 IR Inten    --    101.9402                41.8317                17.2692

                     19                     20                     21
                      A                      A                      A
 Frequencies --   1186.4724              1269.7787              1334.0637
 Red. masses --      1.6593                 1.5664                 1.3734
 Frc consts  --      1.3762                 1.4880                 1.4402
 IR Inten    --    125.6025                 4.7609                13.4450

                     22                     23                     24
                      A                      A                      A
 Frequencies --   1388.3871              1408.2936              1411.6284
 Red. masses --      1.5129                 1.6365                 1.3340
 Frc consts  --      1.7183                 1.9123                 1.5661
 IR Inten    --     28.2526                24.3405                 9.2584

                     25                     26                     27
                      A                      A                      A
 Frequencies --   1489.1009              1497.9132              1662.6127
 Red. masses --      1.0436                 1.0582                 1.0928
 Frc consts  --      1.3634                 1.3990                 1.7798
 IR Inten    --      5.4033                 1.8388                25.4616

                     28                     29                     30
                      A                      A                      A
 Frequencies --   1748.4639              3044.4975              3087.2074
 Red. masses --      7.2545                 1.0345                 1.0867
 Frc consts  --     13.0669                 5.6496                 6.1021
 IR Inten    --    179.2361                15.0490                 4.2466

                     31                     32                     33
                      A                      A                      A
 Frequencies --   3118.2587              3130.1776              3427.5631
 Red. masses --      1.1004                 1.1024                 1.0747
 Frc consts  --      6.3044                 6.3637                 7.4389
 IR Inten    --     26.0472                17.0301                 9.0772

                     34                     35                     36
                      A                      A                      A
 Frequencies --   3482.5878              3561.7551              3789.5388
 Red. masses --      1.0489                 1.0921                 1.0653
 Frc consts  --      7.4950                 8.1631                 9.0134
 IR Inten    --      0.1268                 0.7183                25.2987

 - Thermochemistry -
 -------------------
 Temperature   298.150 Kelvin.  Pressure   1.00000 Atm.
 Atom     1 has atomic number  6 and mass  12.00000

 Molecular mass:    88.06366 amu.
 Principal axes and moments of inertia in atomic units:
                           1         2         3
     Eigenvalues --   363.25914 678.48808 691.65355
           X            0.99942   0.03335   0.00680
           Y           -0.03297   0.99823  -0.04959
           Z           -0.00844   0.04934   0.99875
 This molecule is an asymmetric top.
 Rotational symmetry number  1.
 Rotational temperatures (Kelvin)      0.23844     0.12766     0.12523
 Rotational constants (GHZ):           4.96819     2.65995     2.60931
 Zero-point vibrational energy     314739.6 (Joules/Mol)
                                   75.22457 (Kcal/Mol)
 Warning -- explicit consideration of   9 degrees of freedom as
           vibrations may cause significant error
 Vibrational temperatures:     83.02   314.60   346.82   384.56   431.68
          (Kelvin)            521.09   683.47   752.68   871.02  1032.07
                             1128.13  1256.52  1296.63  1336.97  1466.35
                             1495.73  1614.29  1648.35  1707.07  1826.93
                             1919.42  1997.58  2026.22  2031.02  2142.48
                             2155.16  2392.13  2515.65  4380.35  4441.80
                             4486.47  4503.62  4931.49  5010.66  5124.56
                             5452.29

 Zero-point correction=                           0.119878 (Hartree/Particle)
 Thermal correction to Energy=                    0.126936
 Thermal correction to Enthalpy=                  0.127880
 Thermal correction to Gibbs Free Energy=         0.089123
 Sum of electronic and zero-point Energies=           -303.755894
 Sum of electronic and thermal Energies=              -303.748836
 Sum of electronic and thermal Enthalpies=            -303.747891
 Sum of electronic and thermal Free Energies=         -303.786648

                     E (Thermal)             CV                S
                      KCal/Mol        Cal/Mol-Kelvin    Cal/Mol-Kelvin
 Total                   79.654             25.227             81.571
 Electronic               0.000              0.000              0.000
 Translational            0.889              2.981             39.339
 Rotational               0.889              2.981             26.636
 Vibrational             77.876             19.265             15.596
 Vibration     1          0.596              1.974              4.534
 Vibration     2          0.646              1.813              1.970
 Vibration     3          0.658              1.778              1.795
 Vibration     4          0.672              1.733              1.614
 Vibration     5          0.693              1.674              1.417
 Vibration     6          0.736              1.550              1.113
 Vibration     7          0.832              1.305              0.724
 Vibration     8          0.878              1.199              0.603
 Vibration     9          0.964              1.020              0.440

 Optimization completed.
    -- Stationary point found.
 Normal termination of Gaussian 09 at Fri Aug 26 14:55:37 2022.

 -----------------------------------------------------------------
 #P Geom=AllCheck Guess=TCheck SCRF=Check CCSD(T,E4T,FrzG4)/GTBas1
 -----------------------------------------------------------------

 Structure from the checkpoint file:  "G4.Frag_640.chk"
 --------
 Frag_640
 --------
 Charge =  0 Multiplicity = 1

 SCF Done:  E(RHF) =  -302.001306160     A.U. after   13 cycles
 E2 =    -0.8922133534D+00 EUMP2 =    -0.30289351951356D+03
 CCSD(T)
 CCSD(T)= -0.30296925713D+03
 302.9408019\CCSD=-302.9409168\CCSD(T)=-302.9692571\RMSD=3.740e-09\PG=C
 Normal termination of Gaussian 09 at Fri Aug 26 14:57:39 2022.

 ---------------------------------------------------------
 #P Geom=AllCheck Guess=TCheck SCRF=Check MP4=FrzG4/GTBas2
 ---------------------------------------------------------

 Structure from the checkpoint file:  "G4.Frag_640.chk"
 --------
 Frag_640
 --------
 Charge =  0 Multiplicity = 1

 SCF Done:  E(RHF) =  -302.011835713     A.U. after   13 cycles
 E2 =    -0.9064627833D+00 EUMP2 =    -0.30291829849583D+03
 Normal termination of Gaussian 09 at Fri Aug 26 14:58:15 2022.

 ---------------------------------------------------------
 #P Geom=AllCheck Guess=TCheck SCRF=Check MP4=FrzG4/GTBas3
 ---------------------------------------------------------

 Structure from the checkpoint file:  "G4.Frag_640.chk"
 --------
 Frag_640
 --------
 Charge =  0 Multiplicity = 1

 SCF Done:  E(RHF) =  -302.045443895     A.U. after   11 cycles
 E2 =    -0.1093498361D+01 EUMP2 =    -0.30313894225690D+03
 Normal termination of Gaussian 09 at Fri Aug 26 15:01:41 2022.

 -----------------------------------------------------------
 #P Geom=AllCheck Guess=TCheck SCRF=Check MP2=Full/GTLargeXP
 -----------------------------------------------------------

 Structure from the checkpoint file:  "G4.Frag_640.chk"
 --------
 Frag_640
 --------
 Charge =  0 Multiplicity = 1

 SCF Done:  E(RHF) =  -302.124973227     A.U. after   12 cycles
 E2 =    -0.1430661977D+01 EUMP2 =    -0.30355563520427D+03
 Normal termination of Gaussian 09 at Fri Aug 26 15:03:35 2022.
 SCF Done:  E(RHF) =  -302.148854037     A.U. after    8 cycles
 Normal termination of Gaussian 09 at Fri Aug 26 15:05:29 2022.

                         Standard orientation:
 ---------------------------------------------------------------------
 Center     Atomic      Atomic             Coordinates (Angstroms)
 Number     Number       Type             X           Y           Z
 ---------------------------------------------------------------------
      1          6           0       -1.420833   -1.182977    0.104741
      2          6           0       -0.658710    0.006441   -0.488325
      3          7           0       -1.316830    1.258639   -0.094553
      4          6           0        0.811976   -0.037749   -0.106179
      5          7           0        1.728935   -0.145762   -0.975339
      6          8           0        0.966377    0.078196    1.245882
      7          1           0       -0.988299   -2.130559   -0.229171
      8          1           0       -2.465819   -1.137450   -0.210710
      9          1           0       -1.386882   -1.159665    1.198322
     10          1           0       -0.681475   -0.055488   -1.579026
     11          1           0       -1.219842    1.384967    0.909808
     12          1           0       -0.840563    2.045979   -0.526396
     13          1           0        2.664949   -0.149151   -0.561078
     14          1           0        1.907581    0.071365    1.459018
 ---------------------------------------------------------------------

 SCF Done:  E(RHF) =  -302.153987556     A.U. after    8 cycles

 The electronic state is 1-A.
 Alpha  occ. eigenvalues --  -20.60989 -15.54632 -15.54454 -11.34384 -11.26790
 Alpha  occ. eigenvalues --  -11.21790  -1.43379  -1.20823  -1.18056  -1.00654
 Alpha  occ. eigenvalues --   -0.89253  -0.80096  -0.71915  -0.67327  -0.65935
 Alpha  occ. eigenvalues --   -0.62106  -0.60216  -0.58684  -0.52580  -0.51758
 Alpha  occ. eigenvalues --   -0.49934  -0.45393  -0.41964  -0.40076
 Alpha virt. eigenvalues --    0.02829   0.04316   0.05063   0.05130   0.06854
 Alpha virt. eigenvalues --    0.07156   0.07428   0.08110   0.09198   0.10435
 Alpha virt. eigenvalues --    0.11899   0.12471   0.12972   0.13419   0.13748

 Mulliken charges:
               1
     1  C   -0.549665
     2  C    0.091216
     3  N   -0.705929
     4  C    0.384093
     5  N   -0.651038
     6  O   -0.543629
     7  H    0.175959
     8  H    0.186693
     9  H    0.178600
    10  H    0.208562
    11  H    0.303095
    12  H    0.292913
    13  H    0.250819
    14  H    0.378312
 Sum of Mulliken charges =  -0.00000

 Dipole moment (field-independent basis, Debye):
    X=              1.6975    Y=              0.1814    Z=              2.1005  Tot=              2.7068
 Quadrupole moment (field-independent basis, Debye-Ang):
   XX=            -35.5754   YY=            -36.4133   ZZ=            -39.7951
   XY=              2.2609   XZ=              4.9705   YZ=              0.1069

 Normal termination of Gaussian 09 at Fri Aug 26 15:12:33 2022.
