 Gaussian 09, Revision E.01,
 Gaussian 09:  ES64L-G09RevE.01 30-Nov-2015

 -----
 #P G4
 -----

 --------
 Frag_639
 --------
 Symbolic Z-matrix:
 Charge =  0 Multiplicity = 1

 SCF Done:  E(RB3LYP) =  -229.965879254     A.U. after   14 cycles
 SCF Done:  E(RB3LYP) =  -229.974122392     A.U. after   13 cycles
 SCF Done:  E(RB3LYP) =  -229.974317686     A.U. after   11 cycles
 SCF Done:  E(RB3LYP) =  -229.974214023     A.U. after   12 cycles
 SCF Done:  E(RB3LYP) =  -229.974333212     A.U. after    9 cycles
 SCF Done:  E(RB3LYP) =  -229.974240845     A.U. after   11 cycles
 SCF Done:  E(RB3LYP) =  -229.974341412     A.U. after   11 cycles
 SCF Done:  E(RB3LYP) =  -229.974343519     A.U. after    8 cycles
 Optimization completed.
    -- Stationary point found.
 Normal termination of Gaussian 09 at Fri Aug 26 13:59:02 2022.

 ----------------------------------------------------------
 #P Geom=AllCheck Guess=TCheck SCRF=Check B3LYP/GTBas3 Freq
 ----------------------------------------------------------

 Structure from the checkpoint file:  "G4.Frag_639.chk"
 --------
 Frag_639
 --------
 Charge =  0 Multiplicity = 1

 SCF Done:  E(RB3LYP) =  -229.974343519     A.U. after    1 cycles

  Exact polarizability:  70.231   8.865  43.503   0.000  -0.000  21.369
 Approx polarizability: 119.768  18.731  68.323  -0.000  -0.000  31.398

                      1                      2                      3
                      A                      A                      A
 Frequencies --    192.6006               278.6664               299.7849
 Red. masses --      3.6578                 3.2577                 1.1991
 Frc consts  --      0.0799                 0.1491                 0.0635
 IR Inten    --      0.3011                10.2817                82.4790

                      4                      5                      6
                      A                      A                      A
 Frequencies --    428.3754               594.8437               594.9917
 Red. masses --      2.7201                 5.5972                 1.4129
 Frc consts  --      0.2941                 1.1669                 0.2947
 IR Inten    --      1.4790                11.0117                45.0494

                      7                      8                      9
                      A                      A                      A
 Frequencies --    659.2730               683.5074               728.8576
 Red. masses --      3.3745                 1.2549                 1.0780
 Frc consts  --      0.8641                 0.3454                 0.3374
 IR Inten    --      1.6266                34.0355                 6.2084

                     10                     11                     12
                      A                      A                      A
 Frequencies --    814.8465               856.8567               978.9918
 Red. masses --      4.4495                 1.4183                 1.9335
 Frc consts  --      1.7406                 0.6135                 1.0918
 IR Inten    --     11.7963                52.3765                41.6034

                     13                     14                     15
                      A                      A                      A
 Frequencies --   1237.0118              1331.8605              1430.7068
 Red. masses --      1.4832                 2.8226                 1.1566
 Frc consts  --      1.3372                 2.9500                 1.3949
 IR Inten    --     17.3462               242.7389                10.6496

                     16                     17                     18
                      A                      A                      A
 Frequencies --   1712.3267              2223.6001              3184.4267
 Red. masses --      5.1774                 6.0708                 1.0606
 Frc consts  --      8.9440                17.6852                 6.3366
 IR Inten    --     57.0172                 3.9602                 0.7662

                     19                     20                     21
                      A                      A                      A
 Frequencies --   3285.6093              3500.6796              3835.6365
 Red. masses --      1.1167                 1.1595                 1.0664
 Frc consts  --      7.1024                 8.3719                 9.2439
 IR Inten    --      1.0235                78.1262                66.7942

 - Thermochemistry -
 -------------------
 Temperature   298.150 Kelvin.  Pressure   1.00000 Atm.
 Atom     1 has atomic number  6 and mass  12.00000

 Molecular mass:    68.02621 amu.
 Principal axes and moments of inertia in atomic units:
                           1         2         3
     Eigenvalues --   171.17217 434.64509 605.81727
           X            0.99906   0.04338   0.00000
           Y           -0.04338   0.99906  -0.00000
           Z           -0.00000   0.00000   1.00000
 This molecule is an asymmetric top.
 Rotational symmetry number  1.
 Rotational temperatures (Kelvin)      0.50600     0.19927     0.14297
 Rotational constants (GHZ):          10.54343     4.15222     2.97902
 Zero-point vibrational energy     172582.0 (Joules/Mol)
                                   41.24808 (Kcal/Mol)
 Warning -- explicit consideration of   6 degrees of freedom as
           vibrations may cause significant error
 Vibrational temperatures:    277.11   400.94   431.32   616.34   855.85
          (Kelvin)            856.06   948.55   983.41  1048.66  1172.38
                             1232.82  1408.55  1779.78  1916.25  2058.47
                             2463.65  3199.26  4581.67  4727.25  5036.69
                             5518.62

 Zero-point correction=                           0.065733 (Hartree/Particle)
 Thermal correction to Energy=                    0.071176
 Thermal correction to Enthalpy=                  0.072120
 Thermal correction to Gibbs Free Energy=         0.037755
 Sum of electronic and zero-point Energies=           -229.908611
 Sum of electronic and thermal Energies=              -229.903167
 Sum of electronic and thermal Enthalpies=            -229.902223
 Sum of electronic and thermal Free Energies=         -229.936589

                     E (Thermal)             CV                S
                      KCal/Mol        Cal/Mol-Kelvin    Cal/Mol-Kelvin
 Total                   44.664             19.277             72.329
 Electronic               0.000              0.000              0.000
 Translational            0.889              2.981             38.570
 Rotational               0.889              2.981             25.314
 Vibrational             42.886             13.316              8.445
 Vibration     1          0.635              1.850              2.203
 Vibration     2          0.679              1.713              1.542
 Vibration     3          0.692              1.674              1.418
 Vibration     4          0.790              1.408              0.864
 Vibration     5          0.953              1.043              0.459
 Vibration     6          0.953              1.042              0.458

 Optimization completed.
    -- Stationary point found.
 Normal termination of Gaussian 09 at Fri Aug 26 13:59:18 2022.

 -----------------------------------------------------------------
 #P Geom=AllCheck Guess=TCheck SCRF=Check CCSD(T,E4T,FrzG4)/GTBas1
 -----------------------------------------------------------------

 Structure from the checkpoint file:  "G4.Frag_639.chk"
 --------
 Frag_639
 --------
 Charge =  0 Multiplicity = 1

 SCF Done:  E(RHF) =  -228.558658082     A.U. after   14 cycles
 E2 =    -0.6773100455D+00 EUMP2 =    -0.22923596812755D+03
 CCSD(T)
 CCSD(T)= -0.22929334230D+03
 9747\CCSD=-229.2659779\CCSD(T)=-229.2933423\RMSD=6.247e-09\PG=C01 [X(C
 Normal termination of Gaussian 09 at Fri Aug 26 13:59:59 2022.

 ---------------------------------------------------------
 #P Geom=AllCheck Guess=TCheck SCRF=Check MP4=FrzG4/GTBas2
 ---------------------------------------------------------

 Structure from the checkpoint file:  "G4.Frag_639.chk"
 --------
 Frag_639
 --------
 Charge =  0 Multiplicity = 1

 SCF Done:  E(RHF) =  -228.568729009     A.U. after   15 cycles
 E2 =    -0.6849781491D+00 EUMP2 =    -0.22925370715803D+03
 Normal termination of Gaussian 09 at Fri Aug 26 14:00:11 2022.

 ---------------------------------------------------------
 #P Geom=AllCheck Guess=TCheck SCRF=Check MP4=FrzG4/GTBas3
 ---------------------------------------------------------

 Structure from the checkpoint file:  "G4.Frag_639.chk"
 --------
 Frag_639
 --------
 Charge =  0 Multiplicity = 1

 SCF Done:  E(RHF) =  -228.590090262     A.U. after   13 cycles
 E2 =    -0.8158374970D+00 EUMP2 =    -0.22940592775871D+03
 Normal termination of Gaussian 09 at Fri Aug 26 14:01:05 2022.

 -----------------------------------------------------------
 #P Geom=AllCheck Guess=TCheck SCRF=Check MP2=Full/GTLargeXP
 -----------------------------------------------------------

 Structure from the checkpoint file:  "G4.Frag_639.chk"
 --------
 Frag_639
 --------
 Charge =  0 Multiplicity = 1

 SCF Done:  E(RHF) =  -228.648942064     A.U. after   14 cycles
 E2 =    -0.1082439868D+01 EUMP2 =    -0.22973138193144D+03
 Normal termination of Gaussian 09 at Fri Aug 26 14:01:43 2022.
 SCF Done:  E(RHF) =  -228.667457122     A.U. after   10 cycles
 Normal termination of Gaussian 09 at Fri Aug 26 14:02:29 2022.

                         Standard orientation:
 ---------------------------------------------------------------------
 Center     Atomic      Atomic             Coordinates (Angstroms)
 Number     Number       Type             X           Y           Z
 ---------------------------------------------------------------------
      1          6           0       -2.158679    0.107224    0.000000
      2          6           0       -0.954322    0.121501    0.000002
      3          6           0        0.470519    0.045279    0.000001
      4          6           0        1.265839    1.119156    0.000000
      5          8           0        1.002243   -1.218158   -0.000003
      6          1           0       -3.220809    0.121466   -0.000008
      7          1           0        2.342544    1.006833    0.000000
      8          1           0        0.840476    2.111806   -0.000002
      9          1           0        0.279706   -1.853809    0.000014
 ---------------------------------------------------------------------

 SCF Done:  E(RHF) =  -228.671097251     A.U. after    8 cycles

 The electronic state is 1-A.
 Alpha  occ. eigenvalues --  -20.59313 -11.32471 -11.25455 -11.24999 -11.22836
 Alpha  occ. eigenvalues --   -1.41138  -1.08339  -1.01690  -0.84890  -0.77418
 Alpha  occ. eigenvalues --   -0.71903  -0.64365  -0.59578  -0.58819  -0.55799
 Alpha  occ. eigenvalues --   -0.44685  -0.41968  -0.33770
 Alpha virt. eigenvalues --    0.03381   0.04497   0.04840   0.05674   0.06196
 Alpha virt. eigenvalues --    0.06961   0.07887   0.08983   0.09136   0.09949
 Alpha virt. eigenvalues --    0.10203   0.10904   0.12539   0.13442   0.14236

 Mulliken charges:
               1
     1  C   -0.494489
     2  C    0.159904
     3  C    0.266224
     4  C   -0.437939
     5  O   -0.563347
     6  H    0.259084
     7  H    0.217777
     8  H    0.198831
     9  H    0.393955
 Sum of Mulliken charges =  -0.00000

 Dipole moment (field-independent basis, Debye):
    X=             -1.6727    Y=             -0.1565    Z=              0.0000  Tot=              1.6801
 Quadrupole moment (field-independent basis, Debye-Ang):
   XX=            -24.7361   YY=            -26.9649   ZZ=            -32.6697
   XY=              2.6861   XZ=              0.0000   YZ=             -0.0001

 Normal termination of Gaussian 09 at Fri Aug 26 14:06:15 2022.
