 Gaussian 09, Revision E.01,
 Gaussian 09:  ES64L-G09RevE.01 30-Nov-2015

 -----
 #P G4
 -----

 --------
 Frag_542
 --------
 Symbolic Z-matrix:
 Charge =  0 Multiplicity = 1

 SCF Done:  E(RB3LYP) =  -363.067753528     A.U. after   14 cycles
 SCF Done:  E(RB3LYP) =  -363.088194653     A.U. after   13 cycles
 SCF Done:  E(RB3LYP) =  -363.090900326     A.U. after   13 cycles
 SCF Done:  E(RB3LYP) =  -363.091864082     A.U. after   12 cycles
 SCF Done:  E(RB3LYP) =  -363.091906909     A.U. after   13 cycles
 SCF Done:  E(RB3LYP) =  -363.092815262     A.U. after   12 cycles
 SCF Done:  E(RB3LYP) =  -363.093036021     A.U. after   10 cycles
 SCF Done:  E(RB3LYP) =  -363.093173575     A.U. after   11 cycles
 SCF Done:  E(RB3LYP) =  -363.093226312     A.U. after   11 cycles
 SCF Done:  E(RB3LYP) =  -363.093231528     A.U. after    9 cycles
 SCF Done:  E(RB3LYP) =  -363.093232627     A.U. after    7 cycles
 Optimization completed.
    -- Stationary point found.
 Normal termination of Gaussian 09 at Fri Aug 26 10:35:25 2022.

 ----------------------------------------------------------
 #P Geom=AllCheck Guess=TCheck SCRF=Check B3LYP/GTBas3 Freq
 ----------------------------------------------------------

 Structure from the checkpoint file:  "G4.Frag_542.chk"
 --------
 Frag_542
 --------
 Charge =  0 Multiplicity = 1

 SCF Done:  E(RB3LYP) =  -363.093232627     A.U. after    1 cycles

  Exact polarizability:  58.309  -1.386  59.134   0.062   0.269  51.175
 Approx polarizability:  81.820  -4.814  92.329   0.373   1.439  71.077

                      1                      2                      3
                      A                      A                      A
 Frequencies --     60.1433               221.6479               250.3747
 Red. masses --      4.5281                 1.5801                 1.5247
 Frc consts  --      0.0097                 0.0457                 0.0563
 IR Inten    --      0.7117                 1.5063                 1.2492

                      4                      5                      6
                      A                      A                      A
 Frequencies --    260.4889               282.2683               293.8875
 Red. masses --      1.2285                 1.1579                 2.2439
 Frc consts  --      0.0491                 0.0544                 0.1142
 IR Inten    --      4.0376                23.7900                 8.3420

                      7                      8                      9
                      A                      A                      A
 Frequencies --    345.8780               383.2171               411.9402
 Red. masses --      2.5409                 3.3143                 2.6233
 Frc consts  --      0.1791                 0.2868                 0.2623
 IR Inten    --      2.6780                 5.1657                 2.6211

                     10                     11                     12
                      A                      A                      A
 Frequencies --    546.9715               581.1905               753.5753
 Red. masses --      4.9580                 3.1927                 6.3124
 Frc consts  --      0.8739                 0.6354                 2.1120
 IR Inten    --      0.3948                 2.8229                 7.2924

                     13                     14                     15
                      A                      A                      A
 Frequencies --    767.0698               836.0492               887.8966
 Red. masses --      6.6242                 2.2075                 1.1600
 Frc consts  --      2.2964                 0.9091                 0.5388
 IR Inten    --      6.4002                49.0659                64.7853

                     16                     17                     18
                      A                      A                      A
 Frequencies --    933.6303               947.4767               981.4338
 Red. masses --      1.3357                 1.5242                 1.7883
 Frc consts  --      0.6860                 0.8062                 1.0149
 IR Inten    --     73.8182                 0.9392                 0.8404

                     19                     20                     21
                      A                      A                      A
 Frequencies --   1024.7138              1079.5179              1179.8742
 Red. masses --      1.3172                 1.5472                 3.3411
 Frc consts  --      0.8149                 1.0623                 2.7403
 IR Inten    --      5.7638                 2.7638                40.8960

                     22                     23                     24
                      A                      A                      A
 Frequencies --   1231.3062              1259.5816              1319.2099
 Red. masses --      2.7620                 2.7550                 1.8948
 Frc consts  --      2.4672                 2.5753                 1.9429
 IR Inten    --     23.2459                15.4885                 2.3101

                     25                     26                     27
                      A                      A                      A
 Frequencies --   1392.8842              1412.1132              1430.5832
 Red. masses --      1.2400                 1.2277                 1.5520
 Frc consts  --      1.4174                 1.4424                 1.8715
 IR Inten    --      7.5790                12.7701               379.0860

                     28                     29                     30
                      A                      A                      A
 Frequencies --   1478.2204              1489.7738              1498.4696
 Red. masses --      1.0476                 1.0482                 1.0579
 Frc consts  --      1.3488                 1.3706                 1.3995
 IR Inten    --      0.4296                 2.8395                 5.4016

                     31                     32                     33
                      A                      A                      A
 Frequencies --   1511.9777              1654.2409              1861.0293
 Red. masses --      1.0667                 1.0941                 9.6718
 Frc consts  --      1.4368                 1.7640                19.7362
 IR Inten    --     16.5648                31.8775               258.3604

                     34                     35                     36
                      A                      A                      A
 Frequencies --   3032.1034              3035.7630              3098.3482
 Red. masses --      1.0371                 1.0381                 1.1018
 Frc consts  --      5.6179                 5.6369                 6.2317
 IR Inten    --     22.0235                13.9468                18.8204

                     37                     38                     39
                      A                      A                      A
 Frequencies --   3102.7815              3137.5069              3142.2005
 Red. masses --      1.1010                 1.0999                 1.0989
 Frc consts  --      6.2449                 6.3796                 6.3924
 IR Inten    --     26.8630                 2.0894                12.0080

                     40                     41                     42
                      A                      A                      A
 Frequencies --   3439.0787              3503.2099              3584.7773
 Red. masses --      1.0643                 1.0498                 1.0935
 Frc consts  --      7.4166                 7.5906                 8.2792
 IR Inten    --    253.3889                 0.4315                 4.8295

 - Thermochemistry -
 -------------------
 Temperature   298.150 Kelvin.  Pressure   1.00000 Atm.
 Atom     1 has atomic number  6 and mass  12.00000

 Molecular mass:   103.06333 amu.
 Principal axes and moments of inertia in atomic units:
                           1         2         3
     Eigenvalues --   543.80197 742.74668 892.20945
           X            0.99889   0.04711   0.00030
           Y           -0.04710   0.99880  -0.01348
           Z           -0.00094   0.01345   0.99991
 This molecule is an asymmetric top.
 Rotational symmetry number  1.
 Warning -- assumption of classical behavior for rotation
           may cause significant error
 Rotational temperatures (Kelvin)      0.15927     0.11661     0.09708
 Rotational constants (GHZ):           3.31875     2.42982     2.02278
 Zero-point vibrational energy     356752.8 (Joules/Mol)
                                   85.26596 (Kcal/Mol)
 Warning -- explicit consideration of  11 degrees of freedom as
           vibrations may cause significant error
 Vibrational temperatures:     86.53   318.90   360.23   374.79   406.12
          (Kelvin)            422.84   497.64   551.36   592.69   786.97
                              836.20  1084.23  1103.64  1202.89  1277.48
                             1343.28  1363.21  1412.06  1474.33  1553.18
                             1697.57  1771.57  1812.25  1898.05  2004.05
                             2031.71  2058.29  2126.83  2143.45  2155.96
                             2175.40  2380.08  2677.60  4362.52  4367.78
                             4457.83  4464.20  4514.17  4520.92  4948.06
                             5040.33  5157.69

 Zero-point correction=                           0.135880 (Hartree/Particle)
 Thermal correction to Energy=                    0.143835
 Thermal correction to Enthalpy=                  0.144779
 Thermal correction to Gibbs Free Energy=         0.104081
 Sum of electronic and zero-point Energies=           -362.957353
 Sum of electronic and thermal Energies=              -362.949397
 Sum of electronic and thermal Enthalpies=            -362.948453
 Sum of electronic and thermal Free Energies=         -362.989152

                     E (Thermal)             CV                S
                      KCal/Mol        Cal/Mol-Kelvin    Cal/Mol-Kelvin
 Total                   90.258             29.269             85.657
 Electronic               0.000              0.000              0.000
 Translational            0.889              2.981             39.808
 Rotational               0.889              2.981             27.380
 Vibrational             88.480             23.307             18.469
 Vibration     1          0.597              1.973              4.452
 Vibration     2          0.648              1.808              1.946
 Vibration     3          0.663              1.762              1.728
 Vibration     4          0.669              1.745              1.658
 Vibration     5          0.681              1.706              1.520
 Vibration     6          0.689              1.685              1.451
 Vibration     7          0.724              1.584              1.185
 Vibration     8          0.752              1.506              1.026
 Vibration     9          0.776              1.444              0.920
 Vibration    10          0.902              1.146              0.550
 Vibration    11          0.938              1.072              0.483

 Optimization completed.
    -- Stationary point found.
 Normal termination of Gaussian 09 at Fri Aug 26 10:36:13 2022.

 -----------------------------------------------------------------
 #P Geom=AllCheck Guess=TCheck SCRF=Check CCSD(T,E4T,FrzG4)/GTBas1
 -----------------------------------------------------------------

 Structure from the checkpoint file:  "G4.Frag_542.chk"
 --------
 Frag_542
 --------
 Charge =  0 Multiplicity = 1

 SCF Done:  E(RHF) =  -360.897252491     A.U. after   13 cycles
 E2 =    -0.1044250005D+01 EUMP2 =    -0.36194150249540D+03
 CCSD(T)
 CCSD(T)= -0.36202426393D+03
 Q=-362.0276337\MP4SDQ=-361.9918471\CCSD=-361.9905392\CCSD(T)=-362.0242
 Normal termination of Gaussian 09 at Fri Aug 26 10:40:30 2022.

 ---------------------------------------------------------
 #P Geom=AllCheck Guess=TCheck SCRF=Check MP4=FrzG4/GTBas2
 ---------------------------------------------------------

 Structure from the checkpoint file:  "G4.Frag_542.chk"
 --------
 Frag_542
 --------
 Charge =  0 Multiplicity = 1

 SCF Done:  E(RHF) =  -360.907558662     A.U. after   13 cycles
 E2 =    -0.1060458709D+01 EUMP2 =    -0.36196801737102D+03
 Normal termination of Gaussian 09 at Fri Aug 26 10:41:51 2022.

 ---------------------------------------------------------
 #P Geom=AllCheck Guess=TCheck SCRF=Check MP4=FrzG4/GTBas3
 ---------------------------------------------------------

 Structure from the checkpoint file:  "G4.Frag_542.chk"
 --------
 Frag_542
 --------
 Charge =  0 Multiplicity = 1

 SCF Done:  E(RHF) =  -360.944087542     A.U. after   12 cycles
 E2 =    -0.1286583188D+01 EUMP2 =    -0.36223067072974D+03
 Normal termination of Gaussian 09 at Fri Aug 26 10:52:05 2022.

 -----------------------------------------------------------
 #P Geom=AllCheck Guess=TCheck SCRF=Check MP2=Full/GTLargeXP
 -----------------------------------------------------------

 Structure from the checkpoint file:  "G4.Frag_542.chk"
 --------
 Frag_542
 --------
 Charge =  0 Multiplicity = 1

 SCF Done:  E(RHF) =  -361.037912367     A.U. after   13 cycles
 E2 =    -0.1681114204D+01 EUMP2 =    -0.36271902657027D+03
 Normal termination of Gaussian 09 at Fri Aug 26 10:56:03 2022.
 SCF Done:  E(RHF) =  -361.066435740     A.U. after    9 cycles
 Normal termination of Gaussian 09 at Fri Aug 26 10:59:38 2022.

                         Standard orientation:
 ---------------------------------------------------------------------
 Center     Atomic      Atomic             Coordinates (Angstroms)
 Number     Number       Type             X           Y           Z
 ---------------------------------------------------------------------
      1          6           0        1.013003    0.224420    1.432157
      2          6           0        0.550795   -0.012752   -0.015378
      3          6           0        1.172928    1.017996   -0.965438
      4          7           0        0.858734   -1.411766   -0.390871
      5          6           0       -0.994436    0.154713   -0.022460
      6          8           0       -1.534342    1.228561    0.029082
      7          8           0       -1.664179   -1.002364   -0.050968
      8          1           0        0.674789    1.203452    1.776784
      9          1           0        2.106575    0.191337    1.493349
     10          1           0        0.603043   -0.537609    2.102497
     11          1           0        2.265265    0.990465   -0.898529
     12          1           0        0.885046    0.816824   -2.003406
     13          1           0        0.823353    2.021165   -0.714990
     14          1           0        1.689687   -1.743477    0.086605
     15          1           0        1.037123   -1.486297   -1.387888
     16          1           0       -0.961591   -1.689331   -0.116527
 ---------------------------------------------------------------------

 SCF Done:  E(RHF) =  -361.072522511     A.U. after    8 cycles

 The electronic state is 1-A.
 Alpha  occ. eigenvalues --  -20.59012 -20.52960 -15.58012 -11.36936 -11.29909
 Alpha  occ. eigenvalues --  -11.24037 -11.23378  -1.44839  -1.35257  -1.22590
 Alpha  occ. eigenvalues --   -1.05119  -0.96012  -0.87433  -0.79501  -0.71638
 Alpha  occ. eigenvalues --   -0.68599  -0.66864  -0.63069  -0.62000  -0.60441
 Alpha  occ. eigenvalues --   -0.56894  -0.55609  -0.54954  -0.52500  -0.50703
 Alpha  occ. eigenvalues --   -0.46507  -0.45893  -0.41543
 Alpha virt. eigenvalues --    0.02574   0.03747   0.04350   0.05055   0.06534
 Alpha virt. eigenvalues --    0.06923   0.07180   0.07203   0.07542   0.09763
 Alpha virt. eigenvalues --    0.10006   0.10688   0.10879   0.13290   0.13800

 Mulliken charges:
               1
     1  C   -0.608289
     2  C    0.352502
     3  C   -0.586175
     4  N   -0.795248
     5  C    0.559351
     6  O   -0.559391
     7  O   -0.570198
     8  H    0.212725
     9  H    0.175376
    10  H    0.191173
    11  H    0.169678
    12  H    0.171985
    13  H    0.219739
    14  H    0.320064
    15  H    0.310555
    16  H    0.436155
 Sum of Mulliken charges =  -0.00000

 Dipole moment (field-independent basis, Debye):
    X=              5.2131    Y=             -2.2392    Z=             -0.4444  Tot=              5.6911
 Quadrupole moment (field-independent basis, Debye-Ang):
   XX=            -48.5912   YY=            -44.6737   ZZ=            -40.0730
   XY=              1.0389   XZ=             -0.1570   YZ=              0.8305

 Normal termination of Gaussian 09 at Fri Aug 26 11:11:36 2022.
