 Gaussian 09, Revision E.01,
 Gaussian 09:  ES64L-G09RevE.01 30-Nov-2015

 -----
 #P G4
 -----

 ---------
 Frag_1164
 ---------
 Symbolic Z-matrix:
 Charge =  0 Multiplicity = 1

 SCF Done:  E(RB3LYP) =  -285.202470353     A.U. after   12 cycles
 SCF Done:  E(RB3LYP) =  -285.209605585     A.U. after   10 cycles
 SCF Done:  E(RB3LYP) =  -285.210409747     A.U. after   11 cycles
 SCF Done:  E(RB3LYP) =  -285.210572775     A.U. after    9 cycles
 SCF Done:  E(RB3LYP) =  -285.210600006     A.U. after    8 cycles
 SCF Done:  E(RB3LYP) =  -285.210608609     A.U. after    8 cycles
 SCF Done:  E(RB3LYP) =  -285.210610203     A.U. after    7 cycles
 SCF Done:  E(RB3LYP) =  -285.210610564     A.U. after    6 cycles
 Optimization completed.
    -- Stationary point found.
 Normal termination of Gaussian 09 at Fri Aug 26 13:51:20 2022.

 ----------------------------------------------------------
 #P Geom=AllCheck Guess=TCheck SCRF=Check B3LYP/GTBas3 Freq
 ----------------------------------------------------------

 Structure from the checkpoint file:  "G4.Frag_1164.chk"
 ---------
 Frag_1164
 ---------
 Charge =  0 Multiplicity = 1

 SCF Done:  E(RB3LYP) =  -285.210610564     A.U. after    1 cycles

  Exact polarizability:  60.992   0.026  54.333  -0.164  -0.568  54.792
 Approx polarizability:  79.379   0.359  75.748  -0.274  -0.795  79.464

                      1                      2                      3
                      A                      A                      A
 Frequencies --    127.0991               198.7571               233.5803
 Red. masses --      1.7870                 1.1115                 1.1682
 Frc consts  --      0.0170                 0.0259                 0.0376
 IR Inten    --      0.7408                 1.9026                11.5252

                      4                      5                      6
                      A                      A                      A
 Frequencies --    261.6349               299.0849               308.5325
 Red. masses --      2.3499                 1.1445                 1.1011
 Frc consts  --      0.0948                 0.0603                 0.0618
 IR Inten    --      1.2723                36.3903                25.4063

                      7                      8                      9
                      A                      A                      A
 Frequencies --    369.9944               391.8092               462.9203
 Red. masses --      2.6148                 2.3923                 2.5016
 Frc consts  --      0.2109                 0.2164                 0.3159
 IR Inten    --      3.6245                 8.3762                11.2921

                     10                     11                     12
                      A                      A                      A
 Frequencies --    508.3110               532.9456               726.0210
 Red. masses --      2.5239                 2.7871                 2.3859
 Frc consts  --      0.3842                 0.4664                 0.7410
 IR Inten    --     11.4049                12.7812                74.4939

                     13                     14                     15
                      A                      A                      A
 Frequencies --    798.4607               876.1262               893.4039
 Red. masses --      1.8696                 1.6643                 1.5569
 Frc consts  --      0.7023                 0.7527                 0.7322
 IR Inten    --     56.4439               125.2871                69.7276

                     16                     17                     18
                      A                      A                      A
 Frequencies --    923.9991               984.0633               992.2402
 Red. masses --      1.8224                 1.4244                 1.4555
 Frc consts  --      0.9167                 0.8127                 0.8443
 IR Inten    --     48.9023                12.9298                40.1127

                     19                     20                     21
                      A                      A                      A
 Frequencies --   1080.2566              1105.8630              1159.5379
 Red. masses --      1.4730                 3.0365                 1.5275
 Frc consts  --      1.0128                 2.1879                 1.2101
 IR Inten    --     12.4395                26.2613                38.0022

                     22                     23                     24
                      A                      A                      A
 Frequencies --   1171.0509              1229.4252              1304.8107
 Red. masses --      1.4777                 2.2459                 2.3416
 Frc consts  --      1.1939                 2.0000                 2.3489
 IR Inten    --     14.8551                72.9327                49.0225

                     25                     26                     27
                      A                      A                      A
 Frequencies --   1360.5159              1403.6065              1444.3983
 Red. masses --      1.5700                 1.3983                 1.1575
 Frc consts  --      1.7122                 1.6231                 1.4228
 IR Inten    --      9.9177                23.6136                 2.2315

                     28                     29                     30
                      A                      A                      A
 Frequencies --   1472.6621              1483.2962              1500.4264
 Red. masses --      1.1826                 1.0501                 1.1198
 Frc consts  --      1.5111                 1.3612                 1.4853
 IR Inten    --     13.9773                 0.1006                 1.7045

                     31                     32                     33
                      A                      A                      A
 Frequencies --   1505.3072              1525.5830              1642.1281
 Red. masses --      1.0859                 1.0635                 1.1018
 Frc consts  --      1.4498                 1.4584                 1.7506
 IR Inten    --      8.1696                 8.0321                31.8394

                     34                     35                     36
                      A                      A                      A
 Frequencies --   1651.3630              2970.4144              3039.5306
 Red. masses --      1.1030                 1.0569                 1.0387
 Frc consts  --      1.7722                 5.4946                 5.6537
 IR Inten    --     26.0948                72.6702                17.3701

                     37                     38                     39
                      A                      A                      A
 Frequencies --   3069.0963              3106.8570              3133.3168
 Red. masses --      1.0797                 1.0993                 1.0978
 Frc consts  --      5.9919                 6.2520                 6.3502
 IR Inten    --     44.0847                24.5209                10.4369

                     40                     41                     42
                      A                      A                      A
 Frequencies --   3140.8895              3461.0913              3484.2023
 Red. masses --      1.1000                 1.0484                 1.0496
 Frc consts  --      6.3934                 7.3996                 7.5069
 IR Inten    --     16.9651                 1.6206                 0.0285

                     43                     44                     45
                      A                      A                      A
 Frequencies --   3524.1954              3544.5414              3570.0625
 Red. masses --      1.0740                 1.0919                 1.0911
 Frc consts  --      7.8589                 8.0825                 8.1936
 IR Inten    --      0.5750                 1.0304                 0.8516

 - Thermochemistry -
 -------------------
 Temperature   298.150 Kelvin.  Pressure   1.00000 Atm.
 Atom     1 has atomic number  6 and mass  12.00000

 Molecular mass:    89.09530 amu.
 Principal axes and moments of inertia in atomic units:
                           1         2         3
     Eigenvalues --   392.92526 664.09170 673.60178
           X            1.00000  -0.00193  -0.00170
           Y            0.00163   0.98701  -0.16062
           Z            0.00198   0.16062   0.98701
 This molecule is an asymmetric top.
 Rotational symmetry number  1.
 Rotational temperatures (Kelvin)      0.22043     0.13042     0.12858
 Rotational constants (GHZ):           4.59309     2.71761     2.67924
 Zero-point vibrational energy     406571.3 (Joules/Mol)
                                   97.17287 (Kcal/Mol)
 Warning -- explicit consideration of  11 degrees of freedom as
           vibrations may cause significant error
 Vibrational temperatures:    182.87   285.97   336.07   376.43   430.32
          (Kelvin)            443.91   532.34   563.73   666.04   731.35
                              766.79  1044.58  1148.81  1260.55  1285.41
                             1329.43  1415.85  1427.61  1554.25  1591.09
                             1668.31  1684.88  1768.87  1877.33  1957.48
                             2019.47  2078.16  2118.83  2134.13  2158.78
                             2165.80  2194.97  2362.65  2375.94  4273.76
                             4373.20  4415.74  4470.07  4508.14  4519.03
                             4979.73  5012.98  5070.52  5099.80  5136.52

 Zero-point correction=                           0.154855 (Hartree/Particle)
 Thermal correction to Energy=                    0.162665
 Thermal correction to Enthalpy=                  0.163609
 Thermal correction to Gibbs Free Energy=         0.124156
 Sum of electronic and zero-point Energies=           -285.055756
 Sum of electronic and thermal Energies=              -285.047946
 Sum of electronic and thermal Enthalpies=            -285.047001
 Sum of electronic and thermal Free Energies=         -285.086455

                     E (Thermal)             CV                S
                      KCal/Mol        Cal/Mol-Kelvin    Cal/Mol-Kelvin
 Total                  102.074             29.229             83.036
 Electronic               0.000              0.000              0.000
 Translational            0.889              2.981             39.374
 Rotational               0.889              2.981             26.666
 Vibrational            100.296             23.267             16.996
 Vibration     1          0.611              1.926              2.989
 Vibration     2          0.637              1.842              2.145
 Vibration     3          0.654              1.790              1.851
 Vibration     4          0.669              1.743              1.651
 Vibration     5          0.692              1.675              1.422
 Vibration     6          0.698              1.657              1.370
 Vibration     7          0.742              1.534              1.080
 Vibration     8          0.759              1.488              0.993
 Vibration     9          0.821              1.332              0.758
 Vibration    10          0.863              1.232              0.638
 Vibration    11          0.888              1.177              0.581

 Normal termination of Gaussian 09 at Fri Aug 26 13:52:02 2022.

 -----------------------------------------------------------------
 #P Geom=AllCheck Guess=TCheck SCRF=Check CCSD(T,E4T,FrzG4)/GTBas1
 -----------------------------------------------------------------

 Structure from the checkpoint file:  "G4.Frag_1164.chk"
 ---------
 Frag_1164
 ---------
 Charge =  0 Multiplicity = 1

 SCF Done:  E(RHF) =  -283.331113361     A.U. after   12 cycles
 E2 =    -0.8912623570D+00 EUMP2 =    -0.28422237571775D+03
 CCSD(T)
 CCSD(T)= -0.28431018157D+03
 284.2825098\CCSD=-284.2837729\CCSD(T)=-284.3101816\RMSD=1.708e-09\PG=C
 Normal termination of Gaussian 09 at Fri Aug 26 13:54:38 2022.

 ---------------------------------------------------------
 #P Geom=AllCheck Guess=TCheck SCRF=Check MP4=FrzG4/GTBas2
 ---------------------------------------------------------

 Structure from the checkpoint file:  "G4.Frag_1164.chk"
 ---------
 Frag_1164
 ---------
 Charge =  0 Multiplicity = 1

 SCF Done:  E(RHF) =  -283.341402917     A.U. after   12 cycles
 E2 =    -0.9062891501D+00 EUMP2 =    -0.28424769206737D+03
 Normal termination of Gaussian 09 at Fri Aug 26 13:55:31 2022.

 ---------------------------------------------------------
 #P Geom=AllCheck Guess=TCheck SCRF=Check MP4=FrzG4/GTBas3
 ---------------------------------------------------------

 Structure from the checkpoint file:  "G4.Frag_1164.chk"
 ---------
 Frag_1164
 ---------
 Charge =  0 Multiplicity = 1

 SCF Done:  E(RHF) =  -283.374570596     A.U. after   11 cycles
 E2 =    -0.1101540625D+01 EUMP2 =    -0.28447611122038D+03
 Normal termination of Gaussian 09 at Fri Aug 26 14:00:33 2022.

 -----------------------------------------------------------
 #P Geom=AllCheck Guess=TCheck SCRF=Check MP2=Full/GTLargeXP
 -----------------------------------------------------------

 Structure from the checkpoint file:  "G4.Frag_1164.chk"
 ---------
 Frag_1164
 ---------
 Charge =  0 Multiplicity = 1

 SCF Done:  E(RHF) =  -283.445859579     A.U. after   11 cycles
 E2 =    -0.1437407736D+01 EUMP2 =    -0.28488326731526D+03
 Normal termination of Gaussian 09 at Fri Aug 26 14:02:53 2022.
 SCF Done:  E(RHF) =  -283.467664653     A.U. after    8 cycles
 Normal termination of Gaussian 09 at Fri Aug 26 14:05:21 2022.

                         Standard orientation:
 ---------------------------------------------------------------------
 Center     Atomic      Atomic             Coordinates (Angstroms)
 Number     Number       Type             X           Y           Z
 ---------------------------------------------------------------------
      1          6           0       -2.080671    0.019267   -0.044307
      2          7           0       -0.829371   -0.481849   -0.611933
      3          6           0        0.423677   -0.026820    0.013873
      4          6           0        0.592726    1.501225    0.077547
      5          7           0        0.398191   -0.548121    1.377022
      6          7           0        1.561898   -0.568107   -0.739999
      7          1           0       -2.100932   -0.209574    1.022764
      8          1           0       -2.238909    1.103890   -0.160344
      9          1           0       -2.919765   -0.494688   -0.524167
     10          1           0       -0.785809   -0.258354   -1.600532
     11          1           0        0.555219    1.936546   -0.927151
     12          1           0        1.558235    1.759744    0.521800
     13          1           0       -0.197079    1.949497    0.682261
     14          1           0        0.264553   -1.555163    1.327006
     15          1           0        1.309735   -0.392660    1.797311
     16          1           0        1.354844   -1.537470   -0.972438
     17          1           0        1.670484   -0.077266   -1.624821
 ---------------------------------------------------------------------

 SCF Done:  E(RHF) =  -283.472517756     A.U. after    8 cycles

 The electronic state is 1-A.
 Alpha  occ. eigenvalues --  -15.54013 -15.53845 -15.53141 -11.31401 -11.23566
 Alpha  occ. eigenvalues --  -11.21231  -1.26140  -1.14470  -1.12434  -0.97253
 Alpha  occ. eigenvalues --   -0.90270  -0.77941  -0.69214  -0.65300  -0.64469
 Alpha  occ. eigenvalues --   -0.61754  -0.57891  -0.56075  -0.54396  -0.52450
 Alpha  occ. eigenvalues --   -0.51144  -0.50524  -0.41782  -0.39855  -0.37372
 Alpha virt. eigenvalues --    0.03449   0.04484   0.04681   0.05056   0.06786
 Alpha virt. eigenvalues --    0.07054   0.07295   0.07399   0.08134   0.09963
 Alpha virt. eigenvalues --    0.11316   0.11983   0.12500   0.12918   0.13267

 Mulliken charges:
               1
     1  C   -0.482845
     2  N   -0.424000
     3  C    0.458576
     4  C   -0.546988
     5  N   -0.744202
     6  N   -0.751678
     7  H    0.201490
     8  H    0.142333
     9  H    0.176549
    10  H    0.273059
    11  H    0.151863
    12  H    0.179691
    13  H    0.183630
    14  H    0.297619
    15  H    0.298834
    16  H    0.300811
    17  H    0.285256
 Sum of Mulliken charges =  -0.00000

 Dipole moment (field-independent basis, Debye):
    X=             -0.1268    Y=              0.3577    Z=             -1.4932  Tot=              1.5407
 Quadrupole moment (field-independent basis, Debye-Ang):
   XX=            -41.5882   YY=            -38.3063   ZZ=            -37.2315
   XY=             -0.5861   XZ=              1.0252   YZ=             -1.1567

 Normal termination of Gaussian 09 at Fri Aug 26 14:14:46 2022.
