 Gaussian 09, Revision E.01,
 Gaussian 09:  ES64L-G09RevE.01 30-Nov-2015

 -----
 #P G4
 -----

 ---------
 Frag_1130
 ---------
 Symbolic Z-matrix:
 Charge =  0 Multiplicity = 1

 SCF Done:  E(RB3LYP) =  -302.545595946     A.U. after   16 cycles
 SCF Done:  E(RB3LYP) =  -302.564339641     A.U. after   14 cycles
 SCF Done:  E(RB3LYP) =  -302.567775123     A.U. after   13 cycles
 SCF Done:  E(RB3LYP) =  -302.569818384     A.U. after   13 cycles
 SCF Done:  E(RB3LYP) =  -302.571304839     A.U. after   12 cycles
 SCF Done:  E(RB3LYP) =  -302.571826732     A.U. after   13 cycles
 SCF Done:  E(RB3LYP) =  -302.571954088     A.U. after   11 cycles
 SCF Done:  E(RB3LYP) =  -302.571984282     A.U. after   11 cycles
 SCF Done:  E(RB3LYP) =  -302.571988752     A.U. after    9 cycles
 SCF Done:  E(RB3LYP) =  -302.571989544     A.U. after    8 cycles
 Optimization completed.
    -- Stationary point found.
 Normal termination of Gaussian 09 at Mon Aug 22 12:37:36 2022.

 ----------------------------------------------------------
 #P Geom=AllCheck Guess=TCheck SCRF=Check B3LYP/GTBas3 Freq
 ----------------------------------------------------------

 Structure from the checkpoint file:  "G4.Frag_1130.chk"
 ---------
 Frag_1130
 ---------
 Charge =  0 Multiplicity = 1

 SCF Done:  E(RB3LYP) =  -302.571989544     A.U. after    1 cycles

  Exact polarizability:  61.684 -10.504  70.950  -0.365   0.140  28.057
 Approx polarizability:  85.039 -20.235 142.786  -1.789  -4.816  44.079

                      1                      2                      3
                      A                      A                      A
 Frequencies --     94.0519               315.3644               346.8323
 Red. masses --      4.2986                 1.2619                 2.6656
 Frc consts  --      0.0224                 0.0739                 0.1889
 IR Inten    --      2.3206                20.8741                18.7351

                      4                      5                      6
                      A                      A                      A
 Frequencies --    414.4092               431.9316               542.5849
 Red. masses --      2.3756                 2.7467                 2.7141
 Frc consts  --      0.2404                 0.3019                 0.4708
 IR Inten    --      6.6215                 2.0142                11.8843

                      7                      8                      9
                      A                      A                      A
 Frequencies --    559.4505               622.4428               723.9278
 Red. masses --      4.0142                 1.3152                 1.2088
 Frc consts  --      0.7402                 0.3002                 0.3732
 IR Inten    --     12.1569                55.6495                17.4965

                     10                     11                     12
                      A                      A                      A
 Frequencies --    754.3848               775.6050               799.5770
 Red. masses --      1.9444                 1.8531                 1.8015
 Frc consts  --      0.6519                 0.6568                 0.6786
 IR Inten    --     33.7830                 3.1095                47.9344

                     13                     14                     15
                      A                      A                      A
 Frequencies --    811.5121               876.2121               968.3244
 Red. masses --      1.7458                 1.3775                 1.6489
 Frc consts  --      0.6774                 0.6231                 0.9109
 IR Inten    --    104.1861                42.4634                 2.8182

                     16                     17                     18
                      A                      A                      A
 Frequencies --   1099.9629              1134.0017              1301.2398
 Red. masses --      1.9924                 1.5459                 2.1940
 Frc consts  --      1.4203                 1.1713                 2.1888
 IR Inten    --     25.5177                11.1240                36.6019

                     19                     20                     21
                      A                      A                      A
 Frequencies --   1357.7088              1414.2014              1450.1187
 Red. masses --      3.0803                 1.1664                 1.4862
 Frc consts  --      3.3455                 1.3745                 1.8414
 IR Inten    --      5.5338                 6.7092                33.0670

                     22                     23                     24
                      A                      A                      A
 Frequencies --   1605.4369              1632.3070              1743.9217
 Red. masses --      5.3341                 1.1837                 5.6925
 Frc consts  --      8.1003                 1.8582                10.2001
 IR Inten    --    166.1843                35.9434                50.9522

                     25                     26                     27
                      A                      A                      A
 Frequencies --   3186.3853              3205.3432              3295.7952
 Red. masses --      1.0621                 1.0509                 1.1143
 Frc consts  --      6.3537                 6.3617                 7.1313
 IR Inten    --      7.9466                 3.6154                 1.6190

                     28                     29                     30
                      A                      A                      A
 Frequencies --   3339.5748              3523.1404              3626.0542
 Red. masses --      1.1244                 1.0495                 1.0940
 Frc consts  --      7.3887                 7.6755                 8.4751
 IR Inten    --      0.6677                 9.4238                 9.5501

 - Thermochemistry -
 -------------------
 Temperature   298.150 Kelvin.  Pressure   1.00000 Atm.
 Atom     1 has atomic number  6 and mass  12.00000

 Molecular mass:    86.04801 amu.
 Principal axes and moments of inertia in atomic units:
                           1         2         3
     Eigenvalues --   327.72482 477.73406 780.92906
           X            0.99444  -0.10484   0.00969
           Y            0.10467   0.99437   0.01661
           Z           -0.01137  -0.01551   0.99982
 This molecule is an asymmetric top.
 Rotational symmetry number  1.
 Rotational temperatures (Kelvin)      0.26429     0.18130     0.11091
 Rotational constants (GHZ):           5.50688     3.77771     2.31102
 Zero-point vibrational energy     250927.5 (Joules/Mol)
                                   59.97311 (Kcal/Mol)
 Warning -- explicit consideration of   7 degrees of freedom as
           vibrations may cause significant error
 Vibrational temperatures:    135.32   453.74   499.01   596.24   621.45
          (Kelvin)            780.66   804.92   895.56  1041.57  1085.39
                             1115.92  1150.41  1167.58  1260.67  1393.20
                             1582.60  1631.57  1872.19  1953.44  2034.72
                             2086.39  2309.86  2348.52  2509.11  4584.49
                             4611.77  4741.91  4804.90  5069.01  5217.08

 Zero-point correction=                           0.095573 (Hartree/Particle)
 Thermal correction to Energy=                    0.101643
 Thermal correction to Enthalpy=                  0.102587
 Thermal correction to Gibbs Free Energy=         0.066211
 Sum of electronic and zero-point Energies=           -302.476416
 Sum of electronic and thermal Energies=              -302.470347
 Sum of electronic and thermal Enthalpies=            -302.469402
 Sum of electronic and thermal Free Energies=         -302.505779

                     E (Thermal)             CV                S
                      KCal/Mol        Cal/Mol-Kelvin    Cal/Mol-Kelvin
 Total                   63.782             22.796             76.561
 Electronic               0.000              0.000              0.000
 Translational            0.889              2.981             39.270
 Rotational               0.889              2.981             26.306
 Vibrational             62.004             16.835             10.985
 Vibration     1          0.603              1.953              3.574
 Vibration     2          0.703              1.644              1.334
 Vibration     3          0.725              1.582              1.181
 Vibration     4          0.778              1.439              0.911
 Vibration     5          0.793              1.401              0.852
 Vibration     6          0.898              1.156              0.560
 Vibration     7          0.915              1.119              0.525

 Optimization completed.
    -- Stationary point found.
 Normal termination of Gaussian 09 at Mon Aug 22 12:39:28 2022.

 -----------------------------------------------------------------
 #P Geom=AllCheck Guess=TCheck SCRF=Check CCSD(T,E4T,FrzG4)/GTBas1
 -----------------------------------------------------------------

 Structure from the checkpoint file:  "G4.Frag_1130.chk"
 ---------
 Frag_1130
 ---------
 Charge =  0 Multiplicity = 1

 SCF Done:  E(RHF) =  -300.715060087     A.U. after   14 cycles
 E2 =    -0.9014953479D+00 EUMP2 =    -0.30161655543522D+03
 CCSD(T)
 CCSD(T)= -0.30168823603D+03
 CCSD=-301.6517693\CCSD(T)=-301.688236\RMSD=6.568e-09\PG=C01 [X(C3H6N2O
 Normal termination of Gaussian 09 at Mon Aug 22 12:45:26 2022.

 ---------------------------------------------------------
 #P Geom=AllCheck Guess=TCheck SCRF=Check MP4=FrzG4/GTBas2
 ---------------------------------------------------------

 Structure from the checkpoint file:  "G4.Frag_1130.chk"
 ---------
 Frag_1130
 ---------
 Charge =  0 Multiplicity = 1

 SCF Done:  E(RHF) =  -300.727872999     A.U. after   14 cycles
 E2 =    -0.9146762773D+00 EUMP2 =    -0.30164254927594D+03
 Normal termination of Gaussian 09 at Mon Aug 22 12:51:53 2022.

 ---------------------------------------------------------
 #P Geom=AllCheck Guess=TCheck SCRF=Check MP4=FrzG4/GTBas3
 ---------------------------------------------------------

 Structure from the checkpoint file:  "G4.Frag_1130.chk"
 ---------
 Frag_1130
 ---------
 Charge =  0 Multiplicity = 1

 SCF Done:  E(RHF) =  -300.753889543     A.U. after   13 cycles
 E2 =    -0.1088610678D+01 EUMP2 =    -0.30184250022120D+03
 Normal termination of Gaussian 09 at Mon Aug 22 14:40:43 2022.

 -----------------------------------------------------------
 #P Geom=AllCheck Guess=TCheck SCRF=Check MP2=Full/GTLargeXP
 -----------------------------------------------------------

 Structure from the checkpoint file:  "G4.Frag_1130.chk"
 ---------
 Frag_1130
 ---------
 Charge =  0 Multiplicity = 1

 SCF Done:  E(RHF) =  -300.833858397     A.U. after   13 cycles
 E2 =    -0.1422348492D+01 EUMP2 =    -0.30225620688969D+03
 Normal termination of Gaussian 09 at Mon Aug 22 15:01:16 2022.
 SCF Done:  E(RHF) =  -300.857805266     A.U. after   10 cycles
 Normal termination of Gaussian 09 at Mon Aug 22 15:09:11 2022.

                         Standard orientation:
 ---------------------------------------------------------------------
 Center     Atomic      Atomic             Coordinates (Angstroms)
 Number     Number       Type             X           Y           Z
 ---------------------------------------------------------------------
      1          6           0       -1.322231    1.226437    0.187508
      2          6           0       -0.708785    0.061132    0.003571
      3          7           0       -1.295387   -1.202073   -0.103884
      4          7           0        0.763982    0.050616   -0.007408
      5          6           0        1.395549   -1.072304    0.227444
      6          8           0        1.331783    1.152721   -0.246110
      7          1           0       -2.402512    1.293808    0.171569
      8          1           0       -0.733060    2.113254    0.362920
      9          1           0       -0.987256   -1.723304   -0.916992
     10          1           0       -2.305286   -1.152838   -0.079621
     11          1           0        2.473730   -1.036003    0.198302
     12          1           0        0.832761   -1.948078    0.500616
 ---------------------------------------------------------------------

 SCF Done:  E(RHF) =  -300.862681433     A.U. after    8 cycles

 The electronic state is 1-A.
 Alpha  occ. eigenvalues --  -20.50795 -15.73308 -15.58895 -11.32443 -11.28581
 Alpha  occ. eigenvalues --  -11.22911  -1.45418  -1.25090  -1.13831  -1.03877
 Alpha  occ. eigenvalues --   -0.89409  -0.77228  -0.73956  -0.69852  -0.66757
 Alpha  occ. eigenvalues --   -0.62866  -0.62224  -0.59600  -0.55662  -0.50621
 Alpha  occ. eigenvalues --   -0.42125  -0.36030  -0.33580
 Alpha virt. eigenvalues --    0.02947   0.03758   0.04162   0.05136   0.06405
 Alpha virt. eigenvalues --    0.06993   0.07739   0.08478   0.09006   0.09942
 Alpha virt. eigenvalues --    0.10106   0.11822   0.12084   0.12543   0.13295

 Mulliken charges:
               1
     1  C   -0.400218
     2  C    0.223187
     3  N   -0.724915
     4  N    0.294576
     5  C   -0.345420
     6  O   -0.616920
     7  H    0.181438
     8  H    0.247894
     9  H    0.319865
    10  H    0.319403
    11  H    0.247186
    12  H    0.253922
 Sum of Mulliken charges =  -0.00000

 Dipole moment (field-independent basis, Debye):
    X=             -2.7704    Y=             -3.7877    Z=             -0.1161  Tot=              4.6942
 Quadrupole moment (field-independent basis, Debye-Ang):
   XX=            -32.0292   YY=            -35.7715   ZZ=            -38.0388
   XY=             -5.1460   XZ=              2.4098   YZ=              3.0264

 Normal termination of Gaussian 09 at Mon Aug 22 17:27:50 2022.
