 Gaussian 09, Revision E.01,
 Gaussian 09:  ES64L-G09RevE.01 30-Nov-2015

 -----
 #P G4
 -----

 --------
 Frag_714
 --------
 Symbolic Z-matrix:
 Charge =  0 Multiplicity = 1

 SCF Done:  E(RB3LYP) =  -171.031537030     A.U. after   12 cycles
 SCF Done:  E(RB3LYP) =  -171.036978535     A.U. after   11 cycles
 SCF Done:  E(RB3LYP) =  -171.037861898     A.U. after   11 cycles
 SCF Done:  E(RB3LYP) =  -171.038042919     A.U. after   10 cycles
 SCF Done:  E(RB3LYP) =  -171.038058608     A.U. after    9 cycles
 SCF Done:  E(RB3LYP) =  -171.038062873     A.U. after    8 cycles
 SCF Done:  E(RB3LYP) =  -171.038064790     A.U. after    8 cycles
 Optimization completed.
    -- Stationary point found.
 Normal termination of Gaussian 09 at Fri Aug 26 15:08:21 2022.

 ----------------------------------------------------------
 #P Geom=AllCheck Guess=TCheck SCRF=Check B3LYP/GTBas3 Freq
 ----------------------------------------------------------

 Structure from the checkpoint file:  "G4.Frag_714.chk"
 --------
 Frag_714
 --------
 Charge =  0 Multiplicity = 1

 SCF Done:  E(RB3LYP) =  -171.038064790     A.U. after    1 cycles

  Exact polarizability:  29.852  -1.103  23.313  -1.312   1.018  21.860
 Approx polarizability:  37.809  -3.156  32.127  -1.420   0.918  30.455

                      1                      2                      3
                      A                      A                      A
 Frequencies --    264.0350               317.9027               436.3734
 Red. masses --      1.1536                 1.1414                 2.8124
 Frc consts  --      0.0474                 0.0680                 0.3155
 IR Inten    --      1.0311                95.4562                 6.7518

                      4                      5                      6
                      A                      A                      A
 Frequencies --    855.5815               977.3210              1057.5707
 Red. masses --      3.2868                 1.1868                 4.8786
 Frc consts  --      1.4176                 0.6679                 3.2149
 IR Inten    --     46.3556                38.3030                26.7140

                      7                      8                      9
                      A                      A                      A
 Frequencies --   1156.2539              1226.4695              1378.9043
 Red. masses --      1.4530                 1.5163                 1.2206
 Frc consts  --      1.1445                 1.3439                 1.3673
 IR Inten    --      7.7856                23.6986                35.5730

                     10                     11                     12
                      A                      A                      A
 Frequencies --   1440.4896              1474.5077              1489.9632
 Red. masses --      1.1902                 1.0417                 1.0900
 Frc consts  --      1.4550                 1.3343                 1.4257
 IR Inten    --      0.0803                 3.9283                 3.4517

                     13                     14                     15
                      A                      A                      A
 Frequencies --   1518.5494              3000.5954              3078.1976
 Red. masses --      1.0428                 1.0424                 1.0915
 Frc consts  --      1.4168                 5.5298                 6.0935
 IR Inten    --      2.9733                46.4544                32.1364

                     16                     17                     18
                      A                      A                      A
 Frequencies --   3111.2421              3459.3786              3802.9429
 Red. masses --      1.1026                 1.0753                 1.0683
 Frc consts  --      6.2881                 7.5821                 9.1027
 IR Inten    --     24.2217                 1.6410                32.9288

 - Thermochemistry -
 -------------------
 Temperature   298.150 Kelvin.  Pressure   1.00000 Atm.
 Atom     1 has atomic number  6 and mass  12.00000

 Molecular mass:    47.03711 amu.
 Principal axes and moments of inertia in atomic units:
                           1         2         3
     Eigenvalues --    46.03433 181.56753 206.85300
           X            0.99937   0.02762  -0.02227
           Y           -0.02456   0.99152   0.12762
           Z            0.02560  -0.12700   0.99157
 This molecule is an asymmetric top.
 Rotational symmetry number  1.
 Rotational temperatures (Kelvin)      1.88150     0.47703     0.41872
 Rotational constants (GHZ):          39.20425     9.93978     8.72475
 Zero-point vibrational energy     179716.7 (Joules/Mol)
                                   42.95331 (Kcal/Mol)
 Warning -- explicit consideration of   3 degrees of freedom as
           vibrations may cause significant error
 Vibrational temperatures:    379.89   457.39   627.84  1230.99  1406.15
          (Kelvin)           1521.61  1663.59  1764.61  1983.93  2072.54
                             2121.49  2143.72  2184.85  4317.18  4428.83
                             4476.38  4977.27  5471.58

 Zero-point correction=                           0.068450 (Hartree/Particle)
 Thermal correction to Energy=                    0.072622
 Thermal correction to Enthalpy=                  0.073566
 Thermal correction to Gibbs Free Energy=         0.043234
 Sum of electronic and zero-point Energies=           -170.969614
 Sum of electronic and thermal Energies=              -170.965443
 Sum of electronic and thermal Enthalpies=            -170.964499
 Sum of electronic and thermal Free Energies=         -170.994830

                     E (Thermal)             CV                S
                      KCal/Mol        Cal/Mol-Kelvin    Cal/Mol-Kelvin
 Total                   45.571             12.875             63.839
 Electronic               0.000              0.000              0.000
 Translational            0.889              2.981             37.470
 Rotational               0.889              2.981             22.074
 Vibrational             43.794              6.913              4.295
 Vibration     1          0.671              1.739              1.635
 Vibration     2          0.704              1.639              1.321
 Vibration     3          0.797              1.391              0.838

 Optimization completed.
    -- Stationary point found.
 Normal termination of Gaussian 09 at Fri Aug 26 15:08:31 2022.

 -----------------------------------------------------------------
 #P Geom=AllCheck Guess=TCheck SCRF=Check CCSD(T,E4T,FrzG4)/GTBas1
 -----------------------------------------------------------------

 Structure from the checkpoint file:  "G4.Frag_714.chk"
 --------
 Frag_714
 --------
 Charge =  0 Multiplicity = 1

 SCF Done:  E(RHF) =  -170.009611341     A.U. after   12 cycles
 E2 =    -0.4769831422D+00 EUMP2 =    -0.17048659448325D+03
 CCSD(T)
 CCSD(T)= -0.17052866062D+03
 TQ=-170.5277432\MP4SDQ=-170.5158346\CCSD=-170.5165366\CCSD(T)=-170.528
 Normal termination of Gaussian 09 at Fri Aug 26 15:08:40 2022.

 ---------------------------------------------------------
 #P Geom=AllCheck Guess=TCheck SCRF=Check MP4=FrzG4/GTBas2
 ---------------------------------------------------------

 Structure from the checkpoint file:  "G4.Frag_714.chk"
 --------
 Frag_714
 --------
 Charge =  0 Multiplicity = 1

 SCF Done:  E(RHF) =  -170.016569584     A.U. after   12 cycles
 E2 =    -0.4859961124D+00 EUMP2 =    -0.17050256569686D+03
 Normal termination of Gaussian 09 at Fri Aug 26 15:08:44 2022.

 ---------------------------------------------------------
 #P Geom=AllCheck Guess=TCheck SCRF=Check MP4=FrzG4/GTBas3
 ---------------------------------------------------------

 Structure from the checkpoint file:  "G4.Frag_714.chk"
 --------
 Frag_714
 --------
 Charge =  0 Multiplicity = 1

 SCF Done:  E(RHF) =  -170.034184874     A.U. after   12 cycles
 E2 =    -0.5937237100D+00 EUMP2 =    -0.17062790858365D+03
 Normal termination of Gaussian 09 at Fri Aug 26 15:08:56 2022.

 -----------------------------------------------------------
 #P Geom=AllCheck Guess=TCheck SCRF=Check MP2=Full/GTLargeXP
 -----------------------------------------------------------

 Structure from the checkpoint file:  "G4.Frag_714.chk"
 --------
 Frag_714
 --------
 Charge =  0 Multiplicity = 1

 SCF Done:  E(RHF) =  -170.083302042     A.U. after   12 cycles
 E2 =    -0.7719223890D+00 EUMP2 =    -0.17085522443145D+03
 Normal termination of Gaussian 09 at Fri Aug 26 15:09:05 2022.
 SCF Done:  E(RHF) =  -170.097867330     A.U. after    9 cycles
 Normal termination of Gaussian 09 at Fri Aug 26 15:09:17 2022.

                         Standard orientation:
 ---------------------------------------------------------------------
 Center     Atomic      Atomic             Coordinates (Angstroms)
 Number     Number       Type             X           Y           Z
 ---------------------------------------------------------------------
      1          6           0       -1.162570   -0.232041    0.004871
      2          7           0        0.046160    0.570755   -0.154669
      3          8           0        1.168577   -0.289553    0.130551
      4          1           0       -1.232216   -0.946352   -0.820483
      5          1           0       -1.196064   -0.787807    0.952756
      6          1           0       -2.023920    0.442810   -0.046995
      7          1           0        0.076605    1.245088    0.608404
      8          1           0        1.679284   -0.240356   -0.684631
 ---------------------------------------------------------------------

 SCF Done:  E(RHF) =  -170.101021731     A.U. after    8 cycles

 The electronic state is 1-A.
 Alpha  occ. eigenvalues --  -20.58090 -15.60631 -11.24809  -1.39407  -1.11949
 Alpha  occ. eigenvalues --   -0.89276  -0.68827  -0.67524  -0.60458  -0.56880
 Alpha  occ. eigenvalues --   -0.53439  -0.47530  -0.40472
 Alpha virt. eigenvalues --    0.04954   0.05472   0.05769   0.06150   0.09206
 Alpha virt. eigenvalues --    0.10156   0.10738   0.12965   0.13483   0.17142
 Alpha virt. eigenvalues --    0.19458   0.20379   0.20653   0.22200   0.23918

 Mulliken charges:
               1
     1  C   -0.393197
     2  N   -0.259766
     3  O   -0.527299
     4  H    0.168052
     5  H    0.167015
     6  H    0.169876
     7  H    0.285629
     8  H    0.389690
 Sum of Mulliken charges =  -0.00000

 Dipole moment (field-independent basis, Debye):
    X=             -0.7034    Y=              0.4003    Z=             -0.1836  Tot=              0.8299
 Quadrupole moment (field-independent basis, Debye-Ang):
   XX=            -17.3760   YY=            -19.3535   ZZ=            -18.8837
   XY=              0.2097   XZ=             -2.5993   YZ=              2.4215

 Normal termination of Gaussian 09 at Fri Aug 26 15:10:22 2022.
