 Gaussian 09, Revision E.01,
 Gaussian 09:  ES64L-G09RevE.01 30-Nov-2015

 -----
 #P G4
 -----

 --------
 Frag_528
 --------
 Symbolic Z-matrix:
 Charge =  0 Multiplicity = 1

 SCF Done:  E(RB3LYP) =  -116.664149783     A.U. after   12 cycles
 SCF Done:  E(RB3LYP) =  -116.664939989     A.U. after   10 cycles
 SCF Done:  E(RB3LYP) =  -116.664956156     A.U. after    8 cycles
 SCF Done:  E(RB3LYP) =  -116.664843864     A.U. after   10 cycles
 SCF Done:  E(RB3LYP) =  -116.664959014     A.U. after    6 cycles
 SCF Done:  E(RB3LYP) =  -116.664958184     A.U. after    8 cycles
 SCF Done:  E(RB3LYP) =  -116.664958311     A.U. after    8 cycles
 SCF Done:  E(RB3LYP) =  -116.664958857     A.U. after    7 cycles
 Optimization completed.
    -- Stationary point found.
 Normal termination of Gaussian 09 at Sun Aug 21 07:31:18 2022.

 ----------------------------------------------------------
 #P Geom=AllCheck Guess=TCheck SCRF=Check B3LYP/GTBas3 Freq
 ----------------------------------------------------------

 Structure from the checkpoint file:  "G4.Frag_528.chk"
 --------
 Frag_528
 --------
 Charge =  0 Multiplicity = 1

 SCF Done:  E(RB3LYP) =  -116.664958857     A.U. after    1 cycles

  Exact polarizability:  45.714   0.001  20.321   0.001   0.000  20.321
 Approx polarizability:  73.556   0.004  27.939   0.002   0.000  27.939

                      1                      2                      3
                      A                      A                      A
 Frequencies --    340.0103               340.2936               619.5874
 Red. masses --      3.4524                 3.4543                 1.1925
 Frc consts  --      0.2352                 0.2357                 0.2697
 IR Inten    --      3.6845                 3.6821                46.2774

                      4                      5                      6
                      A                      A                      A
 Frequencies --    619.5985               946.4708              1056.0105
 Red. masses --      1.1925                 4.0954                 1.4045
 Frc consts  --      0.2697                 2.1615                 0.9228
 IR Inten    --     46.2783                 0.3845                 0.6780

                      7                      8                      9
                      A                      A                      A
 Frequencies --   1056.1719              1414.2011              1477.7770
 Red. masses --      1.4042                 1.2311                 1.0393
 Frc consts  --      0.9229                 1.4506                 1.3373
 IR Inten    --      0.6782                 0.7473                 5.7199

                     10                     11                     12
                      A                      A                      A
 Frequencies --   1477.8778              2245.6150              3031.2234
 Red. masses --      1.0393                 5.9190                 1.0348
 Frc consts  --      1.3375                17.5862                 5.6021
 IR Inten    --      5.7243                 3.1896                18.7069

                     13                     14                     15
                      A                      A                      A
 Frequencies --   3093.6328              3093.6983              3509.7965
 Red. masses --      1.1003                 1.1002                 1.1627
 Frc consts  --      6.2041                 6.2043                 8.4386
 IR Inten    --      9.3459                 9.3456                59.1942

 - Thermochemistry -
 -------------------
 Temperature   298.150 Kelvin.  Pressure   1.00000 Atm.
 Atom     1 has atomic number  6 and mass  12.00000

 Molecular mass:    40.03130 amu.
 Principal axes and moments of inertia in atomic units:
                           1         2         3
     Eigenvalues --    11.25997 210.02524 210.02528
           X            1.00000   0.00000  -0.00000
           Y           -0.00000   1.00000  -0.00183
           Z            0.00000   0.00183   1.00000
 This molecule is an asymmetric top.
 Rotational symmetry number  1.
 Rotational temperatures (Kelvin)      7.69219     0.41240     0.41240
 Rotational constants (GHZ):         160.27937     8.59297     8.59297
 Zero-point vibrational energy     145477.7 (Joules/Mol)
                                   34.76999 (Kcal/Mol)
 Warning -- explicit consideration of   4 degrees of freedom as
           vibrations may cause significant error
 Vibrational temperatures:    489.20   489.61   891.45   891.46  1361.76
          (Kelvin)           1519.36  1519.59  2034.72  2126.19  2126.33
                             3230.94  4361.25  4451.04  4451.14  5049.81

 Zero-point correction=                           0.055410 (Hartree/Particle)
 Thermal correction to Energy=                    0.059408
 Thermal correction to Enthalpy=                  0.060352
 Thermal correction to Gibbs Free Energy=         0.031184
 Sum of electronic and zero-point Energies=           -116.609549
 Sum of electronic and thermal Energies=              -116.605551
 Sum of electronic and thermal Enthalpies=            -116.604606
 Sum of electronic and thermal Free Energies=         -116.633775

                     E (Thermal)             CV                S
                      KCal/Mol        Cal/Mol-Kelvin    Cal/Mol-Kelvin
 Total                   37.279             12.480             61.389
 Electronic               0.000              0.000              0.000
 Translational            0.889              2.981             36.989
 Rotational               0.889              2.981             20.835
 Vibrational             35.502              6.518              3.566
 Vibration     1          0.720              1.596              1.212
 Vibration     2          0.720              1.595              1.211
 Vibration     3          0.980              0.991              0.417
 Vibration     4          0.980              0.991              0.417

 Optimization completed.
    -- Stationary point found.
 Normal termination of Gaussian 09 at Sun Aug 21 07:31:30 2022.

 -----------------------------------------------------------------
 #P Geom=AllCheck Guess=TCheck SCRF=Check CCSD(T,E4T,FrzG4)/GTBas1
 -----------------------------------------------------------------

 Structure from the checkpoint file:  "G4.Frag_528.chk"
 --------
 Frag_528
 --------
 Charge =  0 Multiplicity = 1

 SCF Done:  E(RHF) =  -115.863449298     A.U. after   11 cycles
 E2 =    -0.3776734687D+00 EUMP2 =    -0.11624112276714D+03
 CCSD(T)
 CCSD(T)= -0.11628330556D+03
 0726\CCSD(T)=-116.2833056\RMSD=3.367e-09\PG=C01 [X(C3H4)]\\@
 Normal termination of Gaussian 09 at Sun Aug 21 07:31:37 2022.

 ---------------------------------------------------------
 #P Geom=AllCheck Guess=TCheck SCRF=Check MP4=FrzG4/GTBas2
 ---------------------------------------------------------

 Structure from the checkpoint file:  "G4.Frag_528.chk"
 --------
 Frag_528
 --------
 Charge =  0 Multiplicity = 1

 SCF Done:  E(RHF) =  -115.868640964     A.U. after   11 cycles
 E2 =    -0.3795366482D+00 EUMP2 =    -0.11624817761181D+03
 Normal termination of Gaussian 09 at Sun Aug 21 07:31:40 2022.

 ---------------------------------------------------------
 #P Geom=AllCheck Guess=TCheck SCRF=Check MP4=FrzG4/GTBas3
 ---------------------------------------------------------

 Structure from the checkpoint file:  "G4.Frag_528.chk"
 --------
 Frag_528
 --------
 Charge =  0 Multiplicity = 1

 SCF Done:  E(RHF) =  -115.879098714     A.U. after   10 cycles
 E2 =    -0.4577130319D+00 EUMP2 =    -0.11633681174564D+03
 Normal termination of Gaussian 09 at Sun Aug 21 07:31:53 2022.

 -----------------------------------------------------------
 #P Geom=AllCheck Guess=TCheck SCRF=Check MP2=Full/GTLargeXP
 -----------------------------------------------------------

 Structure from the checkpoint file:  "G4.Frag_528.chk"
 --------
 Frag_528
 --------
 Charge =  0 Multiplicity = 1

 SCF Done:  E(RHF) =  -115.906262605     A.U. after   11 cycles
 E2 =    -0.6103900832D+00 EUMP2 =    -0.11651665268819D+03
 Normal termination of Gaussian 09 at Sun Aug 21 07:32:08 2022.
 SCF Done:  E(RHF) =  -115.915573960     A.U. after    8 cycles
 Normal termination of Gaussian 09 at Sun Aug 21 07:32:35 2022.

                         Standard orientation:
 ---------------------------------------------------------------------
 Center     Atomic      Atomic             Coordinates (Angstroms)
 Number     Number       Type             X           Y           Z
 ---------------------------------------------------------------------
      1          6           0        1.420153    0.000010    0.000015
      2          6           0        0.218693   -0.000100   -0.000038
      3          6           0       -1.236326    0.000026    0.000008
      4          1           0        2.481636    0.000162    0.000012
      5          1           0       -1.632298   -0.660309    0.778981
      6          1           0       -1.632336   -0.344336   -0.961358
      7          1           0       -1.632119    1.004862    0.182451
 ---------------------------------------------------------------------

 SCF Done:  E(RHF) =  -115.917326455     A.U. after    7 cycles

 The electronic state is 1-A.
 Alpha  occ. eigenvalues --  -11.25040 -11.23395 -11.21751  -1.05807  -0.95806
 Alpha  occ. eigenvalues --   -0.71906  -0.62508  -0.59073  -0.59073  -0.38543
 Alpha  occ. eigenvalues --   -0.38543
 Alpha virt. eigenvalues --    0.04096   0.04597   0.05813   0.05813   0.07068
 Alpha virt. eigenvalues --    0.08165   0.08165   0.10509   0.11560   0.11560
 Alpha virt. eigenvalues --    0.14954   0.17223   0.17269   0.17270   0.20912

 Mulliken charges:
               1
     1  C   -0.427405
     2  C    0.117550
     3  C   -0.518187
     4  H    0.237375
     5  H    0.196887
     6  H    0.196886
     7  H    0.196893
 Sum of Mulliken charges =  -0.00000

 Dipole moment (field-independent basis, Debye):
    X=             -0.7889    Y=              0.0003    Z=              0.0000  Tot=              0.7889
 Quadrupole moment (field-independent basis, Debye-Ang):
   XX=            -13.8353   YY=            -20.0235   ZZ=            -20.0235
   XY=              0.0007   XZ=              0.0001   YZ=              0.0000

 Normal termination of Gaussian 09 at Sun Aug 21 07:45:38 2022.
