 Gaussian 09, Revision E.01,
 Gaussian 09:  ES64L-G09RevE.01 30-Nov-2015

 -----
 #P G4
 -----

 --------
 Frag_947
 --------
 Symbolic Z-matrix:
 Charge =  0 Multiplicity = 1

 SCF Done:  E(RB3LYP) =  -242.208357084     A.U. after   14 cycles
 SCF Done:  E(RB3LYP) =  -242.241375910     A.U. after   13 cycles
 SCF Done:  E(RB3LYP) =  -242.251705108     A.U. after   14 cycles
 SCF Done:  E(RB3LYP) =  -242.256426727     A.U. after   13 cycles
 SCF Done:  E(RB3LYP) =  -242.256669682     A.U. after   12 cycles
 SCF Done:  E(RB3LYP) =  -242.256203342     A.U. after   14 cycles
 SCF Done:  E(RB3LYP) =  -242.256757469     A.U. after   10 cycles
 SCF Done:  E(RB3LYP) =  -242.256829660     A.U. after   10 cycles
 SCF Done:  E(RB3LYP) =  -242.256821106     A.U. after   11 cycles
 SCF Done:  E(RB3LYP) =  -242.256863998     A.U. after   11 cycles
 SCF Done:  E(RB3LYP) =  -242.256873918     A.U. after    9 cycles
 SCF Done:  E(RB3LYP) =  -242.256876401     A.U. after    8 cycles
 SCF Done:  E(RB3LYP) =  -242.256877081     A.U. after    8 cycles
 Optimization completed.
    -- Stationary point found.
 Normal termination of Gaussian 09 at Tue Aug 30 11:59:03 2022.

 ----------------------------------------------------------
 #P Geom=AllCheck Guess=TCheck SCRF=Check B3LYP/GTBas3 Freq
 ----------------------------------------------------------

 Structure from the checkpoint file:  "G4.Frag_947.chk"
 --------
 Frag_947
 --------
 Charge =  0 Multiplicity = 1

 SCF Done:  E(RB3LYP) =  -242.256877081     A.U. after    1 cycles

  Exact polarizability:  50.243  -2.043  43.921  -0.034  -0.115  20.856
 Approx polarizability:  85.793 -10.591  73.641   0.202   0.954  31.195

                      1                      2                      3
                      A                      A                      A
 Frequencies --    200.1976               294.4317               358.8809
 Red. masses --      5.6465                 4.8532                 1.1965
 Frc consts  --      0.1333                 0.2479                 0.0908
 IR Inten    --      9.4520                12.5207               129.8201

                      4                      5                      6
                      A                      A                      A
 Frequencies --    474.3091               509.3675               613.0798
 Red. masses --      3.1232                 1.3052                 5.9470
 Frc consts  --      0.4140                 0.1995                 1.3170
 IR Inten    --     13.7700               151.3938                 3.8961

                      7                      8                      9
                      A                      A                      A
 Frequencies --    727.6999               794.8206               836.8915
 Red. masses --      8.6530                 4.5940                 1.1285
 Frc consts  --      2.6997                 1.7099                 0.4657
 IR Inten    --      5.6544                 7.6220                59.0675

                     10                     11                     12
                      A                      A                      A
 Frequencies --   1125.7511              1148.7983              1411.1276
 Red. masses --      1.7614                 1.3207                 2.8729
 Frc consts  --      1.3152                 1.0269                 3.3706
 IR Inten    --     17.0091               126.9492                86.7898

                     13                     14                     15
                      A                      A                      A
 Frequencies --   1620.7923              1708.1141              2349.0059
 Red. masses --      1.2656                 5.5164                12.7035
 Frc consts  --      1.9588                 9.4828                41.2991
 IR Inten    --     39.2054               237.8705                 2.2229

                     16                     17                     18
                      A                      A                      A
 Frequencies --   3534.5824              3586.4269              3714.3637
 Red. masses --      1.0762                 1.0465                 1.1017
 Frc consts  --      7.9214                 7.9306                 8.9554
 IR Inten    --     16.0017                53.6843                48.5809

 - Thermochemistry -
 -------------------
 Temperature   298.150 Kelvin.  Pressure   1.00000 Atm.
 Atom     1 has atomic number  7 and mass  14.00307

 Molecular mass:    69.03270 amu.
 Principal axes and moments of inertia in atomic units:
                           1         2         3
     Eigenvalues --   167.70060 420.45922 587.27710
           X            0.99926   0.03828  -0.00382
           Y           -0.03833   0.99918  -0.01308
           Z            0.00331   0.01322   0.99991
 This molecule is an asymmetric top.
 Rotational symmetry number  1.
 Rotational temperatures (Kelvin)      0.51648     0.20600     0.14748
 Rotational constants (GHZ):          10.76169     4.29231     3.07307
 Zero-point vibrational energy     149584.9 (Joules/Mol)
                                   35.75165 (Kcal/Mol)
 Warning -- explicit consideration of   6 degrees of freedom as
           vibrations may cause significant error
 Vibrational temperatures:    288.04   423.62   516.35   682.42   732.87
          (Kelvin)            882.08  1047.00  1143.57  1204.10  1619.70
                             1652.86  2030.30  2331.96  2457.59  3379.69
                             5085.47  5160.06  5344.13

 Zero-point correction=                           0.056974 (Hartree/Particle)
 Thermal correction to Energy=                    0.062065
 Thermal correction to Enthalpy=                  0.063009
 Thermal correction to Gibbs Free Energy=         0.029208
 Sum of electronic and zero-point Energies=           -242.199903
 Sum of electronic and thermal Energies=              -242.194812
 Sum of electronic and thermal Enthalpies=            -242.193868
 Sum of electronic and thermal Free Energies=         -242.227669

                     E (Thermal)             CV                S
                      KCal/Mol        Cal/Mol-Kelvin    Cal/Mol-Kelvin
 Total                   38.947             17.300             71.140
 Electronic               0.000              0.000              0.000
 Translational            0.889              2.981             38.613
 Rotational               0.889              2.981             25.230
 Vibrational             37.169             11.338              7.297
 Vibration     1          0.638              1.840              2.131
 Vibration     2          0.689              1.684              1.448
 Vibration     3          0.734              1.557              1.127
 Vibration     4          0.831              1.307              0.726
 Vibration     5          0.865              1.229              0.635
 Vibration     6          0.972              1.004              0.428

 Optimization completed.
    -- Stationary point found.
 Normal termination of Gaussian 09 at Tue Aug 30 11:59:20 2022.

 -----------------------------------------------------------------
 #P Geom=AllCheck Guess=TCheck SCRF=Check CCSD(T,E4T,FrzG4)/GTBas1
 -----------------------------------------------------------------

 Structure from the checkpoint file:  "G4.Frag_947.chk"
 --------
 Frag_947
 --------
 Charge =  0 Multiplicity = 1

 SCF Done:  E(RHF) =  -240.799328742     A.U. after   15 cycles
 E2 =    -0.7311561824D+00 EUMP2 =    -0.24153048492418D+03
 CCSD(T)
 CCSD(T)= -0.24157979979D+03
 296\MP4SDQ=-241.5520475\CCSD=-241.5504412\CCSD(T)=-241.5797998\RMSD=3.
 Normal termination of Gaussian 09 at Tue Aug 30 11:59:57 2022.

 ---------------------------------------------------------
 #P Geom=AllCheck Guess=TCheck SCRF=Check MP4=FrzG4/GTBas2
 ---------------------------------------------------------

 Structure from the checkpoint file:  "G4.Frag_947.chk"
 --------
 Frag_947
 --------
 Charge =  0 Multiplicity = 1

 SCF Done:  E(RHF) =  -240.808032377     A.U. after   14 cycles
 E2 =    -0.7408639310D+00 EUMP2 =    -0.24154889630805D+03
 Normal termination of Gaussian 09 at Tue Aug 30 12:00:09 2022.

 ---------------------------------------------------------
 #P Geom=AllCheck Guess=TCheck SCRF=Check MP4=FrzG4/GTBas3
 ---------------------------------------------------------

 Structure from the checkpoint file:  "G4.Frag_947.chk"
 --------
 Frag_947
 --------
 Charge =  0 Multiplicity = 1

 SCF Done:  E(RHF) =  -240.829818196     A.U. after   13 cycles
 E2 =    -0.8613997935D+00 EUMP2 =    -0.24169121798974D+03
 Normal termination of Gaussian 09 at Tue Aug 30 12:00:54 2022.

 -----------------------------------------------------------
 #P Geom=AllCheck Guess=TCheck SCRF=Check MP2=Full/GTLargeXP
 -----------------------------------------------------------

 Structure from the checkpoint file:  "G4.Frag_947.chk"
 --------
 Frag_947
 --------
 Charge =  0 Multiplicity = 1

 SCF Done:  E(RHF) =  -240.892307429     A.U. after   14 cycles
 E2 =    -0.1132341743D+01 EUMP2 =    -0.24202464917114D+03
 Normal termination of Gaussian 09 at Tue Aug 30 12:01:29 2022.
 SCF Done:  E(RHF) =  -240.910268019     A.U. after   10 cycles
 Normal termination of Gaussian 09 at Tue Aug 30 12:02:07 2022.

                         Standard orientation:
 ---------------------------------------------------------------------
 Center     Atomic      Atomic             Coordinates (Angstroms)
 Number     Number       Type             X           Y           Z
 ---------------------------------------------------------------------
      1          7           0        2.153979   -0.108274    0.003985
      2          6           0        0.999886   -0.037815   -0.007592
      3          6           0       -0.449114    0.112719   -0.002384
      4          7           0       -1.037528    1.245637    0.015880
      5          7           0       -1.134737   -1.072284   -0.062151
      6          1           0       -0.369718    2.012013   -0.004910
      7          1           0       -2.127332   -1.004355    0.107722
      8          1           0       -0.679584   -1.912636    0.253046
 ---------------------------------------------------------------------

 SCF Done:  E(RHF) =  -240.913803498     A.U. after    8 cycles

 The electronic state is 1-A.
 Alpha  occ. eigenvalues --  -15.60761 -15.60726 -15.57002 -11.38057 -11.30213
 Alpha  occ. eigenvalues --   -1.30990  -1.24211  -1.18443  -0.92603  -0.79561
 Alpha  occ. eigenvalues --   -0.70759  -0.66859  -0.59473  -0.59306  -0.51388
 Alpha  occ. eigenvalues --   -0.49128  -0.46519  -0.40291
 Alpha virt. eigenvalues --    0.03221   0.04692   0.04964   0.05806   0.07149
 Alpha virt. eigenvalues --    0.07528   0.07825   0.08247   0.09885   0.10533
 Alpha virt. eigenvalues --    0.12067   0.13414   0.13728   0.14455   0.15253

 Mulliken charges:
               1
     1  N   -0.405210
     2  C    0.328729
     3  C    0.373870
     4  N   -0.637930
     5  N   -0.652414
     6  H    0.305561
     7  H    0.354080
     8  H    0.333315
 Sum of Mulliken charges =  -0.00000

 Dipole moment (field-independent basis, Debye):
    X=             -1.9372    Y=             -1.6504    Z=              0.6860  Tot=              2.6357
 Quadrupole moment (field-independent basis, Debye-Ang):
   XX=            -36.7120   YY=            -24.8849   ZZ=            -30.5575
   XY=              5.1885   XZ=             -0.9119   YZ=             -1.5435

 Normal termination of Gaussian 09 at Tue Aug 30 12:05:25 2022.
