 Gaussian 09, Revision E.01,
 Gaussian 09:  ES64L-G09RevE.01 30-Nov-2015

 -----
 #P G4
 -----

 --------
 Frag_778
 --------
 Symbolic Z-matrix:
 Charge =  0 Multiplicity = 1

 SCF Done:  E(RB3LYP) =  -228.550721251     A.U. after   15 cycles
 SCF Done:  E(RB3LYP) =  -228.569212564     A.U. after   13 cycles
 SCF Done:  E(RB3LYP) =  -228.571344149     A.U. after   12 cycles
 SCF Done:  E(RB3LYP) =  -228.571750246     A.U. after   12 cycles
 SCF Done:  E(RB3LYP) =  -228.571931037     A.U. after   12 cycles
 SCF Done:  E(RB3LYP) =  -228.571977018     A.U. after   12 cycles
 SCF Done:  E(RB3LYP) =  -228.572034905     A.U. after   10 cycles
 SCF Done:  E(RB3LYP) =  -228.572054938     A.U. after   10 cycles
 SCF Done:  E(RB3LYP) =  -228.572056131     A.U. after    8 cycles
 SCF Done:  E(RB3LYP) =  -228.572056335     A.U. after    7 cycles
 Optimization completed.
    -- Stationary point found.
 Normal termination of Gaussian 09 at Fri Aug 26 14:09:05 2022.

 ----------------------------------------------------------
 #P Geom=AllCheck Guess=TCheck SCRF=Check B3LYP/GTBas3 Freq
 ----------------------------------------------------------

 Structure from the checkpoint file:  "G4.Frag_778.chk"
 --------
 Frag_778
 --------
 Charge =  0 Multiplicity = 1

 SCF Done:  E(RB3LYP) =  -228.572056335     A.U. after    1 cycles

  Exact polarizability:  54.819   7.141  61.648   4.622   1.997  35.747
 Approx polarizability:  72.449  18.652 123.382   8.119   5.780  51.730

                      1                      2                      3
                      A                      A                      A
 Frequencies --     87.0232               215.3722               283.1131
 Red. masses --      2.2430                 1.0901                 2.9489
 Frc consts  --      0.0100                 0.0298                 0.1393
 IR Inten    --      0.5254                 0.3706                 7.0982

                      4                      5                      6
                      A                      A                      A
 Frequencies --    410.1114               489.5777               534.1883
 Red. masses --      1.1562                 2.2816                 2.7759
 Frc consts  --      0.1146                 0.3222                 0.4667
 IR Inten    --      5.0162                 0.4111                 6.1708

                      7                      8                      9
                      A                      A                      A
 Frequencies --    615.8817               653.4492               776.1198
 Red. masses --      2.3689                 1.1411                 1.4405
 Frc consts  --      0.5294                 0.2871                 0.5112
 IR Inten    --      4.9688               116.1451                 0.8261

                     10                     11                     12
                      A                      A                      A
 Frequencies --    805.3984               815.2004              1007.0078
 Red. masses --      1.4702                 1.7384                 2.3356
 Frc consts  --      0.5619                 0.6806                 1.3954
 IR Inten    --      0.2319                 1.3553                 4.8200

                     13                     14                     15
                      A                      A                      A
 Frequencies --   1098.8854              1105.6789              1152.4297
 Red. masses --      1.7800                 2.0538                 1.6008
 Frc consts  --      1.2664                 1.4793                 1.2526
 IR Inten    --     30.4414                15.7182                29.4447

                     16                     17                     18
                      A                      A                      A
 Frequencies --   1281.8634              1308.2226              1368.4133
 Red. masses --      1.2051                 2.0293                 1.3169
 Frc consts  --      1.1667                 2.0462                 1.4529
 IR Inten    --     21.5317                16.5400                16.7532

                     19                     20                     21
                      A                      A                      A
 Frequencies --   1406.3119              1422.0709              1475.4112
 Red. masses --      1.3054                 1.6718                 1.1366
 Frc consts  --      1.5211                 1.9920                 1.4578
 IR Inten    --     50.8309               101.7930                11.2295

                     22                     23                     24
                      A                      A                      A
 Frequencies --   1487.1795              1494.7157              1512.6740
 Red. masses --      1.0429                 1.0862                 1.1057
 Frc consts  --      1.3590                 1.4299                 1.4907
 IR Inten    --     12.3860                 1.1093                 4.9424

                     25                     26                     27
                      A                      A                      A
 Frequencies --   1678.3607              3051.3430              3066.8280
 Red. masses --      3.1879                 1.0349                 1.0618
 Frc consts  --      5.2908                 5.6772                 5.8841
 IR Inten    --     66.5813                12.0954                15.1942

                     28                     29                     30
                      A                      A                      A
 Frequencies --   3117.4224              3125.1212              3140.0986
 Red. masses --      1.1015                 1.1016                 1.1042
 Frc consts  --      6.3073                 6.3386                 6.4147
 IR Inten    --      1.5220                17.6376                20.3364

                     31                     32                     33
                      A                      A                      A
 Frequencies --   3207.1818              3334.3232              3451.7381
 Red. masses --      1.0507                 1.1241                 1.0747
 Frc consts  --      6.3678                 7.3634                 7.5442
 IR Inten    --      2.1101                 0.8275                 0.9875

 - Thermochemistry -
 -------------------
 Temperature   298.150 Kelvin.  Pressure   1.00000 Atm.
 Atom     1 has atomic number  6 and mass  12.00000

 Molecular mass:    72.06875 amu.
 Principal axes and moments of inertia in atomic units:
                           1         2         3
     Eigenvalues --   214.62727 441.14306 563.68534
           X            0.99916   0.04096   0.00070
           Y           -0.04096   0.99910   0.01057
           Z           -0.00027  -0.01059   0.99994
 This molecule is an asymmetric top.
 Rotational symmetry number  1.
 Rotational temperatures (Kelvin)      0.40355     0.19634     0.15366
 Rotational constants (GHZ):           8.40872     4.09106     3.20168
 Zero-point vibrational energy     298939.1 (Joules/Mol)
                                   71.44816 (Kcal/Mol)
 Warning -- explicit consideration of   7 degrees of freedom as
           vibrations may cause significant error
 Vibrational temperatures:    125.21   309.87   407.34   590.06   704.39
          (Kelvin)            768.58   886.12   940.17  1116.66  1158.79
                             1172.89  1448.86  1581.05  1590.82  1658.09
                             1844.31  1882.24  1968.84  2023.37  2046.04
                             2122.79  2139.72  2150.56  2176.40  2414.78
                             4390.20  4412.48  4485.27  4496.35  4517.90
                             4614.41  4797.34  4966.28

 Zero-point correction=                           0.113860 (Hartree/Particle)
 Thermal correction to Energy=                    0.119857
 Thermal correction to Enthalpy=                  0.120801
 Thermal correction to Gibbs Free Energy=         0.084931
 Sum of electronic and zero-point Energies=           -228.458196
 Sum of electronic and thermal Energies=              -228.452199
 Sum of electronic and thermal Enthalpies=            -228.451255
 Sum of electronic and thermal Free Energies=         -228.487125

                     E (Thermal)             CV                S
                      KCal/Mol        Cal/Mol-Kelvin    Cal/Mol-Kelvin
 Total                   75.211             21.349             75.495
 Electronic               0.000              0.000              0.000
 Translational            0.889              2.981             38.742
 Rotational               0.889              2.981             25.482
 Vibrational             73.434             15.388             11.272
 Vibration     1          0.601              1.958              3.726
 Vibration     2          0.645              1.818              1.998
 Vibration     3          0.682              1.705              1.515
 Vibration     4          0.774              1.448              0.926
 Vibration     5          0.845              1.273              0.685
 Vibration     6          0.889              1.174              0.578
 Vibration     7          0.975              0.998              0.423

 Optimization completed.
    -- Stationary point found.
 Normal termination of Gaussian 09 at Fri Aug 26 14:09:29 2022.

 -----------------------------------------------------------------
 #P Geom=AllCheck Guess=TCheck SCRF=Check CCSD(T,E4T,FrzG4)/GTBas1
 -----------------------------------------------------------------

 Structure from the checkpoint file:  "G4.Frag_778.chk"
 --------
 Frag_778
 --------
 Charge =  0 Multiplicity = 1

 SCF Done:  E(RHF) =  -227.038024050     A.U. after   14 cycles
 E2 =    -0.7376678408D+00 EUMP2 =    -0.22777569189095D+03
 CCSD(T)
 CCSD(T)= -0.22784708466D+03
 9\MP4SDTQ=-227.8474729\MP4SDQ=-227.8174082\CCSD=-227.8175748\CCSD(T)=-
 Normal termination of Gaussian 09 at Fri Aug 26 14:10:38 2022.

 ---------------------------------------------------------
 #P Geom=AllCheck Guess=TCheck SCRF=Check MP4=FrzG4/GTBas2
 ---------------------------------------------------------

 Structure from the checkpoint file:  "G4.Frag_778.chk"
 --------
 Frag_778
 --------
 Charge =  0 Multiplicity = 1

 SCF Done:  E(RHF) =  -227.047593971     A.U. after   13 cycles
 E2 =    -0.7469562934D+00 EUMP2 =    -0.22779455026436D+03
 Normal termination of Gaussian 09 at Fri Aug 26 14:10:56 2022.

 ---------------------------------------------------------
 #P Geom=AllCheck Guess=TCheck SCRF=Check MP4=FrzG4/GTBas3
 ---------------------------------------------------------

 Structure from the checkpoint file:  "G4.Frag_778.chk"
 --------
 Frag_778
 --------
 Charge =  0 Multiplicity = 1

 SCF Done:  E(RHF) =  -227.070312542     A.U. after   12 cycles
 E2 =    -0.8991678752D+00 EUMP2 =    -0.22796948041761D+03
 Normal termination of Gaussian 09 at Fri Aug 26 14:12:27 2022.

 -----------------------------------------------------------
 #P Geom=AllCheck Guess=TCheck SCRF=Check MP2=Full/GTLargeXP
 -----------------------------------------------------------

 Structure from the checkpoint file:  "G4.Frag_778.chk"
 --------
 Frag_778
 --------
 Charge =  0 Multiplicity = 1

 SCF Done:  E(RHF) =  -227.128319023     A.U. after   13 cycles
 E2 =    -0.1171583772D+01 EUMP2 =    -0.22829990279502D+03
 Normal termination of Gaussian 09 at Fri Aug 26 14:13:28 2022.
 SCF Done:  E(RHF) =  -227.146164499     A.U. after   10 cycles
 Normal termination of Gaussian 09 at Fri Aug 26 14:14:49 2022.

                         Standard orientation:
 ---------------------------------------------------------------------
 Center     Atomic      Atomic             Coordinates (Angstroms)
 Number     Number       Type             X           Y           Z
 ---------------------------------------------------------------------
      1          6           0       -1.466502   -0.902969   -0.222841
      2          7           0       -0.623515    0.057947    0.089166
      3          7           0       -0.888535    1.333332   -0.052423
      4          6           0        0.715576   -0.349921    0.599479
      5          6           0        1.818530   -0.056691   -0.413768
      6          1           0       -2.430531   -0.619941   -0.615847
      7          1           0       -1.170436   -1.927944   -0.082981
      8          1           0       -0.070992    1.838346    0.290962
      9          1           0        0.870795    0.205796    1.528938
     10          1           0        0.680454   -1.413283    0.840760
     11          1           0        2.785517   -0.356822   -0.000095
     12          1           0        1.865357    1.007070   -0.657583
     13          1           0        1.648562   -0.614689   -1.338567
 ---------------------------------------------------------------------

 SCF Done:  E(RHF) =  -227.149960899     A.U. after    8 cycles

 The electronic state is 1-A.
 Alpha  occ. eigenvalues --  -15.70016 -15.52412 -11.29238 -11.25427 -11.23996
 Alpha  occ. eigenvalues --   -1.36082  -1.08060  -1.04658  -0.90518  -0.79047
 Alpha  occ. eigenvalues --   -0.70957  -0.66969  -0.64041  -0.61043  -0.57380
 Alpha  occ. eigenvalues --   -0.55032  -0.52400  -0.50746  -0.42106  -0.28158
 Alpha virt. eigenvalues --    0.03193   0.03839   0.04153   0.05281   0.06400
 Alpha virt. eigenvalues --    0.06971   0.07167   0.07776   0.08540   0.10221
 Alpha virt. eigenvalues --    0.11166   0.12544   0.13380   0.14086   0.14823

 Mulliken charges:
               1
     1  C   -0.432080
     2  N    0.284526
     3  N   -0.727214
     4  C   -0.268506
     5  C   -0.500896
     6  H    0.223271
     7  H    0.206760
     8  H    0.265903
     9  H    0.209797
    10  H    0.199152
    11  H    0.176788
    12  H    0.183753
    13  H    0.178745
 Sum of Mulliken charges =  -0.00000

 Dipole moment (field-independent basis, Debye):
    X=              2.8975    Y=             -2.7610    Z=              0.9349  Tot=              4.1101
 Quadrupole moment (field-independent basis, Debye-Ang):
   XX=            -32.6576   YY=            -33.7032   ZZ=            -33.4658
   XY=              4.7330   XZ=              1.2365   YZ=              1.0183

 Normal termination of Gaussian 09 at Fri Aug 26 14:19:31 2022.
