 Gaussian 09, Revision E.01,
 Gaussian 09:  ES64L-G09RevE.01 30-Nov-2015

 -----
 #P G4
 -----

 --------
 Frag_562
 --------
 Symbolic Z-matrix:
 Charge =  0 Multiplicity = 1

 SCF Done:  E(RB3LYP) =  -251.904172749     A.U. after   13 cycles
 SCF Done:  E(RB3LYP) =  -251.912834285     A.U. after   12 cycles
 SCF Done:  E(RB3LYP) =  -251.912979138     A.U. after   10 cycles
 SCF Done:  E(RB3LYP) =  -251.912956042     A.U. after    8 cycles
 SCF Done:  E(RB3LYP) =  -251.912977210     A.U. after    8 cycles
 SCF Done:  E(RB3LYP) =  -251.912953620     A.U. after    7 cycles
 SCF Done:  E(RB3LYP) =  -251.912947490     A.U. after    7 cycles
 SCF Done:  E(RB3LYP) =  -251.912965995     A.U. after    7 cycles
 SCF Done:  E(RB3LYP) =  -251.912952739     A.U. after    7 cycles
 SCF Done:  E(RB3LYP) =  -251.912988135     A.U. after   10 cycles
 SCF Done:  E(RB3LYP) =  -251.915102414     A.U. after    8 cycles
 SCF Done:  E(RB3LYP) =  -251.915104048     A.U. after    7 cycles
 SCF Done:  E(RB3LYP) =  -251.915104287     A.U. after    7 cycles
 Optimization completed.
    -- Stationary point found.
 Normal termination of Gaussian 09 at Fri Aug 26 14:55:31 2022.

 ----------------------------------------------------------
 #P Geom=AllCheck Guess=TCheck SCRF=Check B3LYP/GTBas3 Freq
 ----------------------------------------------------------

 Structure from the checkpoint file:  "G4.Frag_562.chk"
 --------
 Frag_562
 --------
 Charge =  0 Multiplicity = 1

 SCF Done:  E(RB3LYP) =  -251.915104287     A.U. after    1 cycles

  Exact polarizability:  72.852   3.398  55.086  -4.807  -7.090  59.354
 Approx polarizability:  98.117   7.352  77.981 -10.596 -15.109  90.360

                      1                      2                      3
                      A                      A                      A
 Frequencies --     68.1445               215.6001               240.5673
 Red. masses --      2.7995                 1.2108                 1.4077
 Frc consts  --      0.0077                 0.0332                 0.0480
 IR Inten    --      0.8796                 0.5618                 1.4532

                      4                      5                      6
                      A                      A                      A
 Frequencies --    258.7350               285.4948               323.5993
 Red. masses --      1.3274                 2.4644                 1.5902
 Frc consts  --      0.0524                 0.1183                 0.0981
 IR Inten    --      0.9109                 2.4521                10.0719

                      7                      8                      9
                      A                      A                      A
 Frequencies --    334.2959               457.0197               544.8518
 Red. masses --      1.4063                 2.1952                 2.3543
 Frc consts  --      0.0926                 0.2701                 0.4118
 IR Inten    --     23.7513                 5.7955                10.6478

                     10                     11                     12
                      A                      A                      A
 Frequencies --    612.4722               682.1667               748.9907
 Red. masses --      1.6185                 1.4860                 1.7088
 Frc consts  --      0.3577                 0.4074                 0.5648
 IR Inten    --    144.9900                36.0357                18.2815

                     13                     14                     15
                      A                      A                      A
 Frequencies --    752.6947               819.3047               914.3695
 Red. masses --      1.8402                 1.5236                 2.3316
 Frc consts  --      0.6143                 0.6026                 1.1485
 IR Inten    --     15.4889                61.3896                 2.1069

                     16                     17                     18
                      A                      A                      A
 Frequencies --    930.8258               964.0876               997.0142
 Red. masses --      1.1886                 1.4832                 1.5445
 Frc consts  --      0.6068                 0.8122                 0.9046
 IR Inten    --      0.6544                 0.0155                 5.3044

                     19                     20                     21
                      A                      A                      A
 Frequencies --   1071.4692              1118.9333              1162.2052
 Red. masses --      1.4469                 2.3240                 1.4411
 Frc consts  --      0.9787                 1.7143                 1.1468
 IR Inten    --      6.8390                 2.8487                 4.0732

                     22                     23                     24
                      A                      A                      A
 Frequencies --   1188.6077              1337.7003              1339.0154
 Red. masses --      1.8947                 1.3514                 1.3357
 Frc consts  --      1.5771                 1.4248                 1.4111
 IR Inten    --      3.4622                 5.5089                 5.6341

                     25                     26                     27
                      A                      A                      A
 Frequencies --   1362.3379              1397.7139              1421.6508
 Red. masses --      2.9976                 1.2211                 1.2599
 Frc consts  --      3.2779                 1.4056                 1.5003
 IR Inten    --     29.0609                 2.8154                 1.2076

                     28                     29                     30
                      A                      A                      A
 Frequencies --   1458.6703              1487.7008              1489.8062
 Red. masses --      1.1664                 1.0472                 1.0467
 Frc consts  --      1.4623                 1.3656                 1.3687
 IR Inten    --      0.7950                 0.1760                 1.2092

                     31                     32                     33
                      A                      A                      A
 Frequencies --   1504.8106              1511.0994              1652.8949
 Red. masses --      1.0476                 1.0636                 1.1560
 Frc consts  --      1.3976                 1.4309                 1.8608
 IR Inten    --      3.2442                 8.8504                41.2266

                     34                     35                     36
                      A                      A                      A
 Frequencies --   1714.5560              3025.1465              3036.1858
 Red. masses --      4.8160                 1.0384                 1.0354
 Frc consts  --      8.3415                 5.5990                 5.6237
 IR Inten    --    101.3910                21.7677                24.2647

                     37                     38                     39
                      A                      A                      A
 Frequencies --   3046.1021              3088.5098              3105.5938
 Red. masses --      1.0830                 1.0977                 1.1010
 Frc consts  --      5.9205                 6.1695                 6.2564
 IR Inten    --      9.6142                26.3402                35.7734

                     40                     41                     42
                      A                      A                      A
 Frequencies --   3109.7603              3114.8365              3151.1475
 Red. masses --      1.1022                 1.1014                 1.0627
 Frc consts  --      6.2802                 6.2963                 6.2175
 IR Inten    --     28.9130                28.4556                 7.5079

                     43                     44                     45
                      A                      A                      A
 Frequencies --   3241.8006              3549.5483              3644.9880
 Red. masses --      1.1122                 1.0470                 1.0967
 Frc consts  --      6.8869                 7.7724                 8.5850
 IR Inten    --     12.9457                 4.2285                 6.4532

 - Thermochemistry -
 -------------------
 Temperature   298.150 Kelvin.  Pressure   1.00000 Atm.
 Atom     1 has atomic number  6 and mass  12.00000

 Molecular mass:    85.08915 amu.
 Principal axes and moments of inertia in atomic units:
                           1         2         3
     Eigenvalues --   391.69387 712.56435 717.43009
           X            0.99995  -0.00035  -0.00985
           Y           -0.00168   0.97871  -0.20522
           Z            0.00971   0.20523   0.97867
 This molecule is an asymmetric top.
 Rotational symmetry number  1.
 Rotational temperatures (Kelvin)      0.22113     0.12155     0.12073
 Rotational constants (GHZ):           4.60753     2.53274     2.51556
 Zero-point vibrational energy     403638.1 (Joules/Mol)
                                   96.47183 (Kcal/Mol)
 Warning -- explicit consideration of  10 degrees of freedom as
           vibrations may cause significant error
 Vibrational temperatures:     98.04   310.20   346.12   372.26   410.76
          (Kelvin)            465.59   480.98   657.55   783.92   881.21
                              981.48  1077.63  1082.96  1178.80  1315.57
                             1339.25  1387.11  1434.48  1541.60  1609.89
                             1672.15  1710.14  1924.65  1926.54  1960.10
                             2011.00  2045.44  2098.70  2140.47  2143.50
                             2165.08  2174.13  2378.14  2466.86  4352.51
                             4368.39  4382.66  4443.67  4468.25  4474.25
                             4481.55  4533.79  4664.22  5107.00  5244.32

 Zero-point correction=                           0.153738 (Hartree/Particle)
 Thermal correction to Energy=                    0.161412
 Thermal correction to Enthalpy=                  0.162356
 Thermal correction to Gibbs Free Energy=         0.122745
 Sum of electronic and zero-point Energies=           -251.761367
 Sum of electronic and thermal Energies=              -251.753693
 Sum of electronic and thermal Enthalpies=            -251.752748
 Sum of electronic and thermal Free Energies=         -251.792359

                     E (Thermal)             CV                S
                      KCal/Mol        Cal/Mol-Kelvin    Cal/Mol-Kelvin
 Total                  101.287             28.471             83.368
 Electronic               0.000              0.000              0.000
 Translational            0.889              2.981             39.237
 Rotational               0.889              2.981             26.796
 Vibrational             99.510             22.509             17.336
 Vibration     1          0.598              1.969              4.206
 Vibration     2          0.645              1.817              1.996
 Vibration     3          0.658              1.778              1.799
 Vibration     4          0.668              1.748              1.670
 Vibration     5          0.683              1.701              1.501
 Vibration     6          0.708              1.628              1.292
 Vibration     7          0.716              1.607              1.239
 Vibration     8          0.815              1.345              0.775
 Vibration     9          0.900              1.151              0.555
 Vibration    10          0.972              1.005              0.429

 Normal termination of Gaussian 09 at Fri Aug 26 14:56:11 2022.

 -----------------------------------------------------------------
 #P Geom=AllCheck Guess=TCheck SCRF=Check CCSD(T,E4T,FrzG4)/GTBas1
 -----------------------------------------------------------------

 Structure from the checkpoint file:  "G4.Frag_562.chk"
 --------
 Frag_562
 --------
 Charge =  0 Multiplicity = 1

 SCF Done:  E(RHF) =  -250.169094593     A.U. after   12 cycles
 E2 =    -0.8149363999D+00 EUMP2 =    -0.25098403099287D+03
 CCSD(T)
 CCSD(T)= -0.25107669353D+03
 1.0473168\CCSD=-251.0486435\CCSD(T)=-251.0766935\RMSD=6.779e-09\PG=C01
 Normal termination of Gaussian 09 at Fri Aug 26 14:58:28 2022.

 ---------------------------------------------------------
 #P Geom=AllCheck Guess=TCheck SCRF=Check MP4=FrzG4/GTBas2
 ---------------------------------------------------------

 Structure from the checkpoint file:  "G4.Frag_562.chk"
 --------
 Frag_562
 --------
 Charge =  0 Multiplicity = 1

 SCF Done:  E(RHF) =  -250.176409275     A.U. after   12 cycles
 E2 =    -0.8253688233D+00 EUMP2 =    -0.25100177809827D+03
 Normal termination of Gaussian 09 at Fri Aug 26 14:59:16 2022.

 ---------------------------------------------------------
 #P Geom=AllCheck Guess=TCheck SCRF=Check MP4=FrzG4/GTBas3
 ---------------------------------------------------------

 Structure from the checkpoint file:  "G4.Frag_562.chk"
 --------
 Frag_562
 --------
 Charge =  0 Multiplicity = 1

 SCF Done:  E(RHF) =  -250.205125995     A.U. after   11 cycles
 E2 =    -0.1008338506D+01 EUMP2 =    -0.25121346450142D+03
 Normal termination of Gaussian 09 at Fri Aug 26 15:03:53 2022.

 -----------------------------------------------------------
 #P Geom=AllCheck Guess=TCheck SCRF=Check MP2=Full/GTLargeXP
 -----------------------------------------------------------

 Structure from the checkpoint file:  "G4.Frag_562.chk"
 --------
 Frag_562
 --------
 Charge =  0 Multiplicity = 1

 SCF Done:  E(RHF) =  -250.262319794     A.U. after   12 cycles
 E2 =    -0.1329282331D+01 EUMP2 =    -0.25159160212507D+03
 Normal termination of Gaussian 09 at Fri Aug 26 15:06:19 2022.
 SCF Done:  E(RHF) =  -250.282282284     A.U. after    8 cycles
 Normal termination of Gaussian 09 at Fri Aug 26 15:08:58 2022.

                         Standard orientation:
 ---------------------------------------------------------------------
 Center     Atomic      Atomic             Coordinates (Angstroms)
 Number     Number       Type             X           Y           Z
 ---------------------------------------------------------------------
      1          6           0       -1.822929   -0.526899    0.801972
      2          6           0       -0.829014   -0.029668    0.055744
      3          7           0       -1.048278    0.676905   -1.134149
      4          6           0        0.631185   -0.265625    0.399720
      5          6           0        1.351473   -1.079548   -0.690314
      6          6           0        1.376137    1.050911    0.691990
      7          1           0       -2.866199   -0.354488    0.556651
      8          1           0       -1.614984   -1.148010    1.663101
      9          1           0       -0.389265    1.422207   -1.310340
     10          1           0       -1.997658    1.004040   -1.249508
     11          1           0        0.635696   -0.854609    1.322993
     12          1           0        0.849798   -2.037054   -0.856920
     13          1           0        2.388011   -1.280211   -0.399434
     14          1           0        1.364460   -0.542263   -1.643523
     15          1           0        1.474080    1.677559   -0.202976
     16          1           0        2.391817    0.844028    1.044159
     17          1           0        0.861084    1.635441    1.460167
 ---------------------------------------------------------------------

 SCF Done:  E(RHF) =  -250.286450030     A.U. after    8 cycles

 The electronic state is 1-A.
 Alpha  occ. eigenvalues --  -15.55595 -11.26586 -11.23447 -11.21989 -11.21177
 Alpha  occ. eigenvalues --  -11.19138  -1.21312  -1.06945  -0.98261  -0.93103
 Alpha  occ. eigenvalues --   -0.82830  -0.74233  -0.68919  -0.63082  -0.59659
 Alpha  occ. eigenvalues --   -0.58465  -0.57192  -0.54917  -0.53735  -0.49531
 Alpha  occ. eigenvalues --   -0.47675  -0.46840  -0.45999  -0.31303
 Alpha virt. eigenvalues --    0.03244   0.04258   0.04454   0.04693   0.06414
 Alpha virt. eigenvalues --    0.06813   0.07039   0.07287   0.07956   0.09490
 Alpha virt. eigenvalues --    0.09800   0.09923   0.10748   0.10969   0.12109

 Mulliken charges:
               1
     1  C   -0.542876
     2  C    0.233735
     3  N   -0.740290
     4  C    0.015965
     5  C   -0.519916
     6  C   -0.545342
     7  H    0.149892
     8  H    0.171717
     9  H    0.311155
    10  H    0.308194
    11  H    0.158746
    12  H    0.173245
    13  H    0.161704
    14  H    0.168743
    15  H    0.146630
    16  H    0.169976
    17  H    0.178720
 Sum of Mulliken charges =  -0.00000

 Dipole moment (field-independent basis, Debye):
    X=              0.6148    Y=              1.2375    Z=             -0.1108  Tot=              1.3863
 Quadrupole moment (field-independent basis, Debye-Ang):
   XX=            -38.3060   YY=            -39.0068   ZZ=            -41.3178
   XY=             -1.7504   XZ=              1.4104   YZ=             -3.1991

 Normal termination of Gaussian 09 at Fri Aug 26 15:18:05 2022.
