 Gaussian 09, Revision E.01,
 Gaussian 09:  ES64L-G09RevE.01 30-Nov-2015

 -----
 #P G4
 -----

 --------
 Frag_733
 --------
 Symbolic Z-matrix:
 Charge =  0 Multiplicity = 1

 SCF Done:  E(RB3LYP) =  -308.485697529     A.U. after   12 cycles
 SCF Done:  E(RB3LYP) =  -308.492448887     A.U. after   10 cycles
 SCF Done:  E(RB3LYP) =  -308.492840898     A.U. after   11 cycles
 SCF Done:  E(RB3LYP) =  -308.492923888     A.U. after    9 cycles
 SCF Done:  E(RB3LYP) =  -308.492967112     A.U. after   10 cycles
 SCF Done:  E(RB3LYP) =  -308.492977375     A.U. after    9 cycles
 SCF Done:  E(RB3LYP) =  -308.492979162     A.U. after    7 cycles
 SCF Done:  E(RB3LYP) =  -308.492979475     A.U. after    6 cycles
 Optimization completed.
    -- Stationary point found.
 Normal termination of Gaussian 09 at Fri Aug 19 14:51:05 2022.

 ----------------------------------------------------------
 #P Geom=AllCheck Guess=TCheck SCRF=Check B3LYP/GTBas3 Freq
 ----------------------------------------------------------

 Structure from the checkpoint file:  "G4.Frag_733.chk"
 --------
 Frag_733
 --------
 Charge =  0 Multiplicity = 1

 SCF Done:  E(RB3LYP) =  -308.492979475     A.U. after    1 cycles

  Exact polarizability:  74.017  -0.272  71.601  -0.253  -0.370  64.998
 Approx polarizability:  98.949   0.259 100.637  -1.887   0.017  95.667

                      1                      2                      3
                      A                      A                      A
 Frequencies --     77.9033               207.6954               226.4842
 Red. masses --      2.3918                 1.0320                 1.1257
 Frc consts  --      0.0086                 0.0262                 0.0340
 IR Inten    --      0.2339                 0.8619                 7.3470

                      4                      5                      6
                      A                      A                      A
 Frequencies --    255.6573               267.0278               280.7870
 Red. masses --      1.2217                 1.4609                 1.9275
 Frc consts  --      0.0470                 0.0614                 0.0895
 IR Inten    --      5.0659                18.6017                 6.3479

                      7                      8                      9
                      A                      A                      A
 Frequencies --    285.5504               314.6389               367.5758
 Red. masses --      1.7402                 1.2834                 1.9640
 Frc consts  --      0.0836                 0.0749                 0.1563
 IR Inten    --     10.1559                 9.6552                 6.3129

                     10                     11                     12
                      A                      A                      A
 Frequencies --    382.7169               439.2189               466.9701
 Red. masses --      2.1210                 2.3966                 2.4270
 Frc consts  --      0.1830                 0.2724                 0.3118
 IR Inten    --     14.5241                 3.1217                 4.7192

                     13                     14                     15
                      A                      A                      A
 Frequencies --    486.9086               541.3478               699.9268
 Red. masses --      2.7742                 2.4945                 2.9574
 Frc consts  --      0.3875                 0.4307                 0.8536
 IR Inten    --      4.8192                 1.4143                 2.6408

                     16                     17                     18
                      A                      A                      A
 Frequencies --    847.3080               883.8039               911.4540
 Red. masses --      1.9350                 1.9001                 1.8151
 Frc consts  --      0.8185                 0.8745                 0.8884
 IR Inten    --     66.5107               112.1177                35.6022

                     19                     20                     21
                      A                      A                      A
 Frequencies --    925.7680               934.9521               964.8463
 Red. masses --      1.2829                 1.2152                 1.4057
 Frc consts  --      0.6478                 0.6258                 0.7710
 IR Inten    --      0.8638                93.7835                 3.4934

                     22                     23                     24
                      A                      A                      A
 Frequencies --    978.9246               994.0499              1065.6998
 Red. masses --      1.4543                 2.1108                 1.3829
 Frc consts  --      0.8211                 1.2289                 0.9254
 IR Inten    --     23.9536                19.1014                10.8483

                     25                     26                     27
                      A                      A                      A
 Frequencies --   1115.1609              1133.9785              1190.8288
 Red. masses --      1.9581                 1.7163                 1.9282
 Frc consts  --      1.4347                 1.3003                 1.6111
 IR Inten    --      7.3753                 9.5432                 4.8199

                     28                     29                     30
                      A                      A                      A
 Frequencies --   1257.8941              1297.3334              1308.6832
 Red. masses --      2.8317                 1.5905                 1.7126
 Frc consts  --      2.6399                 1.5772                 1.7281
 IR Inten    --     34.2363                 8.0474                18.2756

                     31                     32                     33
                      A                      A                      A
 Frequencies --   1346.0321              1372.4020              1397.6026
 Red. masses --      1.4280                 1.3988                 1.2737
 Frc consts  --      1.5244                 1.5523                 1.4658
 IR Inten    --      0.4635                 1.6679                 3.6022

                     34                     35                     36
                      A                      A                      A
 Frequencies --   1405.1096              1419.7964              1479.9661
 Red. masses --      1.3871                 1.2304                 1.0529
 Frc consts  --      1.6135                 1.4613                 1.3587
 IR Inten    --     13.2167                 7.2136                 1.2261

                     37                     38                     39
                      A                      A                      A
 Frequencies --   1489.5681              1495.5952              1502.2574
 Red. masses --      1.0540                 1.0472                 1.0490
 Frc consts  --      1.3779                 1.3802                 1.3948
 IR Inten    --      0.4383                 3.0168                 1.0973

                     40                     41                     42
                      A                      A                      A
 Frequencies --   1508.4241              1516.1515              1639.0592
 Red. masses --      1.0589                 1.0447                 1.1010
 Frc consts  --      1.4195                 1.4149                 1.7426
 IR Inten    --      1.7934                10.0049                40.0482

                     43                     44                     45
                      A                      A                      A
 Frequencies --   1642.3959              3012.6526              3029.7541
 Red. masses --      1.1043                 1.0828                 1.0361
 Frc consts  --      1.7550                 5.7901                 5.6036
 IR Inten    --     22.7146                18.8075                25.5279

                     46                     47                     48
                      A                      A                      A
 Frequencies --   3032.1088              3037.7316              3088.6638
 Red. masses --      1.0367                 1.0360                 1.1007
 Frc consts  --      5.6156                 5.6326                 6.1869
 IR Inten    --      6.3703                27.7190                 9.7926

                     49                     50                     51
                      A                      A                      A
 Frequencies --   3097.6280              3100.7271              3103.5756
 Red. masses --      1.0997                 1.1000                 1.0998
 Frc consts  --      6.2168                 6.2314                 6.2414
 IR Inten    --     67.0750                38.7147                18.0637

                     52                     53                     54
                      A                      A                      A
 Frequencies --   3111.9250              3118.4115              3488.2830
 Red. masses --      1.1000                 1.1018                 1.0499
 Frc consts  --      6.2765                 6.3129                 7.5271
 IR Inten    --     22.3309                28.6203                 0.3299

                     55                     56                     57
                      A                      A                      A
 Frequencies --   3489.0183              3573.8098              3583.9421
 Red. masses --      1.0498                 1.0913                 1.0905
 Frc consts  --      7.5295                 8.2119                 8.2526
 IR Inten    --      0.6687                 0.1193                 0.1129

 - Thermochemistry -
 -------------------
 Temperature   298.150 Kelvin.  Pressure   1.00000 Atm.
 Atom     1 has atomic number  6 and mass  12.00000

 Molecular mass:   102.11570 amu.
 Principal axes and moments of inertia in atomic units:
                           1         2         3
     Eigenvalues --   582.13334 823.49298 984.71678
           X            0.99984  -0.00834   0.01565
           Y            0.00870   0.99970  -0.02302
           Z           -0.01545   0.02315   0.99961
 This molecule is an asymmetric top.
 Rotational symmetry number  1.
 Warning -- assumption of classical behavior for rotation
           may cause significant error
 Rotational temperatures (Kelvin)      0.14879     0.10518     0.08796
 Rotational constants (GHZ):           3.10022     2.19157     1.83275
 Zero-point vibrational energy     509571.4 (Joules/Mol)
                                  121.79049 (Kcal/Mol)
 Warning -- explicit consideration of  14 degrees of freedom as
           vibrations may cause significant error
 Vibrational temperatures:    112.09   298.83   325.86   367.83   384.19
          (Kelvin)            403.99   410.84   452.69   528.86   550.64
                              631.94   671.87   700.55   778.88  1007.04
                             1219.09  1271.60  1311.38  1331.97  1345.19
                             1388.20  1408.45  1430.21  1533.30  1604.47
                             1631.54  1713.33  1809.83  1866.57  1882.90
                             1936.64  1974.58  2010.84  2021.64  2042.77
                             2129.34  2143.15  2151.83  2161.41  2170.28
                             2181.40  2358.24  2363.04  4334.53  4359.13
                             4362.52  4370.61  4443.89  4456.79  4461.25
                             4465.35  4477.36  4486.69  5018.85  5019.91
                             5141.91  5156.49

 Zero-point correction=                           0.194085 (Hartree/Particle)
 Thermal correction to Energy=                    0.203318
 Thermal correction to Enthalpy=                  0.204262
 Thermal correction to Gibbs Free Energy=         0.161610
 Sum of electronic and zero-point Energies=           -308.298894
 Sum of electronic and thermal Energies=              -308.289662
 Sum of electronic and thermal Enthalpies=            -308.288718
 Sum of electronic and thermal Free Energies=         -308.331370

                     E (Thermal)             CV                S
                      KCal/Mol        Cal/Mol-Kelvin    Cal/Mol-Kelvin
 Total                  127.584             35.425             89.769
 Electronic               0.000              0.000              0.000
 Translational            0.889              2.981             39.780
 Rotational               0.889              2.981             27.648
 Vibrational            125.806             29.463             22.341
 Vibration     1          0.599              1.964              3.943
 Vibration     2          0.641              1.829              2.064
 Vibration     3          0.650              1.801              1.907
 Vibration     4          0.666              1.753              1.691
 Vibration     5          0.672              1.734              1.615
 Vibration     6          0.680              1.709              1.529
 Vibration     7          0.683              1.701              1.500
 Vibration     8          0.702              1.646              1.338
 Vibration     9          0.740              1.539              1.090
 Vibration    10          0.752              1.507              1.028
 Vibration    11          0.799              1.385              0.829
 Vibration    12          0.824              1.323              0.746
 Vibration    13          0.843              1.279              0.692
 Vibration    14          0.896              1.159              0.562

 Optimization completed.
    -- Stationary point found.
 Normal termination of Gaussian 09 at Fri Aug 19 15:00:31 2022.

 -----------------------------------------------------------------
 #P Geom=AllCheck Guess=TCheck SCRF=Check CCSD(T,E4T,FrzG4)/GTBas1
 -----------------------------------------------------------------

 Structure from the checkpoint file:  "G4.Frag_733.chk"
 --------
 Frag_733
 --------
 Charge =  0 Multiplicity = 1

 SCF Done:  E(RHF) =  -306.374845876     A.U. after   11 cycles
 E2 =    -0.9961778070D+00 EUMP2 =    -0.30737102368321D+03
 CCSD(T)
 CCSD(T)= -0.30747954697D+03
 Normal termination of Gaussian 09 at Fri Aug 19 15:24:15 2022.

 ---------------------------------------------------------
 #P Geom=AllCheck Guess=TCheck SCRF=Check MP4=FrzG4/GTBas2
 ---------------------------------------------------------

 Structure from the checkpoint file:  "G4.Frag_733.chk"
 --------
 Frag_733
 --------
 Charge =  0 Multiplicity = 1

 SCF Done:  E(RHF) =  -306.383494334     A.U. after   11 cycles
 E2 =    -0.1010975449D+01 EUMP2 =    -0.30739446978294D+03
 Normal termination of Gaussian 09 at Fri Aug 19 15:55:15 2022.

 ---------------------------------------------------------
 #P Geom=AllCheck Guess=TCheck SCRF=Check MP4=FrzG4/GTBas3
 ---------------------------------------------------------

 Structure from the checkpoint file:  "G4.Frag_733.chk"
 --------
 Frag_733
 --------
 Charge =  0 Multiplicity = 1

 SCF Done:  E(RHF) =  -306.420444568     A.U. after   10 cycles
 E2 =    -0.1239124074D+01 EUMP2 =    -0.30765956864211D+03
 Normal termination of Gaussian 09 at Fri Aug 19 23:39:57 2022.

 -----------------------------------------------------------
 #P Geom=AllCheck Guess=TCheck SCRF=Check MP2=Full/GTLargeXP
 -----------------------------------------------------------

 Structure from the checkpoint file:  "G4.Frag_733.chk"
 --------
 Frag_733
 --------
 Charge =  0 Multiplicity = 1

 SCF Done:  E(RHF) =  -306.491458148     A.U. after   11 cycles
 E2 =    -0.1622420373D+01 EUMP2 =    -0.30811387852158D+03
 Normal termination of Gaussian 09 at Fri Aug 19 23:56:47 2022.
 SCF Done:  E(RHF) =  -306.515372065     A.U. after    8 cycles
 Normal termination of Gaussian 09 at Sat Aug 20 00:09:55 2022.

                         Standard orientation:
 ---------------------------------------------------------------------
 Center     Atomic      Atomic             Coordinates (Angstroms)
 Number     Number       Type             X           Y           Z
 ---------------------------------------------------------------------
      1          6           0       -1.622397   -1.254395    0.009773
      2          6           0       -0.851846   -0.002964   -0.441920
      3          6           0       -1.601511    1.262018   -0.000136
      4          6           0        0.656421   -0.005392   -0.024953
      5          6           0        0.852527    0.114422    1.498067
      6          7           0        1.422138    1.083475   -0.645656
      7          7           0        1.264792   -1.225583   -0.580410
      8          1           0       -1.180147   -2.170422   -0.390925
      9          1           0       -1.662933   -1.337090    1.101932
     10          1           0       -2.656817   -1.212060   -0.347510
     11          1           0       -0.828915   -0.018435   -1.539871
     12          1           0       -2.596775    1.291601   -0.455131
     13          1           0       -1.741207    1.293254    1.085865
     14          1           0       -1.081107    2.177007   -0.300093
     15          1           0        0.445039    1.049122    1.898360
     16          1           0        1.921787    0.091973    1.725789
     17          1           0        0.368643   -0.712535    2.025978
     18          1           0        1.269529    1.064429   -1.650951
     19          1           0        1.100369    1.984599   -0.309015
     20          1           0        2.270544   -1.148677   -0.452419
     21          1           0        0.964314   -2.040142   -0.054529
 ---------------------------------------------------------------------

 SCF Done:  E(RHF) =  -306.520592286     A.U. after    8 cycles

 The electronic state is 1-A.
 Alpha  occ. eigenvalues --  -15.53400 -15.53141 -11.28553 -11.22400 -11.21369
 Alpha  occ. eigenvalues --  -11.21207 -11.21089  -1.22733  -1.11660  -1.05804
 Alpha  occ. eigenvalues --   -0.96648  -0.92817  -0.84543  -0.74124  -0.67998
 Alpha  occ. eigenvalues --   -0.65823  -0.62263  -0.60319  -0.57011  -0.56010
 Alpha  occ. eigenvalues --   -0.54491  -0.53684  -0.53122  -0.51204  -0.48569
 Alpha  occ. eigenvalues --   -0.46985  -0.46093  -0.40038  -0.38078
 Alpha virt. eigenvalues --    0.03081   0.04102   0.04280   0.04937   0.06108
 Alpha virt. eigenvalues --    0.06603   0.06896   0.07137   0.07173   0.09407
 Alpha virt. eigenvalues --    0.09584   0.09749   0.09872   0.10535   0.10795

 Mulliken charges:
               1
     1  C   -0.603955
     2  C    0.045873
     3  C   -0.578698
     4  C    0.403516
     5  C   -0.584515
     6  N   -0.760337
     7  N   -0.777996
     8  H    0.177771
     9  H    0.163175
    10  H    0.167450
    11  H    0.149818
    12  H    0.171775
    13  H    0.165472
    14  H    0.154944
    15  H    0.165446
    16  H    0.180279
    17  H    0.167878
    18  H    0.303156
    19  H    0.291151
    20  H    0.307595
    21  H    0.290204
 Sum of Mulliken charges =  -0.00000

 Dipole moment (field-independent basis, Debye):
    X=             -1.0123    Y=              0.2852    Z=              0.9085  Tot=              1.3898
 Quadrupole moment (field-independent basis, Debye-Ang):
   XX=            -49.7363   YY=            -44.9786   ZZ=            -47.7853
   XY=             -1.4578   XZ=              1.6758   YZ=             -2.6451

 Normal termination of Gaussian 09 at Sat Aug 20 06:29:14 2022.
