 Gaussian 09, Revision E.01,
 Gaussian 09:  ES64L-G09RevE.01 30-Nov-2015

 -----
 #P G4
 -----

 --------
 Frag_656
 --------
 Symbolic Z-matrix:
 Charge =  0 Multiplicity = 1

 SCF Done:  E(RB3LYP) =  -229.742921821     A.U. after   16 cycles
 SCF Done:  E(RB3LYP) =  -229.751868584     A.U. after   12 cycles
 SCF Done:  E(RB3LYP) =  -229.753836900     A.U. after   14 cycles
 SCF Done:  E(RB3LYP) =  -229.754258202     A.U. after   11 cycles
 SCF Done:  E(RB3LYP) =  -229.754306551     A.U. after    9 cycles
 SCF Done:  E(RB3LYP) =  -229.754313298     A.U. after   10 cycles
 SCF Done:  E(RB3LYP) =  -229.754315672     A.U. after    8 cycles
 Optimization completed.
    -- Stationary point found.
 Normal termination of Gaussian 09 at Fri Aug 26 09:40:49 2022.

 ----------------------------------------------------------
 #P Geom=AllCheck Guess=TCheck SCRF=Check B3LYP/GTBas3 Freq
 ----------------------------------------------------------

 Structure from the checkpoint file:  "G4.Frag_656.chk"
 --------
 Frag_656
 --------
 Charge =  0 Multiplicity = 1

 SCF Done:  E(RB3LYP) =  -229.754315672     A.U. after    1 cycles

  Exact polarizability:  63.824   1.801  50.986   1.918   0.795  47.401
 Approx polarizability:  83.254   3.488  71.441   3.399   4.448  72.807

                      1                      2                      3
                      A                      A                      A
 Frequencies --    140.2550               205.0997               233.2183
 Red. masses --      2.0401                 1.1081                 1.1005
 Frc consts  --      0.0236                 0.0275                 0.0353
 IR Inten    --     25.5778                 3.1252                 3.3080

                      4                      5                      6
                      A                      A                      A
 Frequencies --    252.8400               291.2678               356.4654
 Red. masses --      1.1385                 2.3625                 2.2109
 Frc consts  --      0.0429                 0.1181                 0.1655
 IR Inten    --      4.6515                19.9021                 1.4708

                      7                      8                      9
                      A                      A                      A
 Frequencies --    461.1046               502.4474               766.1412
 Red. masses --      2.4354                 2.4862                 3.5085
 Frc consts  --      0.3051                 0.3698                 1.2134
 IR Inten    --     19.9772                 1.4830                27.0207

                     10                     11                     12
                      A                      A                      A
 Frequencies --    826.7768               912.7096               930.6184
 Red. masses --      3.5600                 1.2176                 1.5044
 Frc consts  --      1.4337                 0.5976                 0.7676
 IR Inten    --     14.3260                 0.8178                 6.7985

                     13                     14                     15
                      A                      A                      A
 Frequencies --    963.7355              1081.3664              1100.2016
 Red. masses --      2.0969                 1.2939                 1.5420
 Frc consts  --      1.1475                 0.8914                 1.0997
 IR Inten    --     18.6821                 8.8421                20.4923

                     16                     17                     18
                      A                      A                      A
 Frequencies --   1116.4019              1183.0381              1225.7233
 Red. masses --      1.6756                 1.9015                 2.3087
 Frc consts  --      1.2304                 1.5680                 2.0437
 IR Inten    --     11.7585                13.5608                15.4622

                     19                     20                     21
                      A                      A                      A
 Frequencies --   1342.3062              1355.4854              1380.4828
 Red. masses --      1.5064                 1.2343                 1.2628
 Frc consts  --      1.5991                 1.3362                 1.4179
 IR Inten    --     27.1985                33.9926                 6.9197

                     22                     23                     24
                      A                      A                      A
 Frequencies --   1403.6916              1472.7391              1479.8934
 Red. masses --      1.2663                 1.0828                 1.0539
 Frc consts  --      1.4700                 1.3837                 1.3599
 IR Inten    --      6.5152                 6.1832                 0.2883

                     25                     26                     27
                      A                      A                      A
 Frequencies --   1483.5143              1498.2941              1510.9688
 Red. masses --      1.0862                 1.0527                 1.0701
 Frc consts  --      1.4084                 1.3924                 1.4393
 IR Inten    --      7.3479                 4.1253                10.1181

                     28                     29                     30
                      A                      A                      A
 Frequencies --   1599.4292              1664.8988              2707.9710
 Red. masses --      1.0603                 1.0512                 1.0760
 Frc consts  --      1.5981                 1.7168                 4.6490
 IR Inten    --     17.1404                47.0620               186.6623

                     31                     32                     33
                      A                      A                      A
 Frequencies --   2994.7783              2996.2760              3034.1121
 Red. masses --      1.0676                 1.0615                 1.0354
 Frc consts  --      5.6415                 5.6150                 5.6158
 IR Inten    --     67.3209                56.8794                18.2994

                     34                     35                     36
                      A                      A                      A
 Frequencies --   3054.1803              3086.2691              3096.4038
 Red. masses --      1.0879                 1.0468                 1.0970
 Frc consts  --      5.9788                 5.8744                 6.1968
 IR Inten    --     82.5676               150.6793                25.0564

                     37                     38                     39
                      A                      A                      A
 Frequencies --   3103.4630              3115.7361              3505.8283
 Red. masses --      1.1003                 1.1010                 1.0766
 Frc consts  --      6.2439                 6.2976                 7.7960
 IR Inten    --     54.9958                30.4346                35.7983

 - Thermochemistry -
 -------------------
 Temperature   298.150 Kelvin.  Pressure   1.00000 Atm.
 Atom     1 has atomic number  6 and mass  12.00000

 Molecular mass:    74.08440 amu.
 Principal axes and moments of inertia in atomic units:
                           1         2         3
     Eigenvalues --   237.66676 488.57490 655.36216
           X            0.99963   0.02542   0.00966
           Y           -0.02525   0.99953  -0.01718
           Z           -0.01009   0.01693   0.99981
 This molecule is an asymmetric top.
 Rotational symmetry number  1.
 Rotational temperatures (Kelvin)      0.36443     0.17728     0.13216
 Rotational constants (GHZ):           7.59358     3.69389     2.75381
 Zero-point vibrational energy     355507.0 (Joules/Mol)
                                   84.96822 (Kcal/Mol)
 Warning -- explicit consideration of   8 degrees of freedom as
           vibrations may cause significant error
 Vibrational temperatures:    201.80   295.09   335.55   363.78   419.07
          (Kelvin)            512.87   663.43   722.91  1102.30  1189.55
                             1313.18  1338.95  1386.60  1555.84  1582.94
                             1606.25  1702.13  1763.54  1931.28  1950.24
                             1986.20  2019.60  2118.94  2129.23  2134.44
                             2155.71  2173.94  2301.22  2395.41  3896.16
                             4308.81  4310.97  4365.41  4394.28  4440.45
                             4455.03  4465.19  4482.84  5044.10

 Zero-point correction=                           0.135405 (Hartree/Particle)
 Thermal correction to Energy=                    0.142182
 Thermal correction to Enthalpy=                  0.143126
 Thermal correction to Gibbs Free Energy=         0.105902
 Sum of electronic and zero-point Energies=           -229.618910
 Sum of electronic and thermal Energies=              -229.612134
 Sum of electronic and thermal Enthalpies=            -229.611190
 Sum of electronic and thermal Free Energies=         -229.648414

                     E (Thermal)             CV                S
                      KCal/Mol        Cal/Mol-Kelvin    Cal/Mol-Kelvin
 Total                   89.220             23.968             78.344
 Electronic               0.000              0.000              0.000
 Translational            0.889              2.981             38.824
 Rotational               0.889              2.981             25.834
 Vibrational             87.443             18.006             13.685
 Vibration     1          0.615              1.913              2.800
 Vibration     2          0.640              1.833              2.087
 Vibration     3          0.654              1.790              1.854
 Vibration     4          0.664              1.758              1.711
 Vibration     5          0.687              1.690              1.467
 Vibration     6          0.732              1.562              1.137
 Vibration     7          0.819              1.336              0.763
 Vibration     8          0.858              1.245              0.652

 Optimization completed.
    -- Stationary point found.
 Normal termination of Gaussian 09 at Fri Aug 26 09:41:16 2022.

 -----------------------------------------------------------------
 #P Geom=AllCheck Guess=TCheck SCRF=Check CCSD(T,E4T,FrzG4)/GTBas1
 -----------------------------------------------------------------

 Structure from the checkpoint file:  "G4.Frag_656.chk"
 --------
 Frag_656
 --------
 Charge =  0 Multiplicity = 1

 SCF Done:  E(RHF) =  -228.194641654     A.U. after   13 cycles
 E2 =    -0.7304513164D+00 EUMP2 =    -0.22892509297051D+03
 CCSD(T)
 CCSD(T)= -0.22900468993D+03
 17536\CCSD(T)=-229.0046899\RMSD=7.274e-09\PG=C01 [X(C3H10N2)]\\@
 Normal termination of Gaussian 09 at Fri Aug 26 09:42:35 2022.

 ---------------------------------------------------------
 #P Geom=AllCheck Guess=TCheck SCRF=Check MP4=FrzG4/GTBas2
 ---------------------------------------------------------

 Structure from the checkpoint file:  "G4.Frag_656.chk"
 --------
 Frag_656
 --------
 Charge =  0 Multiplicity = 1

 SCF Done:  E(RHF) =  -228.204744854     A.U. after   13 cycles
 E2 =    -0.7425930351D+00 EUMP2 =    -0.22894733788898D+03
 Normal termination of Gaussian 09 at Fri Aug 26 09:42:56 2022.

 ---------------------------------------------------------
 #P Geom=AllCheck Guess=TCheck SCRF=Check MP4=FrzG4/GTBas3
 ---------------------------------------------------------

 Structure from the checkpoint file:  "G4.Frag_656.chk"
 --------
 Frag_656
 --------
 Charge =  0 Multiplicity = 1

 SCF Done:  E(RHF) =  -228.228014057     A.U. after   11 cycles
 E2 =    -0.9059602179D+00 EUMP2 =    -0.22913397427456D+03
 Normal termination of Gaussian 09 at Fri Aug 26 09:45:09 2022.

 -----------------------------------------------------------
 #P Geom=AllCheck Guess=TCheck SCRF=Check MP2=Full/GTLargeXP
 -----------------------------------------------------------

 Structure from the checkpoint file:  "G4.Frag_656.chk"
 --------
 Frag_656
 --------
 Charge =  0 Multiplicity = 1

 SCF Done:  E(RHF) =  -228.287392941     A.U. after   12 cycles
 E2 =    -0.1184275842D+01 EUMP2 =    -0.22947166878316D+03
 Normal termination of Gaussian 09 at Fri Aug 26 09:46:28 2022.
 SCF Done:  E(RHF) =  -228.305424084     A.U. after    9 cycles
 Normal termination of Gaussian 09 at Fri Aug 26 09:48:01 2022.

                         Standard orientation:
 ---------------------------------------------------------------------
 Center     Atomic      Atomic             Coordinates (Angstroms)
 Number     Number       Type             X           Y           Z
 ---------------------------------------------------------------------
      1          6           0       -1.692955   -0.822029    0.006686
      2          6           0       -0.410229   -0.036699    0.287997
      3          6           0       -0.598307    1.449346   -0.111980
      4          7           0        0.658964   -0.721066   -0.397164
      5          7           0        1.875792   -0.132439    0.077266
      6          1           0       -1.892597   -0.833017   -1.070192
      7          1           0       -1.580478   -1.858364    0.336121
      8          1           0       -2.555965   -0.378854    0.514064
      9          1           0       -0.251549   -0.041016    1.400770
     10          1           0       -0.840377    1.522515   -1.177626
     11          1           0       -1.398951    1.928675    0.463721
     12          1           0        0.305531    2.051349    0.063523
     13          1           0        1.999248   -0.163339    1.116552
     14          1           0        2.038561    0.866760   -0.170750
     15          1           0        2.642231   -0.663878   -0.333118
 ---------------------------------------------------------------------

 SCF Done:  E(RHF) =  -228.309421332     A.U. after    9 cycles

 The electronic state is 1-A.
 Alpha  occ. eigenvalues --  -15.68656 -15.48197 -11.22617 -11.19759 -11.18446
 Alpha  occ. eigenvalues --   -1.31011  -1.08146  -0.94890  -0.90762  -0.77293
 Alpha  occ. eigenvalues --   -0.73325  -0.71533  -0.63008  -0.58042  -0.54223
 Alpha  occ. eigenvalues --   -0.51676  -0.49812  -0.46096  -0.45633  -0.38381
 Alpha  occ. eigenvalues --   -0.29218
 Alpha virt. eigenvalues --    0.02440   0.04301   0.04965   0.05139   0.07191
 Alpha virt. eigenvalues --    0.07434   0.07846   0.08074   0.09009   0.10337
 Alpha virt. eigenvalues --    0.10903   0.11390   0.11828   0.13826   0.15214

 Mulliken charges:
               1
     1  C   -0.536903
     2  C    0.154974
     3  C   -0.523657
     4  N   -0.641498
     5  N   -0.437454
     6  H    0.167401
     7  H    0.168123
     8  H    0.147850
     9  H    0.056645
    10  H    0.170830
    11  H    0.154873
    12  H    0.104082
    13  H    0.321134
    14  H    0.327723
    15  H    0.365877
 Sum of Mulliken charges =  -0.00000

 Dipole moment (field-independent basis, Debye):
    X=              4.0336    Y=              2.1173    Z=              1.8667  Tot=              4.9231
 Quadrupole moment (field-independent basis, Debye-Ang):
   XX=            -21.9058   YY=            -37.3600   ZZ=            -35.1729
   XY=              1.0867   XZ=              1.7626   YZ=             -1.4911

 Normal termination of Gaussian 09 at Fri Aug 26 09:54:11 2022.
