 Gaussian 09, Revision E.01,
 Gaussian 09:  ES64L-G09RevE.01 30-Nov-2015

 -----
 #P G4
 -----

 --------
 Frag_710
 --------
 Symbolic Z-matrix:
 Charge =  0 Multiplicity = 1

 SCF Done:  E(RB3LYP) =  -283.827334308     A.U. after   14 cycles
 SCF Done:  E(RB3LYP) =  -283.883710719     A.U. after   13 cycles
 SCF Done:  E(RB3LYP) =  -283.911581198     A.U. after   13 cycles
 SCF Done:  E(RB3LYP) =  -283.918993806     A.U. after   12 cycles
 SCF Done:  E(RB3LYP) =  -283.919791725     A.U. after   11 cycles
 SCF Done:  E(RB3LYP) =  -283.920064814     A.U. after   11 cycles
 SCF Done:  E(RB3LYP) =  -283.920418896     A.U. after   11 cycles
 SCF Done:  E(RB3LYP) =  -283.920511127     A.U. after   10 cycles
 SCF Done:  E(RB3LYP) =  -283.920552284     A.U. after   10 cycles
 SCF Done:  E(RB3LYP) =  -283.920565211     A.U. after    8 cycles
 SCF Done:  E(RB3LYP) =  -283.920570836     A.U. after    8 cycles
 SCF Done:  E(RB3LYP) =  -283.920571728     A.U. after    7 cycles
 Optimization completed.
    -- Stationary point found.
 Normal termination of Gaussian 09 at Tue Aug 30 10:06:00 2022.

 ----------------------------------------------------------
 #P Geom=AllCheck Guess=TCheck SCRF=Check B3LYP/GTBas3 Freq
 ----------------------------------------------------------

 Structure from the checkpoint file:  "G4.Frag_710.chk"
 --------
 Frag_710
 --------
 Charge =  0 Multiplicity = 1

 SCF Done:  E(RB3LYP) =  -283.920571728     A.U. after    1 cycles

  Exact polarizability:  59.893  -3.063  70.339  -0.734   1.632  39.569
 Approx polarizability:  81.696  -9.934 104.717  -2.939   4.571  61.427

                      1                      2                      3
                      A                      A                      A
 Frequencies --     87.9820               197.1974               251.6378
 Red. masses --      3.2748                 1.0380                 3.0411
 Frc consts  --      0.0149                 0.0238                 0.1135
 IR Inten    --      1.6213                 1.5875                23.7075

                      4                      5                      6
                      A                      A                      A
 Frequencies --    291.2325               324.8093               351.6426
 Red. masses --      1.2557                 2.2325                 1.0822
 Frc consts  --      0.0627                 0.1388                 0.0788
 IR Inten    --     13.3462                 8.7481                58.2846

                      7                      8                      9
                      A                      A                      A
 Frequencies --    426.2527               524.8518               530.9989
 Red. masses --      2.7361                 2.7900                 2.5813
 Frc consts  --      0.2929                 0.4528                 0.4288
 IR Inten    --      3.9825                 0.6728                 2.4252

                     10                     11                     12
                      A                      A                      A
 Frequencies --    547.8357               735.1561               746.4708
 Red. masses --      2.4403                 1.2208                 3.5900
 Frc consts  --      0.4315                 0.3887                 1.1786
 IR Inten    --     11.3678                12.2581                50.2680

                     13                     14                     15
                      A                      A                      A
 Frequencies --    819.2877               825.9209               929.7310
 Red. masses --      1.3782                 1.7498                 1.9354
 Frc consts  --      0.5451                 0.7033                 0.9857
 IR Inten    --     45.7222                23.6417                 1.6988

                     16                     17                     18
                      A                      A                      A
 Frequencies --    985.8987              1020.4376              1068.9758
 Red. masses --      1.4340                 1.4014                 1.5122
 Frc consts  --      0.8213                 0.8598                 1.0181
 IR Inten    --    197.3617                 4.8550                 0.6666

                     19                     20                     21
                      A                      A                      A
 Frequencies --   1108.3353              1261.7988              1312.9818
 Red. masses --      2.8265                 2.7963                 1.2285
 Frc consts  --      2.0457                 2.6231                 1.2478
 IR Inten    --     12.1054                 2.1441                14.9792

                     22                     23                     24
                      A                      A                      A
 Frequencies --   1326.9758              1353.3296              1410.6842
 Red. masses --      1.9137                 1.6591                 1.3143
 Frc consts  --      1.9855                 1.7904                 1.5410
 IR Inten    --     45.1947                12.7228                13.0193

                     25                     26                     27
                      A                      A                      A
 Frequencies --   1445.3652              1481.8686              1494.4463
 Red. masses --      1.2078                 1.0467                 1.0612
 Frc consts  --      1.4866                 1.3542                 1.3964
 IR Inten    --      3.1505                 8.8576                 4.7100

                     28                     29                     30
                      A                      A                      A
 Frequencies --   1667.0874              1684.4825              1698.4377
 Red. masses --      1.1447                 2.3882                 1.3185
 Frc consts  --      1.8743                 3.9926                 2.2410
 IR Inten    --      8.6540                95.3199                 5.4248

                     31                     32                     33
                      A                      A                      A
 Frequencies --   3033.4638              3084.1236              3135.4918
 Red. masses --      1.0390                 1.0993                 1.0981
 Frc consts  --      5.6333                 6.1608                 6.3609
 IR Inten    --     21.3561                18.1481                14.9520

                     34                     35                     36
                      A                      A                      A
 Frequencies --   3182.5406              3262.8322              3386.9483
 Red. masses --      1.0603                 1.1141                 1.0552
 Frc consts  --      6.3276                 6.9883                 7.1321
 IR Inten    --      1.3551                 9.6954                11.7121

                     37                     38                     39
                      A                      A                      A
 Frequencies --   3442.0997              3524.4609              3558.8792
 Red. masses --      1.0507                 1.0849                 1.0915
 Frc consts  --      7.3345                 7.9399                 8.1453
 IR Inten    --     10.2240                 0.6170                 1.4846

 - Thermochemistry -
 -------------------
 Temperature   298.150 Kelvin.  Pressure   1.00000 Atm.
 Atom     1 has atomic number  6 and mass  12.00000

 Molecular mass:    87.07965 amu.
 Principal axes and moments of inertia in atomic units:
                           1         2         3
     Eigenvalues --   378.32313 516.32330 848.16145
           X            0.99693   0.07822   0.00187
           Y           -0.07823   0.99693   0.00264
           Z           -0.00166  -0.00278   0.99999
 This molecule is an asymmetric top.
 Rotational symmetry number  1.
 Rotational temperatures (Kelvin)      0.22894     0.16775     0.10212
 Rotational constants (GHZ):           4.77037     3.49537     2.12783
 Zero-point vibrational energy     344063.7 (Joules/Mol)
                                   82.23319 (Kcal/Mol)
 Warning -- explicit consideration of  10 degrees of freedom as
           vibrations may cause significant error
 Vibrational temperatures:    126.59   283.72   362.05   419.02   467.33
          (Kelvin)            505.93   613.28   755.14   763.99   788.21
                             1057.72  1074.00  1178.77  1188.31  1337.67
                             1418.49  1468.18  1538.02  1594.65  1815.44
                             1889.09  1909.22  1947.14  2029.66  2079.56
                             2132.08  2150.17  2398.56  2423.59  2443.67
                             4364.47  4437.36  4511.27  4578.96  4694.48
                             4873.06  4952.41  5070.91  5120.43

 Zero-point correction=                           0.131047 (Hartree/Particle)
 Thermal correction to Energy=                    0.138337
 Thermal correction to Enthalpy=                  0.139281
 Thermal correction to Gibbs Free Energy=         0.100544
 Sum of electronic and zero-point Energies=           -283.789525
 Sum of electronic and thermal Energies=              -283.782234
 Sum of electronic and thermal Enthalpies=            -283.781290
 Sum of electronic and thermal Free Energies=         -283.820028

                     E (Thermal)             CV                S
                      KCal/Mol        Cal/Mol-Kelvin    Cal/Mol-Kelvin
 Total                   86.808             26.904             81.530
 Electronic               0.000              0.000              0.000
 Translational            0.889              2.981             39.306
 Rotational               0.889              2.981             26.607
 Vibrational             85.030             20.943             15.617
 Vibration     1          0.601              1.958              3.704
 Vibration     2          0.637              1.844              2.159
 Vibration     3          0.664              1.760              1.719
 Vibration     4          0.687              1.690              1.467
 Vibration     5          0.709              1.626              1.286
 Vibration     6          0.728              1.572              1.159
 Vibration     7          0.788              1.413              0.871
 Vibration     8          0.880              1.195              0.599
 Vibration     9          0.886              1.181              0.585
 Vibration    10          0.903              1.144              0.549

 Normal termination of Gaussian 09 at Tue Aug 30 10:06:36 2022.

 -----------------------------------------------------------------
 #P Geom=AllCheck Guess=TCheck SCRF=Check CCSD(T,E4T,FrzG4)/GTBas1
 -----------------------------------------------------------------

 Structure from the checkpoint file:  "G4.Frag_710.chk"
 --------
 Frag_710
 --------
 Charge =  0 Multiplicity = 1

 SCF Done:  E(RHF) =  -282.074415467     A.U. after   12 cycles
 E2 =    -0.8790944069D+00 EUMP2 =    -0.28295350987346D+03
 CCSD(T)
 CCSD(T)= -0.28303868285D+03
 .0089035\CCSD(T)=-283.0386829\RMSD=9.177e-09\PG=C01 [X(C3H9N3)]\\@
 Normal termination of Gaussian 09 at Tue Aug 30 10:08:47 2022.

 ---------------------------------------------------------
 #P Geom=AllCheck Guess=TCheck SCRF=Check MP4=FrzG4/GTBas2
 ---------------------------------------------------------

 Structure from the checkpoint file:  "G4.Frag_710.chk"
 --------
 Frag_710
 --------
 Charge =  0 Multiplicity = 1

 SCF Done:  E(RHF) =  -282.085164407     A.U. after   13 cycles
 E2 =    -0.8920701295D+00 EUMP2 =    -0.28297723453622D+03
 Normal termination of Gaussian 09 at Tue Aug 30 10:09:30 2022.

 ---------------------------------------------------------
 #P Geom=AllCheck Guess=TCheck SCRF=Check MP4=FrzG4/GTBas3
 ---------------------------------------------------------

 Structure from the checkpoint file:  "G4.Frag_710.chk"
 --------
 Frag_710
 --------
 Charge =  0 Multiplicity = 1

 SCF Done:  E(RHF) =  -282.116278249     A.U. after   11 cycles
 E2 =    -0.1074391179D+01 EUMP2 =    -0.28319066942784D+03
 Normal termination of Gaussian 09 at Tue Aug 30 10:13:25 2022.

 -----------------------------------------------------------
 #P Geom=AllCheck Guess=TCheck SCRF=Check MP2=Full/GTLargeXP
 -----------------------------------------------------------

 Structure from the checkpoint file:  "G4.Frag_710.chk"
 --------
 Frag_710
 --------
 Charge =  0 Multiplicity = 1

 SCF Done:  E(RHF) =  -282.188311927     A.U. after   12 cycles
 E2 =    -0.1406154355D+01 EUMP2 =    -0.28359446628123D+03
 Normal termination of Gaussian 09 at Tue Aug 30 10:15:28 2022.
 SCF Done:  E(RHF) =  -282.210386642     A.U. after    8 cycles
 Normal termination of Gaussian 09 at Tue Aug 30 10:17:35 2022.

                         Standard orientation:
 ---------------------------------------------------------------------
 Center     Atomic      Atomic             Coordinates (Angstroms)
 Number     Number       Type             X           Y           Z
 ---------------------------------------------------------------------
      1          6           0       -1.089821    1.489869    0.162238
      2          6           0       -0.674381    0.227231   -0.026068
      3          6           0       -1.656959   -0.915230   -0.107102
      4          7           0        0.670405   -0.123459   -0.246565
      5          7           0        1.134378   -1.378730    0.207628
      6          7           0        1.653339    0.870001   -0.074919
      7          1           0       -2.147214    1.701630    0.249984
      8          1           0       -0.418067    2.335807    0.197440
      9          1           0       -1.544933   -1.623549    0.720764
     10          1           0       -2.678214   -0.532096   -0.082912
     11          1           0       -1.524323   -1.482214   -1.035617
     12          1           0        0.734069   -1.614652    1.114233
     13          1           0        0.860859   -2.094065   -0.457073
     14          1           0        1.579230    1.514522   -0.857405
     15          1           0        1.458702    1.408706    0.773166
 ---------------------------------------------------------------------

 SCF Done:  E(RHF) =  -282.215106133     A.U. after    8 cycles

 The electronic state is 1-A.
 Alpha  occ. eigenvalues --  -15.61598 -15.57653 -15.57085 -11.27912 -11.23413
 Alpha  occ. eigenvalues --  -11.20564  -1.33895  -1.15677  -1.08873  -0.95531
 Alpha  occ. eigenvalues --   -0.93514  -0.76760  -0.70814  -0.67305  -0.65905
 Alpha  occ. eigenvalues --   -0.63741  -0.58191  -0.57379  -0.55830  -0.51717
 Alpha  occ. eigenvalues --   -0.44746  -0.42647  -0.42215  -0.32016
 Alpha virt. eigenvalues --    0.03417   0.04184   0.04989   0.05585   0.06724
 Alpha virt. eigenvalues --    0.07020   0.07691   0.08009   0.08651   0.09891
 Alpha virt. eigenvalues --    0.10651   0.10949   0.11625   0.12227   0.12712

 Mulliken charges:
               1
     1  C   -0.542547
     2  C    0.169743
     3  C   -0.520328
     4  N   -0.021707
     5  N   -0.582737
     6  N   -0.593345
     7  H    0.178644
     8  H    0.168286
     9  H    0.173611
    10  H    0.180020
    11  H    0.186903
    12  H    0.291094
    13  H    0.314386
    14  H    0.312437
    15  H    0.285541
 Sum of Mulliken charges =  -0.00000

 Dipole moment (field-independent basis, Debye):
    X=             -2.1048    Y=             -0.4566    Z=              0.3088  Tot=              2.1757
 Quadrupole moment (field-independent basis, Debye-Ang):
   XX=            -44.3832   YY=            -32.5258   ZZ=            -37.9057
   XY=              3.7100   XZ=             -0.1063   YZ=             -0.2541

 Normal termination of Gaussian 09 at Tue Aug 30 10:25:37 2022.
