 Gaussian 09, Revision E.01,
 Gaussian 09:  ES64L-G09RevE.01 30-Nov-2015

 -----
 #P G4
 -----

 --------
 Frag_798
 --------
 Symbolic Z-matrix:
 Charge =  0 Multiplicity = 1

 SCF Done:  E(RB3LYP) =  -245.890609550     A.U. after   12 cycles
 SCF Done:  E(RB3LYP) =  -245.897332606     A.U. after   11 cycles
 SCF Done:  E(RB3LYP) =  -245.897622033     A.U. after   10 cycles
 SCF Done:  E(RB3LYP) =  -245.897763854     A.U. after   10 cycles
 SCF Done:  E(RB3LYP) =  -245.897839678     A.U. after   10 cycles
 SCF Done:  E(RB3LYP) =  -245.897952813     A.U. after   10 cycles
 SCF Done:  E(RB3LYP) =  -245.898049848     A.U. after   10 cycles
 SCF Done:  E(RB3LYP) =  -245.898080067     A.U. after   10 cycles
 SCF Done:  E(RB3LYP) =  -245.898085951     A.U. after    9 cycles
 SCF Done:  E(RB3LYP) =  -245.898104795     A.U. after   10 cycles
 SCF Done:  E(RB3LYP) =  -245.898113687     A.U. after    7 cycles
 SCF Done:  E(RB3LYP) =  -245.898114223     A.U. after    7 cycles
 SCF Done:  E(RB3LYP) =  -245.898113372     A.U. after    6 cycles
 Optimization completed.
    -- Stationary point found.
 Normal termination of Gaussian 09 at Fri Aug 26 13:20:37 2022.

 ----------------------------------------------------------
 #P Geom=AllCheck Guess=TCheck SCRF=Check B3LYP/GTBas3 Freq
 ----------------------------------------------------------

 Structure from the checkpoint file:  "G4.Frag_798.chk"
 --------
 Frag_798
 --------
 Charge =  0 Multiplicity = 1

 SCF Done:  E(RB3LYP) =  -245.898113372     A.U. after    1 cycles

  Exact polarizability:  48.218  -0.521  44.322   1.070  -0.921  43.552
 Approx polarizability:  65.127  -1.248  61.794   2.681  -0.747  60.524

                      1                      2                      3
                      A                      A                      A
 Frequencies --     66.7259               211.5815               267.0906
 Red. masses --      1.0618                 1.0344                 1.0357
 Frc consts  --      0.0028                 0.0273                 0.0435
 IR Inten    --     24.6432                 6.1149                 6.2168

                      4                      5                      6
                      A                      A                      A
 Frequencies --    331.9133               358.9845               380.8132
 Red. masses --      1.1482                 2.7099                 2.3177
 Frc consts  --      0.0745                 0.2058                 0.1980
 IR Inten    --     53.8947                 2.4048                 4.5021

                      7                      8                      9
                      A                      A                      A
 Frequencies --    480.3228               489.8891               513.8155
 Red. masses --      2.3502                 2.9051                 2.5702
 Frc consts  --      0.3195                 0.4108                 0.3998
 IR Inten    --      2.7917                 8.2078                27.4491

                     10                     11                     12
                      A                      A                      A
 Frequencies --    774.5914               795.1774               826.2902
 Red. masses --      3.7962                 1.5661                 1.4225
 Frc consts  --      1.3420                 0.5834                 0.5722
 IR Inten    --     33.5473               141.6109               316.2397

                     13                     14                     15
                      A                      A                      A
 Frequencies --    888.9236               934.4096               998.6430
 Red. masses --      1.9334                 1.6878                 1.3377
 Frc consts  --      0.9001                 0.8683                 0.7860
 IR Inten    --      3.7653                 2.0581                 7.6895

                     16                     17                     18
                      A                      A                      A
 Frequencies --   1019.3315              1072.3098              1179.0190
 Red. masses --      1.6996                 1.3951                 1.2489
 Frc consts  --      1.0405                 0.9451                 1.0229
 IR Inten    --     13.5464                22.1263                 5.7530

                     19                     20                     21
                      A                      A                      A
 Frequencies --   1224.6559              1316.6134              1387.6786
 Red. masses --      2.6326                 1.8444                 1.3197
 Frc consts  --      2.3263                 1.8837                 1.4973
 IR Inten    --     76.3671                44.6820                 1.5691

                     22                     23                     24
                      A                      A                      A
 Frequencies --   1424.2294              1484.6295              1488.4191
 Red. masses --      1.9521                 1.0496                 1.0631
 Frc consts  --      2.3330                 1.3630                 1.3876
 IR Inten    --     34.0396                 0.8829                 1.3404

                     25                     26                     27
                      A                      A                      A
 Frequencies --   1622.5256              1641.3585              1662.0139
 Red. masses --      1.1044                 1.1062                 1.0994
 Frc consts  --      1.7130                 1.7559                 1.7893
 IR Inten    --     32.0637                18.3002                29.6312

                     28                     29                     30
                      A                      A                      A
 Frequencies --   3033.2410              3116.8043              3152.8837
 Red. masses --      1.0445                 1.0900                 1.1035
 Frc consts  --      5.6621                 6.2389                 6.4629
 IR Inten    --     25.7039                20.8236                13.9219

                     31                     32                     33
                      A                      A                      A
 Frequencies --   3460.9632              3473.6099              3520.5632
 Red. masses --      1.0490                 1.0506                 1.0481
 Frc consts  --      7.4033                 7.4689                 7.6538
 IR Inten    --      2.0573                 1.6750                 0.4704

                     34                     35                     36
                      A                      A                      A
 Frequencies --   3546.9660              3560.8440              3617.2373
 Red. masses --      1.0919                 1.0901                 1.0950
 Frc consts  --      8.0937                 8.1440                 8.4416
 IR Inten    --      0.9973                 0.2072                 3.8194

 - Thermochemistry -
 -------------------
 Temperature   298.150 Kelvin.  Pressure   1.00000 Atm.
 Atom     1 has atomic number  6 and mass  12.00000

 Molecular mass:    75.07965 amu.
 Principal axes and moments of inertia in atomic units:
                           1         2         3
     Eigenvalues --   367.17759 376.64627 389.68593
           X            0.99279  -0.05167  -0.10811
           Y           -0.01812   0.82712  -0.56173
           Z            0.11845   0.55964   0.82022
 This molecule is an asymmetric top.
 Rotational symmetry number  1.
 Rotational temperatures (Kelvin)      0.23589     0.22996     0.22227
 Rotational constants (GHZ):           4.91517     4.79161     4.63127
 Zero-point vibrational energy     330917.4 (Joules/Mol)
                                   79.09116 (Kcal/Mol)
 Warning -- explicit consideration of   9 degrees of freedom as
           vibrations may cause significant error
 Vibrational temperatures:     96.00   304.42   384.28   477.55   516.50
          (Kelvin)            547.90   691.08   704.84   739.26  1114.46
                             1144.08  1188.85  1278.96  1344.41  1436.82
                             1466.59  1542.81  1696.34  1762.00  1894.31
                             1996.56  2049.15  2136.05  2141.50  2334.45
                             2361.55  2391.26  4364.15  4484.38  4536.29
                             4979.55  4997.74  5065.30  5103.29  5123.25
                             5204.39

 Zero-point correction=                           0.126040 (Hartree/Particle)
 Thermal correction to Energy=                    0.132942
 Thermal correction to Enthalpy=                  0.133886
 Thermal correction to Gibbs Free Energy=         0.096345
 Sum of electronic and zero-point Energies=           -245.772074
 Sum of electronic and thermal Energies=              -245.765172
 Sum of electronic and thermal Enthalpies=            -245.764228
 Sum of electronic and thermal Free Energies=         -245.801768

                     E (Thermal)             CV                S
                      KCal/Mol        Cal/Mol-Kelvin    Cal/Mol-Kelvin
 Total                   83.422             24.974             79.011
 Electronic               0.000              0.000              0.000
 Translational            0.889              2.981             38.864
 Rotational               0.889              2.981             25.492
 Vibrational             81.645             19.012             14.656
 Vibration     1          0.598              1.970              4.248
 Vibration     2          0.643              1.823              2.030
 Vibration     3          0.672              1.734              1.615
 Vibration     4          0.714              1.612              1.251
 Vibration     5          0.734              1.557              1.127
 Vibration     6          0.751              1.511              1.036
 Vibration     7          0.837              1.294              0.709
 Vibration     8          0.846              1.272              0.684
 Vibration     9          0.869              1.219              0.624

 Optimization completed.
    -- Stationary point found.
 Normal termination of Gaussian 09 at Fri Aug 26 13:21:02 2022.

 -----------------------------------------------------------------
 #P Geom=AllCheck Guess=TCheck SCRF=Check CCSD(T,E4T,FrzG4)/GTBas1
 -----------------------------------------------------------------

 Structure from the checkpoint file:  "G4.Frag_798.chk"
 --------
 Frag_798
 --------
 Charge =  0 Multiplicity = 1

 SCF Done:  E(RHF) =  -244.299626124     A.U. after   11 cycles
 E2 =    -0.7591896374D+00 EUMP2 =    -0.24505881576158D+03
 CCSD(T)
 CCSD(T)= -0.24513030229D+03
 SDQ=-245.107949\CCSD=-245.1090029\CCSD(T)=-245.1303023\RMSD=8.850e-09\
 Normal termination of Gaussian 09 at Fri Aug 26 13:22:08 2022.

 ---------------------------------------------------------
 #P Geom=AllCheck Guess=TCheck SCRF=Check MP4=FrzG4/GTBas2
 ---------------------------------------------------------

 Structure from the checkpoint file:  "G4.Frag_798.chk"
 --------
 Frag_798
 --------
 Charge =  0 Multiplicity = 1

 SCF Done:  E(RHF) =  -244.310949038     A.U. after   12 cycles
 E2 =    -0.7734262012D+00 EUMP2 =    -0.24508437523956D+03
 Normal termination of Gaussian 09 at Fri Aug 26 13:22:27 2022.

 ---------------------------------------------------------
 #P Geom=AllCheck Guess=TCheck SCRF=Check MP4=FrzG4/GTBas3
 ---------------------------------------------------------

 Structure from the checkpoint file:  "G4.Frag_798.chk"
 --------
 Frag_798
 --------
 Charge =  0 Multiplicity = 1

 SCF Done:  E(RHF) =  -244.341104284     A.U. after   10 cycles
 E2 =    -0.9367710129D+00 EUMP2 =    -0.24527787529733D+03
 Normal termination of Gaussian 09 at Fri Aug 26 13:24:19 2022.

 -----------------------------------------------------------
 #P Geom=AllCheck Guess=TCheck SCRF=Check MP2=Full/GTLargeXP
 -----------------------------------------------------------

 Structure from the checkpoint file:  "G4.Frag_798.chk"
 --------
 Frag_798
 --------
 Charge =  0 Multiplicity = 1

 SCF Done:  E(RHF) =  -244.406570784     A.U. after   12 cycles
 E2 =    -0.1220469768D+01 EUMP2 =    -0.24562704055214D+03
 Normal termination of Gaussian 09 at Fri Aug 26 13:25:25 2022.
 SCF Done:  E(RHF) =  -244.425470902     A.U. after    8 cycles
 Normal termination of Gaussian 09 at Fri Aug 26 13:26:37 2022.

                         Standard orientation:
 ---------------------------------------------------------------------
 Center     Atomic      Atomic             Coordinates (Angstroms)
 Number     Number       Type             X           Y           Z
 ---------------------------------------------------------------------
      1          6           0        1.464584    0.284805   -0.343825
      2          6           0       -0.008650    0.005250   -0.016867
      3          7           0       -0.281996    0.558832    1.325011
      4          7           0       -0.250392   -1.434812   -0.184385
      5          7           0       -0.865890    0.691409   -0.984417
      6          1           0        1.693897   -0.105486   -1.336368
      7          1           0        1.643149    1.361530   -0.333184
      8          1           0        2.134993   -0.182693    0.387827
      9          1           0       -1.228889    0.309170    1.602922
     10          1           0        0.341681    0.140705    2.011417
     11          1           0       -1.136868   -1.680900    0.250896
     12          1           0        0.463859   -1.961750    0.309314
     13          1           0       -1.202963    1.559228   -0.584038
     14          1           0       -1.656524    0.111861   -1.238096
 ---------------------------------------------------------------------

 SCF Done:  E(RHF) =  -244.429775172     A.U. after    7 cycles

 The electronic state is 1-A.
 Alpha  occ. eigenvalues --  -15.54477 -15.54392 -15.53107 -11.31760 -11.20704
 Alpha  occ. eigenvalues --   -1.25814  -1.13024  -1.12138  -0.96945  -0.78667
 Alpha  occ. eigenvalues --   -0.68852  -0.67843  -0.64208  -0.61849  -0.57617
 Alpha  occ. eigenvalues --   -0.52270  -0.52117  -0.50259  -0.47118  -0.39312
 Alpha  occ. eigenvalues --   -0.38485
 Alpha virt. eigenvalues --    0.03350   0.04358   0.05272   0.05514   0.07436
 Alpha virt. eigenvalues --    0.07704   0.07820   0.09528   0.09873   0.12497
 Alpha virt. eigenvalues --    0.12599   0.12806   0.13182   0.15542   0.16135

 Mulliken charges:
               1
     1  C   -0.514437
     2  C    0.478215
     3  N   -0.733385
     4  N   -0.713851
     5  N   -0.767429
     6  H    0.187861
     7  H    0.182412
     8  H    0.140561
     9  H    0.279192
    10  H    0.284567
    11  H    0.270422
    12  H    0.290420
    13  H    0.316780
    14  H    0.298673
 Sum of Mulliken charges =  -0.00000

 Dipole moment (field-independent basis, Debye):
    X=             -0.8396    Y=             -1.2800    Z=              2.3750  Tot=              2.8255
 Quadrupole moment (field-independent basis, Debye-Ang):
   XX=            -27.9065   YY=            -34.1240   ZZ=            -35.2067
   XY=             -0.4633   XZ=             -0.0265   YZ=             -3.5284

 Normal termination of Gaussian 09 at Fri Aug 26 13:31:21 2022.
