 Gaussian 09, Revision E.01,
 Gaussian 09:  ES64L-G09RevE.01 30-Nov-2015

 -----
 #P G4
 -----

 --------
 Frag_540
 --------
 Symbolic Z-matrix:
 Charge =  0 Multiplicity = 1

 SCF Done:  E(RB3LYP) =  -235.839138344     A.U. after   13 cycles
 SCF Done:  E(RB3LYP) =  -235.863167199     A.U. after   11 cycles
 SCF Done:  E(RB3LYP) =  -235.865965846     A.U. after   11 cycles
 SCF Done:  E(RB3LYP) =  -235.866540940     A.U. after   10 cycles
 SCF Done:  E(RB3LYP) =  -235.863378690     A.U. after   14 cycles
 SCF Done:  E(RB3LYP) =  -235.867593969     A.U. after   11 cycles
 SCF Done:  E(RB3LYP) =  -235.868140526     A.U. after   11 cycles
 SCF Done:  E(RB3LYP) =  -235.868800687     A.U. after   10 cycles
 SCF Done:  E(RB3LYP) =  -235.869188326     A.U. after   11 cycles
 SCF Done:  E(RB3LYP) =  -235.869251106     A.U. after   10 cycles
 SCF Done:  E(RB3LYP) =  -235.869280190     A.U. after    9 cycles
 SCF Done:  E(RB3LYP) =  -235.869281438     A.U. after    7 cycles
 Optimization completed.
    -- Stationary point found.
 Normal termination of Gaussian 09 at Tue Aug 30 11:57:04 2022.

 ----------------------------------------------------------
 #P Geom=AllCheck Guess=TCheck SCRF=Check B3LYP/GTBas3 Freq
 ----------------------------------------------------------

 Structure from the checkpoint file:  "G4.Frag_540.chk"
 --------
 Frag_540
 --------
 Charge =  0 Multiplicity = 1

 SCF Done:  E(RB3LYP) =  -235.869281438     A.U. after    1 cycles

  Exact polarizability:  78.282  -2.951  63.568  -0.001   0.005  54.992
 Approx polarizability: 109.938  -8.154  91.169  -0.006   0.010  76.813

                      1                      2                      3
                      A                      A                      A
 Frequencies --    110.9228               222.2023               263.8176
 Red. masses --      2.3461                 1.0176                 1.1483
 Frc consts  --      0.0170                 0.0296                 0.0471
 IR Inten    --      0.0037                 0.0289                 0.0189

                      4                      5                      6
                      A                      A                      A
 Frequencies --    286.6920               289.5148               312.5993
 Red. masses --      1.0436                 2.0124                 1.7535
 Frc consts  --      0.0505                 0.0994                 0.1010
 IR Inten    --      0.0136                 0.1366                 0.0415

                      7                      8                      9
                      A                      A                      A
 Frequencies --    348.3894               381.8875               397.8288
 Red. masses --      2.2834                 1.8945                 2.2475
 Frc consts  --      0.1633                 0.1628                 0.2096
 IR Inten    --      0.0969                 0.1674                 0.1132

                     10                     11                     12
                      A                      A                      A
 Frequencies --    525.9933               699.8817               716.7315
 Red. masses --      2.4841                 1.7265                 3.1079
 Frc consts  --      0.4049                 0.4983                 0.9406
 IR Inten    --      0.0755                 6.7691                 0.1396

                     13                     14                     15
                      A                      A                      A
 Frequencies --    885.8591               929.9290               940.5366
 Red. masses --      1.9879                 1.7697                 1.7227
 Frc consts  --      0.9191                 0.9017                 0.8979
 IR Inten    --      3.0449                 0.0000                 0.3458

                     16                     17                     18
                      A                      A                      A
 Frequencies --    945.9114               960.2623              1014.3621
 Red. masses --      1.3576                 1.2024                 1.3136
 Frc consts  --      0.7157                 0.6532                 0.7963
 IR Inten    --     29.7338                 0.0004                 2.4424

                     19                     20                     21
                      A                      A                      A
 Frequencies --   1043.0847              1054.7001              1090.5030
 Red. masses --      1.2911                 1.1903                 1.4186
 Frc consts  --      0.8276                 0.7801                 0.9939
 IR Inten    --      0.3841                 8.3001                 2.4254

                     22                     23                     24
                      A                      A                      A
 Frequencies --   1225.9802              1232.6287              1290.7450
 Red. masses --      2.6875                 2.4413                 2.7856
 Frc consts  --      2.3800                 2.1854                 2.7343
 IR Inten    --      6.0146                 6.4860                 3.5917

                     25                     26                     27
                      A                      A                      A
 Frequencies --   1342.6892              1394.5026              1396.8765
 Red. masses --      1.2705                 1.2124                 1.2465
 Frc consts  --      1.3495                 1.3891                 1.4330
 IR Inten    --      0.1699                 2.8076                 4.8202

                     28                     29                     30
                      A                      A                      A
 Frequencies --   1423.0724              1458.4843              1478.8440
 Red. masses --      1.2231                 1.1740                 1.0482
 Frc consts  --      1.4594                 1.4714                 1.3507
 IR Inten    --      1.8204                 3.4396                 0.0095

                     31                     32                     33
                      A                      A                      A
 Frequencies --   1484.4789              1490.0914              1502.8221
 Red. masses --      1.0457                 1.0456                 1.0508
 Frc consts  --      1.3578                 1.3679                 1.3982
 IR Inten    --      0.2759                 0.4797                 4.5462

                     34                     35                     36
                      A                      A                      A
 Frequencies --   1503.3983              1521.4283              1713.7725
 Red. masses --      1.0604                 1.0709                 4.8621
 Frc consts  --      1.4122                 1.4605                 8.4136
 IR Inten    --      3.8562                 6.9413                10.9524

                     37                     38                     39
                      A                      A                      A
 Frequencies --   3023.3629              3026.2190              3033.6840
 Red. masses --      1.0342                 1.0343                 1.0355
 Frc consts  --      5.5698                 5.5811                 5.6147
 IR Inten    --     26.0453                31.5250                13.9802

                     40                     41                     42
                      A                      A                      A
 Frequencies --   3090.9816              3094.5517              3099.7977
 Red. masses --      1.1017                 1.1013                 1.1008
 Frc consts  --      6.2018                 6.2137                 6.2322
 IR Inten    --      0.3787                21.2521                37.5346

                     43                     44                     45
                      A                      A                      A
 Frequencies --   3100.4809              3104.4839              3105.3002
 Red. masses --      1.1024                 1.1006                 1.1011
 Frc consts  --      6.2436                 6.2497                 6.2557
 IR Inten    --      1.6308                45.7630                45.4096

                     46                     47                     48
                      A                      A                      A
 Frequencies --   3113.8965              3152.4294              3227.9682
 Red. masses --      1.0847                 1.0647                 1.1139
 Frc consts  --      6.1970                 6.2342                 6.8383
 IR Inten    --     33.9122                 6.4873                15.0243

 - Thermochemistry -
 -------------------
 Temperature   298.150 Kelvin.  Pressure   1.00000 Atm.
 Atom     1 has atomic number  6 and mass  12.00000

 Molecular mass:    84.09390 amu.
 Principal axes and moments of inertia in atomic units:
                           1         2         3
     Eigenvalues --   411.13318 675.50900 689.59984
           X            0.99987  -0.01611  -0.00002
           Y            0.01611   0.99987   0.00025
           Z            0.00002  -0.00025   1.00000
 This molecule is an asymmetric top.
 Rotational symmetry number  1.
 Rotational temperatures (Kelvin)      0.21067     0.12822     0.12560
 Rotational constants (GHZ):           4.38968     2.67168     2.61708
 Zero-point vibrational energy     430982.1 (Joules/Mol)
                                  103.00719 (Kcal/Mol)
 Warning -- explicit consideration of  10 degrees of freedom as
           vibrations may cause significant error
 Vibrational temperatures:    159.59   319.70   379.57   412.49   416.55
          (Kelvin)            449.76   501.25   549.45   572.39   756.79
                             1006.97  1031.22  1274.55  1337.96  1353.22
                             1360.95  1381.60  1459.44  1500.76  1517.48
                             1568.99  1763.91  1773.48  1857.09  1931.83
                             2006.38  2009.79  2047.48  2098.43  2127.72
                             2135.83  2143.91  2162.22  2163.05  2188.99
                             2465.73  4349.94  4354.05  4364.79  4447.23
                             4452.36  4459.91  4460.89  4466.65  4467.83
                             4480.20  4535.64  4644.32

 Zero-point correction=                           0.164152 (Hartree/Particle)
 Thermal correction to Energy=                    0.171866
 Thermal correction to Enthalpy=                  0.172811
 Thermal correction to Gibbs Free Energy=         0.133537
 Sum of electronic and zero-point Energies=           -235.705129
 Sum of electronic and thermal Energies=              -235.697415
 Sum of electronic and thermal Enthalpies=            -235.696471
 Sum of electronic and thermal Free Energies=         -235.735744

                     E (Thermal)             CV                S
                      KCal/Mol        Cal/Mol-Kelvin    Cal/Mol-Kelvin
 Total                  107.848             29.010             82.658
 Electronic               0.000              0.000              0.000
 Translational            0.889              2.981             39.202
 Rotational               0.889              2.981             26.751
 Vibrational            106.070             23.048             16.705
 Vibration     1          0.607              1.940              3.253
 Vibration     2          0.648              1.807              1.941
 Vibration     3          0.670              1.739              1.636
 Vibration     4          0.684              1.698              1.493
 Vibration     5          0.686              1.693              1.477
 Vibration     6          0.701              1.650              1.349
 Vibration     7          0.726              1.579              1.173
 Vibration     8          0.751              1.509              1.032
 Vibration     9          0.764              1.475              0.971
 Vibration    10          0.881              1.192              0.596

 Optimization completed.
    -- Stationary point found.
 Normal termination of Gaussian 09 at Tue Aug 30 11:57:47 2022.

 -----------------------------------------------------------------
 #P Geom=AllCheck Guess=TCheck SCRF=Check CCSD(T,E4T,FrzG4)/GTBas1
 -----------------------------------------------------------------

 Structure from the checkpoint file:  "G4.Frag_540.chk"
 --------
 Frag_540
 --------
 Charge =  0 Multiplicity = 1

 SCF Done:  E(RHF) =  -234.173013522     A.U. after   12 cycles
 E2 =    -0.7855498279D+00 EUMP2 =    -0.23495856334959D+03
 CCSD(T)
 CCSD(T)= -0.23505739706D+03
 Normal termination of Gaussian 09 at Tue Aug 30 12:00:01 2022.

 ---------------------------------------------------------
 #P Geom=AllCheck Guess=TCheck SCRF=Check MP4=FrzG4/GTBas2
 ---------------------------------------------------------

 Structure from the checkpoint file:  "G4.Frag_540.chk"
 --------
 Frag_540
 --------
 Charge =  0 Multiplicity = 1

 SCF Done:  E(RHF) =  -234.178164351     A.U. after   12 cycles
 E2 =    -0.7937556511D+00 EUMP2 =    -0.23497192000210D+03
 Normal termination of Gaussian 09 at Tue Aug 30 12:00:45 2022.

 ---------------------------------------------------------
 #P Geom=AllCheck Guess=TCheck SCRF=Check MP4=FrzG4/GTBas3
 ---------------------------------------------------------

 Structure from the checkpoint file:  "G4.Frag_540.chk"
 --------
 Frag_540
 --------
 Charge =  0 Multiplicity = 1

 SCF Done:  E(RHF) =  -234.203625675     A.U. after   10 cycles
 E2 =    -0.9780695987D+00 EUMP2 =    -0.23518169527352D+03
 Normal termination of Gaussian 09 at Tue Aug 30 12:05:45 2022.

 -----------------------------------------------------------
 #P Geom=AllCheck Guess=TCheck SCRF=Check MP2=Full/GTLargeXP
 -----------------------------------------------------------

 Structure from the checkpoint file:  "G4.Frag_540.chk"
 --------
 Frag_540
 --------
 Charge =  0 Multiplicity = 1

 SCF Done:  E(RHF) =  -234.252509317     A.U. after   11 cycles
 E2 =    -0.1292726090D+01 EUMP2 =    -0.23554523540651D+03
 Normal termination of Gaussian 09 at Tue Aug 30 12:08:26 2022.
 SCF Done:  E(RHF) =  -234.271246204     A.U. after    8 cycles
 Normal termination of Gaussian 09 at Tue Aug 30 12:11:17 2022.

                         Standard orientation:
 ---------------------------------------------------------------------
 Center     Atomic      Atomic             Coordinates (Angstroms)
 Number     Number       Type             X           Y           Z
 ---------------------------------------------------------------------
      1          6           0        2.204081    0.082964    0.000185
      2          6           0        1.008508    0.663581    0.000638
      3          6           0       -0.352107   -0.002164    0.000053
      4          6           0       -1.119312    0.464763    1.257364
      5          6           0       -1.118738    0.466555   -1.257064
      6          6           0       -0.256295   -1.534757   -0.000985
      7          1           0        3.115234    0.672193    0.000829
      8          1           0        2.332065   -0.994224   -0.000595
      9          1           0        0.962569    1.753818    0.001146
     10          1           0       -2.134486    0.052538    1.266434
     11          1           0       -1.201585    1.556603    1.288582
     12          1           0       -0.610987    0.140561    2.170901
     13          1           0       -0.609396    0.144395   -2.170737
     14          1           0       -2.133583    0.053571   -1.267643
     15          1           0       -1.201793    1.558384   -1.286281
     16          1           0        0.271977   -1.901785   -0.886714
     17          1           0        0.270427   -1.903074    0.885133
     18          1           0       -1.257261   -1.978630   -0.002192
 ---------------------------------------------------------------------

 SCF Done:  E(RHF) =  -234.275090253     A.U. after    7 cycles

 The electronic state is 1-A.
 Alpha  occ. eigenvalues --  -11.23958 -11.22755 -11.21506 -11.21307 -11.21305
 Alpha  occ. eigenvalues --  -11.21060  -1.11324  -1.00658  -0.93146  -0.92936
 Alpha  occ. eigenvalues --   -0.81753  -0.71458  -0.64102  -0.62090  -0.59711
 Alpha  occ. eigenvalues --   -0.57991  -0.54124  -0.53189  -0.52759  -0.51309
 Alpha  occ. eigenvalues --   -0.46969  -0.46125  -0.45657  -0.35923
 Alpha virt. eigenvalues --    0.03527   0.04170   0.04411   0.04423   0.05934
 Alpha virt. eigenvalues --    0.06712   0.06735   0.07034   0.07755   0.09256
 Alpha virt. eigenvalues --    0.09624   0.09699   0.09977   0.10511   0.11283

 Mulliken charges:
               1
     1  C   -0.509066
     2  C   -0.214063
     3  C    0.426372
     4  C   -0.569594
     5  C   -0.569567
     6  C   -0.635465
     7  H    0.191297
     8  H    0.175333
     9  H    0.191617
    10  H    0.162526
    11  H    0.161376
    12  H    0.172340
    13  H    0.172373
    14  H    0.162506
    15  H    0.161377
    16  H    0.173559
    17  H    0.173557
    18  H    0.173522
 Sum of Mulliken charges =  -0.00000

 Dipole moment (field-independent basis, Debye):
    X=             -0.3950    Y=             -0.0191    Z=             -0.0001  Tot=              0.3954
 Quadrupole moment (field-independent basis, Debye-Ang):
   XX=            -40.2977   YY=            -39.6452   ZZ=            -42.6712
   XY=             -0.1739   XZ=             -0.0002   YZ=              0.0020

 Normal termination of Gaussian 09 at Tue Aug 30 12:20:31 2022.
