 Gaussian 09, Revision E.01,
 Gaussian 09:  ES64L-G09RevE.01 30-Nov-2015

 -----
 #P G4
 -----

 --------
 Frag_526
 --------
 Symbolic Z-matrix:
 Charge =  0 Multiplicity = 1

 SCF Done:  E(RB3LYP) =  -155.905572274     A.U. after   12 cycles
 SCF Done:  E(RB3LYP) =  -155.957773397     A.U. after   11 cycles
 SCF Done:  E(RB3LYP) =  -155.987872930     A.U. after   11 cycles
 SCF Done:  E(RB3LYP) =  -155.990127366     A.U. after   12 cycles
 SCF Done:  E(RB3LYP) =  -155.991180953     A.U. after   12 cycles
 SCF Done:  E(RB3LYP) =  -155.992776518     A.U. after   11 cycles
 SCF Done:  E(RB3LYP) =  -155.992805472     A.U. after    9 cycles
 SCF Done:  E(RB3LYP) =  -155.992817969     A.U. after    8 cycles
 Optimization completed.
    -- Stationary point found.
 Normal termination of Gaussian 09 at Tue Aug 30 11:10:07 2022.

 ----------------------------------------------------------
 #P Geom=AllCheck Guess=TCheck SCRF=Check B3LYP/GTBas3 Freq
 ----------------------------------------------------------

 Structure from the checkpoint file:  "G4.Frag_526.chk"
 --------
 Frag_526
 --------
 Charge =  0 Multiplicity = 1

 SCF Done:  E(RB3LYP) =  -155.992817969     A.U. after    1 cycles

  Exact polarizability:  66.881   0.003  30.096   0.012   0.001  30.093
 Approx polarizability:  97.248   0.002  41.922   0.048   0.002  41.917

                      1                      2                      3
                      A                      A                      A
 Frequencies --     21.5537               205.1892               206.0363
 Red. masses --      1.0078                 2.7660                 2.7682
 Frc consts  --      0.0003                 0.0686                 0.0692
 IR Inten    --      0.0001                 9.0964                 9.0878

                      4                      5                      6
                      A                      A                      A
 Frequencies --    380.7017               381.0303               727.4982
 Red. masses --      4.1967                 4.2007                 3.6388
 Frc consts  --      0.3584                 0.3593                 1.1347
 IR Inten    --      0.0002                 0.0002                 0.0000

                      7                      8                      9
                      A                      A                      A
 Frequencies --   1049.1769              1049.4426              1058.7210
 Red. masses --      1.3956                 1.3958                 1.3878
 Frc consts  --      0.9051                 0.9057                 0.9165
 IR Inten    --      1.1442                 1.1228                 1.4171

                     10                     11                     12
                      A                      A                      A
 Frequencies --   1058.8244              1174.6032              1413.3588
 Red. masses --      1.3880                 4.3904                 1.2951
 Frc consts  --      0.9168                 3.5689                 1.5242
 IR Inten    --      1.3857                 0.0064                10.0508

                     13                     14                     15
                      A                      A                      A
 Frequencies --   1419.6828              1479.5914              1479.8904
 Red. masses --      1.2121                 1.0416                 1.0413
 Frc consts  --      1.4394                 1.3435                 1.3436
 IR Inten    --      0.0007                 0.0855                 1.2976

                     16                     17                     18
                      A                      A                      A
 Frequencies --   1480.2683              1480.5632              2380.7121
 Red. masses --      1.0385                 1.0382                11.7795
 Frc consts  --      1.3407                 1.3408                39.3362
 IR Inten    --      8.5553                 9.7542                 0.0000

                     19                     20                     21
                      A                      A                      A
 Frequencies --   3022.9130              3023.8996              3081.0979
 Red. masses --      1.0349                 1.0349                 1.1000
 Frc consts  --      5.5718                 5.5753                 6.1525
 IR Inten    --     39.9739                28.0425                 8.6760

                     22                     23                     24
                      A                      A                      A
 Frequencies --   3082.4979              3082.8452              3083.5797
 Red. masses --      1.1001                 1.1000                 1.1002
 Frc consts  --      6.1585                 6.1596                 6.1634
 IR Inten    --     19.4612                 2.6376                21.9255

 - Thermochemistry -
 -------------------
 Temperature   298.150 Kelvin.  Pressure   1.00000 Atm.
 Atom     1 has atomic number  6 and mass  12.00000

 Molecular mass:    54.04695 amu.
 Principal axes and moments of inertia in atomic units:
                           1         2         3
     Eigenvalues --    22.48362 535.67690 535.67754
           X            1.00000   0.00001  -0.00002
           Y           -0.00001   0.99998   0.00643
           Z            0.00002  -0.00643   0.99998
 This molecule is an asymmetric top.
 Rotational symmetry number  1.
 Rotational temperatures (Kelvin)      3.85231     0.16169     0.16169
 Rotational constants (GHZ):          80.26916     3.36909     3.36908
 Zero-point vibrational energy     220254.5 (Joules/Mol)
                                   52.64209 (Kcal/Mol)
 Warning -- explicit consideration of   5 degrees of freedom as
           vibrations may cause significant error
 Vibrational temperatures:     31.01   295.22   296.44   547.74   548.22
          (Kelvin)           1046.71  1509.53  1509.91  1523.26  1523.41
                             1689.99  2033.51  2042.60  2128.80  2129.23
                             2129.77  2130.20  3425.31  4349.29  4350.71
                             4433.01  4435.02  4435.52  4436.58

 Zero-point correction=                           0.083891 (Hartree/Particle)
 Thermal correction to Energy=                    0.089655
 Thermal correction to Enthalpy=                  0.090600
 Thermal correction to Gibbs Free Energy=         0.055110
 Sum of electronic and zero-point Energies=           -155.908927
 Sum of electronic and thermal Energies=              -155.903163
 Sum of electronic and thermal Enthalpies=            -155.902218
 Sum of electronic and thermal Free Energies=         -155.937708

                     E (Thermal)             CV                S
                      KCal/Mol        Cal/Mol-Kelvin    Cal/Mol-Kelvin
 Total                   56.260             17.444             74.695
 Electronic               0.000              0.000              0.000
 Translational            0.889              2.981             37.884
 Rotational               0.889              2.981             23.382
 Vibrational             54.482             11.482             13.429
 Vibration     1          0.593              1.985              6.486
 Vibration     2          0.640              1.833              2.086
 Vibration     3          0.641              1.831              2.079
 Vibration     4          0.750              1.511              1.036
 Vibration     5          0.751              1.511              1.035

 Normal termination of Gaussian 09 at Tue Aug 30 11:10:19 2022.

 -----------------------------------------------------------------
 #P Geom=AllCheck Guess=TCheck SCRF=Check CCSD(T,E4T,FrzG4)/GTBas1
 -----------------------------------------------------------------

 Structure from the checkpoint file:  "G4.Frag_526.chk"
 --------
 Frag_526
 --------
 Charge =  0 Multiplicity = 1

 SCF Done:  E(RHF) =  -154.907927348     A.U. after   10 cycles
 E2 =    -0.5070655052D+00 EUMP2 =    -0.15541499285281D+03
 CCSD(T)
 CCSD(T)= -0.15547246599D+03
 Normal termination of Gaussian 09 at Tue Aug 30 11:10:38 2022.

 ---------------------------------------------------------
 #P Geom=AllCheck Guess=TCheck SCRF=Check MP4=FrzG4/GTBas2
 ---------------------------------------------------------

 Structure from the checkpoint file:  "G4.Frag_526.chk"
 --------
 Frag_526
 --------
 Charge =  0 Multiplicity = 1

 SCF Done:  E(RHF) =  -154.912482378     A.U. after   10 cycles
 E2 =    -0.5099682171D+00 EUMP2 =    -0.15542245059480D+03
 Normal termination of Gaussian 09 at Tue Aug 30 11:10:44 2022.

 ---------------------------------------------------------
 #P Geom=AllCheck Guess=TCheck SCRF=Check MP4=FrzG4/GTBas3
 ---------------------------------------------------------

 Structure from the checkpoint file:  "G4.Frag_526.chk"
 --------
 Frag_526
 --------
 Charge =  0 Multiplicity = 1

 SCF Done:  E(RHF) =  -154.928056217     A.U. after    9 cycles
 E2 =    -0.6199253851D+00 EUMP2 =    -0.15554798160231D+03
 Normal termination of Gaussian 09 at Tue Aug 30 11:11:11 2022.

 -----------------------------------------------------------
 #P Geom=AllCheck Guess=TCheck SCRF=Check MP2=Full/GTLargeXP
 -----------------------------------------------------------

 Structure from the checkpoint file:  "G4.Frag_526.chk"
 --------
 Frag_526
 --------
 Charge =  0 Multiplicity = 1

 SCF Done:  E(RHF) =  -154.961838871     A.U. after   10 cycles
 E2 =    -0.8252009693D+00 EUMP2 =    -0.15578703984077D+03
 Normal termination of Gaussian 09 at Tue Aug 30 11:11:31 2022.
 SCF Done:  E(RHF) =  -154.974287557     A.U. after    8 cycles
 Normal termination of Gaussian 09 at Tue Aug 30 11:11:58 2022.

                         Standard orientation:
 ---------------------------------------------------------------------
 Center     Atomic      Atomic             Coordinates (Angstroms)
 Number     Number       Type             X           Y           Z
 ---------------------------------------------------------------------
      1          6           0       -2.057867   -0.000002    0.000420
      2          6           0       -0.601769    0.000128   -0.001330
      3          6           0        0.601766    0.000046   -0.000080
      4          6           0        2.057908   -0.000091    0.000311
      5          1           0       -2.459181    0.593611   -0.828687
      6          1           0       -2.457622   -1.015705   -0.098332
      7          1           0       -2.456703    0.421479    0.930070
      8          1           0        2.457566   -0.783439    0.654160
      9          1           0        2.457952   -0.174448   -1.005108
     10          1           0        2.457764    0.958013    0.351971
 ---------------------------------------------------------------------

 SCF Done:  E(RHF) =  -154.976688432     A.U. after    7 cycles

 The electronic state is 1-A.
 Alpha  occ. eigenvalues --  -11.24164 -11.24160 -11.21619 -11.21238  -1.06159
 Alpha  occ. eigenvalues --   -1.00091  -0.91439  -0.65449  -0.59891  -0.58896
 Alpha  occ. eigenvalues --   -0.58890  -0.57161  -0.57154  -0.36234  -0.36232
 Alpha virt. eigenvalues --    0.03691   0.04938   0.05824   0.05824   0.06596
 Alpha virt. eigenvalues --    0.06929   0.06930   0.08609   0.11153   0.11153
 Alpha virt. eigenvalues --    0.13493   0.13775   0.14563   0.14581   0.17080

 Mulliken charges:
               1
     1  C   -0.626791
     2  C    0.055492
     3  C    0.055436
     4  C   -0.626826
     5  H    0.190414
     6  H    0.190432
     7  H    0.190473
     8  H    0.190472
     9  H    0.190467
    10  H    0.190432
 Sum of Mulliken charges =  -0.00000

 Dipole moment (field-independent basis, Debye):
    X=             -0.0001    Y=             -0.0003    Z=              0.0026  Tot=              0.0026
 Quadrupole moment (field-independent basis, Debye-Ang):
   XX=            -19.0767   YY=            -26.0965   ZZ=            -26.0963
   XY=             -0.0007   XZ=             -0.0001   YZ=             -0.0003

 Normal termination of Gaussian 09 at Tue Aug 30 11:14:31 2022.
