 Gaussian 09, Revision E.01,
 Gaussian 09:  ES64L-G09RevE.01 30-Nov-2015

 -----
 #P G4
 -----

 --------
 Frag_812
 --------
 Symbolic Z-matrix:
 Charge =  0 Multiplicity = 1

 SCF Done:  E(RB3LYP) =  -265.667893003     A.U. after   12 cycles
 SCF Done:  E(RB3LYP) =  -265.674626450     A.U. after   12 cycles
 SCF Done:  E(RB3LYP) =  -265.676435946     A.U. after   11 cycles
 SCF Done:  E(RB3LYP) =  -265.677802059     A.U. after   12 cycles
 SCF Done:  E(RB3LYP) =  -265.677980237     A.U. after   11 cycles
 SCF Done:  E(RB3LYP) =  -265.678027779     A.U. after    9 cycles
 SCF Done:  E(RB3LYP) =  -265.678034417     A.U. after    9 cycles
 SCF Done:  E(RB3LYP) =  -265.678035358     A.U. after    8 cycles
 SCF Done:  E(RB3LYP) =  -265.678035539     A.U. after    7 cycles
 Optimization completed.
    -- Stationary point found.
 Normal termination of Gaussian 09 at Fri Aug 26 06:23:21 2022.

 ----------------------------------------------------------
 #P Geom=AllCheck Guess=TCheck SCRF=Check B3LYP/GTBas3 Freq
 ----------------------------------------------------------

 Structure from the checkpoint file:  "G4.Frag_812.chk"
 --------
 Frag_812
 --------
 Charge =  0 Multiplicity = 1

 SCF Done:  E(RB3LYP) =  -265.678035539     A.U. after    1 cycles

  Exact polarizability:  52.926   2.041  44.367  -0.642  -0.271  37.403
 Approx polarizability:  64.482   4.497  61.141  -0.026   0.971  55.512

                      1                      2                      3
                      A                      A                      A
 Frequencies --    116.4433               204.6975               254.8257
 Red. masses --      2.6977                 1.0934                 1.1903
 Frc consts  --      0.0216                 0.0270                 0.0455
 IR Inten    --      8.4257                 3.2704                 5.2408

                      4                      5                      6
                      A                      A                      A
 Frequencies --    295.9374               321.3881               416.5109
 Red. masses --      1.0755                 2.2996                 2.4344
 Frc consts  --      0.0555                 0.1399                 0.2488
 IR Inten    --     33.4213                 2.4489                 3.4044

                      7                      8                      9
                      A                      A                      A
 Frequencies --    523.7136               556.8982               791.9148
 Red. masses --      2.9076                 3.5223                 2.4617
 Frc consts  --      0.4699                 0.6436                 0.9096
 IR Inten    --      2.2917                 0.4013                87.7626

                     10                     11                     12
                      A                      A                      A
 Frequencies --    810.6129              1015.8300              1080.5877
 Red. masses --      4.4015                 1.6509                 4.8175
 Frc consts  --      1.7040                 1.0037                 3.3143
 IR Inten    --     19.9169                26.9446               110.6023

                     13                     14                     15
                      A                      A                      A
 Frequencies --   1115.3856              1159.9903              1181.1573
 Red. masses --      2.3420                 1.7852                 1.3113
 Frc consts  --      1.7167                 1.4153                 1.0779
 IR Inten    --      1.8771                 3.8091                 3.1560

                     16                     17                     18
                      A                      A                      A
 Frequencies --   1202.1302              1239.6045              1328.4292
 Red. masses --      1.7232                 1.8668                 1.3144
 Frc consts  --      1.4672                 1.6901                 1.3666
 IR Inten    --     20.1343                 3.8741                 4.1019

                     19                     20                     21
                      A                      A                      A
 Frequencies --   1434.2245              1455.5484              1470.5220
 Red. masses --      1.1933                 1.1517                 1.0500
 Frc consts  --      1.4463                 1.4376                 1.3378
 IR Inten    --      0.6357                 1.4859                 2.6217

                     22                     23                     24
                      A                      A                      A
 Frequencies --   1474.8916              1494.8611              1515.8831
 Red. masses --      1.0483                 1.0501                 1.0498
 Frc consts  --      1.3436                 1.3826                 1.4213
 IR Inten    --      5.7144                 5.3583                 7.5605

                     25                     26                     27
                      A                      A                      A
 Frequencies --   1650.4594              2976.8767              3007.5572
 Red. masses --      1.0857                 1.0518                 1.0321
 Frc consts  --      1.7425                 5.4917                 5.5005
 IR Inten    --     10.6054                53.0815                56.6658

                     28                     29                     30
                      A                      A                      A
 Frequencies --   3071.2498              3093.7944              3116.5647
 Red. masses --      1.1039                 1.0801                 1.1010
 Frc consts  --      6.1351                 6.0909                 6.3005
 IR Inten    --     38.1059                26.0264                23.9903

                     31                     32                     33
                      A                      A                      A
 Frequencies --   3139.4976              3392.7097              3568.9096
 Red. masses --      1.1038                 1.0552                 1.0859
 Frc consts  --      6.4100                 7.1561                 8.1493
 IR Inten    --     16.5363                11.3260                 3.7624

 - Thermochemistry -
 -------------------
 Temperature   298.150 Kelvin.  Pressure   1.00000 Atm.
 Atom     1 has atomic number  6 and mass  12.00000

 Molecular mass:    76.06366 amu.
 Principal axes and moments of inertia in atomic units:
                           1         2         3
     Eigenvalues --   213.16308 444.05783 588.69610
           X            0.99962  -0.02271  -0.01564
           Y            0.02261   0.99972  -0.00657
           Z            0.01578   0.00622   0.99986
 This molecule is an asymmetric top.
 Rotational symmetry number  1.
 Rotational temperatures (Kelvin)      0.40633     0.19505     0.14713
 Rotational constants (GHZ):           8.46648     4.06420     3.06566
 Zero-point vibrational energy     295953.8 (Joules/Mol)
                                   70.73465 (Kcal/Mol)
 Warning -- explicit consideration of   8 degrees of freedom as
           vibrations may cause significant error
 Vibrational temperatures:    167.54   294.51   366.64   425.79   462.41
          (Kelvin)            599.27   753.51   801.25  1139.39  1166.29
                             1461.55  1554.72  1604.79  1668.97  1699.42
                             1729.60  1783.51  1911.31  2063.53  2094.21
                             2115.75  2122.04  2150.77  2181.01  2374.64
                             4283.06  4327.20  4418.84  4451.27  4484.04
                             4517.03  4881.35  5134.86

 Zero-point correction=                           0.112723 (Hartree/Particle)
 Thermal correction to Energy=                    0.119153
 Thermal correction to Enthalpy=                  0.120097
 Thermal correction to Gibbs Free Energy=         0.083485
 Sum of electronic and zero-point Energies=           -265.565313
 Sum of electronic and thermal Energies=              -265.558882
 Sum of electronic and thermal Enthalpies=            -265.557938
 Sum of electronic and thermal Free Energies=         -265.594551

                     E (Thermal)             CV                S
                      KCal/Mol        Cal/Mol-Kelvin    Cal/Mol-Kelvin
 Total                   74.770             22.284             77.057
 Electronic               0.000              0.000              0.000
 Translational            0.889              2.981             38.903
 Rotational               0.889              2.981             25.525
 Vibrational             72.992             16.323             12.630
 Vibration     1          0.608              1.936              3.159
 Vibration     2          0.640              1.833              2.090
 Vibration     3          0.665              1.755              1.697
 Vibration     4          0.690              1.681              1.440
 Vibration     5          0.707              1.633              1.303
 Vibration     6          0.780              1.434              0.904
 Vibration     7          0.879              1.197              0.601
 Vibration     8          0.912              1.125              0.530

 Optimization completed.
    -- Stationary point found.
 Normal termination of Gaussian 09 at Fri Aug 26 06:23:45 2022.

 -----------------------------------------------------------------
 #P Geom=AllCheck Guess=TCheck SCRF=Check CCSD(T,E4T,FrzG4)/GTBas1
 -----------------------------------------------------------------

 Structure from the checkpoint file:  "G4.Frag_812.chk"
 --------
 Frag_812
 --------
 Charge =  0 Multiplicity = 1

 SCF Done:  E(RHF) =  -264.035593470     A.U. after   12 cycles
 E2 =    -0.7724676617D+00 EUMP2 =    -0.26480806113138D+03
 CCSD(T)
 CCSD(T)= -0.26487885979D+03
 1\MP4SDTQ=-264.8782878\MP4SDQ=-264.8549032\CCSD=-264.8556418\CCSD(T)=-
 Normal termination of Gaussian 09 at Fri Aug 26 06:24:50 2022.

 ---------------------------------------------------------
 #P Geom=AllCheck Guess=TCheck SCRF=Check MP4=FrzG4/GTBas2
 ---------------------------------------------------------

 Structure from the checkpoint file:  "G4.Frag_812.chk"
 --------
 Frag_812
 --------
 Charge =  0 Multiplicity = 1

 SCF Done:  E(RHF) =  -264.044560085     A.U. after   12 cycles
 E2 =    -0.7853196769D+00 EUMP2 =    -0.26482987976185D+03
 Normal termination of Gaussian 09 at Fri Aug 26 06:25:08 2022.

 ---------------------------------------------------------
 #P Geom=AllCheck Guess=TCheck SCRF=Check MP4=FrzG4/GTBas3
 ---------------------------------------------------------

 Structure from the checkpoint file:  "G4.Frag_812.chk"
 --------
 Frag_812
 --------
 Charge =  0 Multiplicity = 1

 SCF Done:  E(RHF) =  -264.069430273     A.U. after   11 cycles
 E2 =    -0.9552410358D+00 EUMP2 =    -0.26502467130865D+03
 Normal termination of Gaussian 09 at Fri Aug 26 06:26:52 2022.

 -----------------------------------------------------------
 #P Geom=AllCheck Guess=TCheck SCRF=Check MP2=Full/GTLargeXP
 -----------------------------------------------------------

 Structure from the checkpoint file:  "G4.Frag_812.chk"
 --------
 Frag_812
 --------
 Charge =  0 Multiplicity = 1

 SCF Done:  E(RHF) =  -264.140453038     A.U. after   11 cycles
 E2 =    -0.1242259999D+01 EUMP2 =    -0.26538271303732D+03
 Normal termination of Gaussian 09 at Fri Aug 26 06:27:44 2022.
 SCF Done:  E(RHF) =  -264.161611308     A.U. after    9 cycles
 Normal termination of Gaussian 09 at Fri Aug 26 06:28:55 2022.

                         Standard orientation:
 ---------------------------------------------------------------------
 Center     Atomic      Atomic             Coordinates (Angstroms)
 Number     Number       Type             X           Y           Z
 ---------------------------------------------------------------------
      1          6           0        1.915799    0.049908   -0.144838
      2          8           0        0.699065    0.489142    0.424972
      3          7           0       -0.392973   -0.027378   -0.355595
      4          6           0       -1.485947    0.891435   -0.056805
      5          7           0       -0.642503   -1.340934    0.116229
      6          1           0        2.029494    0.411723   -1.174850
      7          1           0        1.983336   -1.044716   -0.135308
      8          1           0        2.708060    0.466507    0.483070
      9          1           0       -2.372437    0.558095   -0.602152
     10          1           0       -1.709421    0.922983    1.022319
     11          1           0       -1.211237    1.893531   -0.391102
     12          1           0       -1.271863   -1.333155    0.922510
     13          1           0       -1.079232   -1.857975   -0.638845
 ---------------------------------------------------------------------

 SCF Done:  E(RHF) =  -264.166273572     A.U. after    8 cycles

 The electronic state is 1-A.
 Alpha  occ. eigenvalues --  -20.57251 -15.63646 -15.57549 -11.25676 -11.25025
 Alpha  occ. eigenvalues --   -1.41556  -1.23274  -1.05046  -0.91381  -0.85395
 Alpha  occ. eigenvalues --   -0.69955  -0.67757  -0.65767  -0.61468  -0.58879
 Alpha  occ. eigenvalues --   -0.56532  -0.54116  -0.50312  -0.44910  -0.42237
 Alpha  occ. eigenvalues --   -0.38964
 Alpha virt. eigenvalues --    0.03848   0.04870   0.05256   0.05424   0.06953
 Alpha virt. eigenvalues --    0.07245   0.07504   0.09347   0.09712   0.11620
 Alpha virt. eigenvalues --    0.13349   0.13886   0.15117   0.15829   0.16373

 Mulliken charges:
               1
     1  C   -0.330112
     2  O   -0.312525
     3  N    0.056259
     4  C   -0.446238
     5  N   -0.620603
     6  H    0.165885
     7  H    0.186323
     8  H    0.174994
     9  H    0.172696
    10  H    0.159788
    11  H    0.188470
    12  H    0.284388
    13  H    0.320675
 Sum of Mulliken charges =  -0.00000

 Dipole moment (field-independent basis, Debye):
    X=             -1.5844    Y=             -0.3994    Z=             -0.4243  Tot=              1.6881
 Quadrupole moment (field-independent basis, Debye-Ang):
   XX=            -26.2392   YY=            -31.3653   ZZ=            -32.6027
   XY=              1.5014   XZ=             -0.8874   YZ=              0.1642

 Normal termination of Gaussian 09 at Fri Aug 26 06:33:25 2022.
