 Gaussian 09, Revision E.01,
 Gaussian 09:  ES64L-G09RevE.01 30-Nov-2015

 -----
 #P G4
 -----

 --------
 Frag_810
 --------
 Symbolic Z-matrix:
 Charge =  0 Multiplicity = 1

 SCF Done:  E(RB3LYP) =  -435.662860048     A.U. after   12 cycles
 SCF Done:  E(RB3LYP) =  -435.675915742     A.U. after   11 cycles
 SCF Done:  E(RB3LYP) =  -435.677246536     A.U. after   10 cycles
 SCF Done:  E(RB3LYP) =  -435.677210275     A.U. after   11 cycles
 SCF Done:  E(RB3LYP) =  -435.676948572     A.U. after   11 cycles
 SCF Done:  E(RB3LYP) =  -435.677667627     A.U. after    9 cycles
 SCF Done:  E(RB3LYP) =  -435.677948806     A.U. after   10 cycles
 SCF Done:  E(RB3LYP) =  -435.678024414     A.U. after    9 cycles
 SCF Done:  E(RB3LYP) =  -435.678076016     A.U. after   10 cycles
 SCF Done:  E(RB3LYP) =  -435.678101886     A.U. after    9 cycles
 SCF Done:  E(RB3LYP) =  -435.678127653     A.U. after    7 cycles
 SCF Done:  E(RB3LYP) =  -435.678127646     A.U. after    6 cycles
 SCF Done:  E(RB3LYP) =  -435.678127610     A.U. after    6 cycles
 Optimization completed.
    -- Stationary point found.
 Normal termination of Gaussian 09 at Fri Aug 26 15:18:29 2022.

 ----------------------------------------------------------
 #P Geom=AllCheck Guess=TCheck SCRF=Check B3LYP/GTBas3 Freq
 ----------------------------------------------------------

 Structure from the checkpoint file:  "G4.Frag_810.chk"
 --------
 Frag_810
 --------
 Charge =  0 Multiplicity = 1

 SCF Done:  E(RB3LYP) =  -435.678127610     A.U. after    1 cycles

  Exact polarizability:  69.366   0.561  59.507  -1.136   0.291  60.272
 Approx polarizability:  93.242  -1.791  83.936  -1.256   0.997  89.553

                      1                      2                      3
                      A                      A                      A
 Frequencies --    119.9680               181.2995               201.1552
 Red. masses --      3.2850                 1.1999                 1.0978
 Frc consts  --      0.0279                 0.0232                 0.0262
 IR Inten    --      1.9887                13.7903                 0.9329

                      4                      5                      6
                      A                      A                      A
 Frequencies --    236.3413               252.8011               283.2334
 Red. masses --      1.2241                 2.2737                 3.0323
 Frc consts  --      0.0403                 0.0856                 0.1433
 IR Inten    --     70.8642                 2.8087                22.0516

                      7                      8                      9
                      A                      A                      A
 Frequencies --    308.4455               338.1810               370.3561
 Red. masses --      1.2467                 1.6261                 2.6737
 Frc consts  --      0.0699                 0.1096                 0.2161
 IR Inten    --     18.0393                20.3774                15.7372

                     10                     11                     12
                      A                      A                      A
 Frequencies --    375.6393               411.6167               443.3547
 Red. masses --      2.5783                 1.8833                 2.7941
 Frc consts  --      0.2143                 0.1880                 0.3236
 IR Inten    --     27.3194                11.2874                18.1658

                     13                     14                     15
                      A                      A                      A
 Frequencies --    476.5138               494.0030               549.6095
 Red. masses --      2.3687                 1.4159                 2.9494
 Frc consts  --      0.3169                 0.2036                 0.5249
 IR Inten    --     68.8797                57.0493                27.1042

                     16                     17                     18
                      A                      A                      A
 Frequencies --    563.8787               583.3387               707.4114
 Red. masses --      3.6647                 2.7583                 3.1399
 Frc consts  --      0.6865                 0.5530                 0.9258
 IR Inten    --     16.0102                53.5443                28.2575

                     19                     20                     21
                      A                      A                      A
 Frequencies --    818.0679               846.2515               876.0366
 Red. masses --      1.8971                 2.4820                 1.7563
 Frc consts  --      0.7480                 1.0473                 0.7941
 IR Inten    --     91.6946               136.8442                31.7459

                     22                     23                     24
                      A                      A                      A
 Frequencies --    907.7085               957.7785               983.0679
 Red. masses --      1.8165                 1.8200                 2.2076
 Frc consts  --      0.8818                 0.9837                 1.2570
 IR Inten    --    152.3584                 3.1117                81.6717

                     25                     26                     27
                      A                      A                      A
 Frequencies --   1032.8993              1061.7591              1099.1792
 Red. masses --      1.4849                 1.8832                 1.7957
 Frc consts  --      0.9334                 1.2508                 1.2783
 IR Inten    --      5.3326                63.8345               186.8489

                     28                     29                     30
                      A                      A                      A
 Frequencies --   1139.9694              1210.3479              1239.3513
 Red. masses --      2.4077                 1.2979                 1.6586
 Frc consts  --      1.8435                 1.1203                 1.5010
 IR Inten    --     54.9880                21.5764                29.1787

                     31                     32                     33
                      A                      A                      A
 Frequencies --   1269.1019              1319.5131              1396.4973
 Red. masses --      2.3080                 1.8728                 1.3420
 Frc consts  --      2.1902                 1.9212                 1.5420
 IR Inten    --    101.4096                 9.4735                13.3564

                     34                     35                     36
                      A                      A                      A
 Frequencies --   1416.6961              1466.2252              1474.3955
 Red. masses --      1.8107                 1.5668                 1.1157
 Frc consts  --      2.1411                 1.9845                 1.4290
 IR Inten    --     28.0258                30.5683                 9.1630

                     37                     38                     39
                      A                      A                      A
 Frequencies --   1506.6341              1624.5404              1635.3008
 Red. masses --      1.1916                 1.1128                 1.1077
 Frc consts  --      1.5937                 1.7304                 1.7453
 IR Inten    --     22.5571                54.9591                44.6560

                     40                     41                     42
                      A                      A                      A
 Frequencies --   1637.9348              3027.5261              3124.4751
 Red. masses --      1.1017                 1.0503                 1.0847
 Frc consts  --      1.7414                 5.6718                 6.2390
 IR Inten    --     36.2640                31.9776                12.5500

                     43                     44                     45
                      A                      A                      A
 Frequencies --   3166.7312              3479.4143              3504.5739
 Red. masses --      1.1018                 1.0486                 1.0476
 Frc consts  --      6.5101                 7.4796                 7.5808
 IR Inten    --      6.1718                 0.2770                 5.1013

                     46                     47                     48
                      A                      A                      A
 Frequencies --   3508.1083              3563.5896              3597.9792
 Red. masses --      1.0492                 1.0921                 1.0944
 Frc consts  --      7.6077                 8.1713                 8.3469
 IR Inten    --      1.5443                 1.0751                 5.2612

                     49                     50                     51
                      A                      A                      A
 Frequencies --   3604.4360              3783.4687              3823.7943
 Red. masses --      1.0920                 1.0648                 1.0665
 Frc consts  --      8.3587                 8.9803                 9.1875
 IR Inten    --      6.3931                40.6205                17.3004

 - Thermochemistry -
 -------------------
 Temperature   298.150 Kelvin.  Pressure   1.00000 Atm.
 Atom     1 has atomic number  6 and mass  12.00000

 Molecular mass:   121.08513 amu.
 Principal axes and moments of inertia in atomic units:
                           1         2         3
     Eigenvalues --   712.25776 982.29241 990.08726
           X            0.99806   0.05982  -0.01717
           Y           -0.05950   0.99806   0.01846
           Z            0.01825  -0.01740   0.99968
 This molecule is an asymmetric top.
 Rotational symmetry number  1.
 Warning -- assumption of classical behavior for rotation
           may cause significant error
 Rotational temperatures (Kelvin)      0.12160     0.08818     0.08748
 Rotational constants (GHZ):           2.53383     1.83727     1.82281
 Zero-point vibrational energy     430658.6 (Joules/Mol)
                                  102.92988 (Kcal/Mol)
 Warning -- explicit consideration of  17 degrees of freedom as
           vibrations may cause significant error
 Vibrational temperatures:    172.61   260.85   289.42   340.04   363.72
          (Kelvin)            407.51   443.78   486.57   532.86   540.46
                              592.22   637.89   685.60   710.76   790.76
                              811.29   839.29  1017.81  1177.02  1217.57
                             1260.42  1305.99  1378.03  1414.41  1486.11
                             1527.63  1581.47  1640.16  1741.42  1783.15
                             1825.95  1898.48  2009.25  2038.31  2109.57
                             2121.32  2167.71  2337.35  2352.83  2356.62
                             4355.93  4495.42  4556.21  5006.09  5042.29
                             5047.38  5127.20  5176.68  5185.97  5443.56
                             5501.58

 Zero-point correction=                           0.164029 (Hartree/Particle)
 Thermal correction to Energy=                    0.173818
 Thermal correction to Enthalpy=                  0.174762
 Thermal correction to Gibbs Free Energy=         0.131066
 Sum of electronic and zero-point Energies=           -435.514098
 Sum of electronic and thermal Energies=              -435.504310
 Sum of electronic and thermal Enthalpies=            -435.503366
 Sum of electronic and thermal Free Energies=         -435.547061

                     E (Thermal)             CV                S
                      KCal/Mol        Cal/Mol-Kelvin    Cal/Mol-Kelvin
 Total                  109.072             38.174             91.965
 Electronic               0.000              0.000              0.000
 Translational            0.889              2.981             40.288
 Rotational               0.889              2.981             28.029
 Vibrational            107.295             32.212             23.648
 Vibration     1          0.609              1.933              3.101
 Vibration     2          0.630              1.865              2.315
 Vibration     3          0.638              1.838              2.123
 Vibration     4          0.655              1.785              1.830
 Vibration     5          0.664              1.758              1.711
 Vibration     6          0.682              1.705              1.514
 Vibration     7          0.698              1.658              1.371
 Vibration     8          0.718              1.599              1.221
 Vibration     9          0.742              1.533              1.078
 Vibration    10          0.746              1.522              1.057
 Vibration    11          0.776              1.445              0.921
 Vibration    12          0.803              1.376              0.816
 Vibration    13          0.833              1.302              0.720
 Vibration    14          0.850              1.263              0.673
 Vibration    15          0.905              1.141              0.545
 Vibration    16          0.920              1.109              0.516
 Vibration    17          0.940              1.067              0.479

 Optimization completed.
    -- Stationary point found.
 Normal termination of Gaussian 09 at Fri Aug 26 15:19:48 2022.

 -----------------------------------------------------------------
 #P Geom=AllCheck Guess=TCheck SCRF=Check CCSD(T,E4T,FrzG4)/GTBas1
 -----------------------------------------------------------------

 Structure from the checkpoint file:  "G4.Frag_810.chk"
 --------
 Frag_810
 --------
 Charge =  0 Multiplicity = 1

 SCF Done:  E(RHF) =  -433.061111498     A.U. after   12 cycles
 E2 =    -0.1252193348D+01 EUMP2 =    -0.43431330484608D+03
 CCSD(T)
 CCSD(T)= -0.43440892683D+03
 96792\MP4SDQ=-434.3733893\CCSD=-434.3735653\CCSD(T)=-434.4089268\RMSD=
 Normal termination of Gaussian 09 at Fri Aug 26 15:28:28 2022.

 ---------------------------------------------------------
 #P Geom=AllCheck Guess=TCheck SCRF=Check MP4=FrzG4/GTBas2
 ---------------------------------------------------------

 Structure from the checkpoint file:  "G4.Frag_810.chk"
 --------
 Frag_810
 --------
 Charge =  0 Multiplicity = 1

 SCF Done:  E(RHF) =  -433.078314496     A.U. after   12 cycles
 E2 =    -0.1277335358D+01 EUMP2 =    -0.43435564985400D+03
 Normal termination of Gaussian 09 at Fri Aug 26 15:31:33 2022.

 ---------------------------------------------------------
 #P Geom=AllCheck Guess=TCheck SCRF=Check MP4=FrzG4/GTBas3
 ---------------------------------------------------------

 Structure from the checkpoint file:  "G4.Frag_810.chk"
 --------
 Frag_810
 --------
 Charge =  0 Multiplicity = 1

 SCF Done:  E(RHF) =  -433.126771260     A.U. after   11 cycles
 E2 =    -0.1544600270D+01 EUMP2 =    -0.43467137153040D+03
 Normal termination of Gaussian 09 at Fri Aug 26 15:56:31 2022.

 -----------------------------------------------------------
 #P Geom=AllCheck Guess=TCheck SCRF=Check MP2=Full/GTLargeXP
 -----------------------------------------------------------

 Structure from the checkpoint file:  "G4.Frag_810.chk"
 --------
 Frag_810
 --------
 Charge =  0 Multiplicity = 1

 SCF Done:  E(RHF) =  -433.245832041     A.U. after   12 cycles
 E2 =    -0.2009702096D+01 EUMP2 =    -0.43525553413702D+03
 Normal termination of Gaussian 09 at Fri Aug 26 16:02:56 2022.
 SCF Done:  E(RHF) =  -433.279607426     A.U. after    9 cycles
 Normal termination of Gaussian 09 at Fri Aug 26 16:09:21 2022.

                         Standard orientation:
 ---------------------------------------------------------------------
 Center     Atomic      Atomic             Coordinates (Angstroms)
 Number     Number       Type             X           Y           Z
 ---------------------------------------------------------------------
      1          6           0        1.454609    1.311845   -0.029589
      2          6           0        0.769095   -0.047707    0.058125
      3          7           0        1.135027   -0.709638    1.282184
      4          8           0        1.062403   -0.821115   -1.141394
      5          6           0       -0.785970    0.067170   -0.002582
      6          7           0       -1.318396   -1.295661    0.117467
      7          7           0       -1.261514    0.931005    1.051713
      8          8           0       -1.169275    0.700777   -1.209947
      9          1           0        1.147291    1.832526   -0.937386
     10          1           0        2.544658    1.181597   -0.045189
     11          1           0        1.187140    1.922555    0.832056
     12          1           0        0.690557   -1.620256    1.326718
     13          1           0        2.140251   -0.817643    1.363213
     14          1           0        2.000884   -0.731548   -1.333845
     15          1           0       -2.328672   -1.252330    0.014962
     16          1           0       -0.964165   -1.860367   -0.650964
     17          1           0       -1.172159    0.443339    1.935996
     18          1           0       -2.242151    1.139701    0.890724
     19          1           0       -0.660895    0.257341   -1.900828
 ---------------------------------------------------------------------

 SCF Done:  E(RHF) =  -433.287191758     A.U. after    8 cycles

 The electronic state is 1-A.
 Alpha  occ. eigenvalues --  -20.56586 -20.55025 -15.54276 -15.54009 -15.53433
 Alpha  occ. eigenvalues --  -11.33893 -11.31826 -11.21397  -1.39564  -1.35934
 Alpha  occ. eigenvalues --   -1.21267  -1.17076  -1.13054  -0.99421  -0.89011
 Alpha  occ. eigenvalues --   -0.78681  -0.72134  -0.70448  -0.66376  -0.65512
 Alpha  occ. eigenvalues --   -0.64285  -0.61907  -0.60638  -0.59016  -0.55441
 Alpha  occ. eigenvalues --   -0.54483  -0.53071  -0.51678  -0.47497  -0.46180
 Alpha  occ. eigenvalues --   -0.41487  -0.41259  -0.40191
 Alpha virt. eigenvalues --    0.03084   0.04301   0.04659   0.05101   0.06253
 Alpha virt. eigenvalues --    0.06862   0.07092   0.07578   0.08036   0.09788
 Alpha virt. eigenvalues --    0.10702   0.11222   0.12309   0.12410   0.12964

 Mulliken charges:
               1
     1  C   -0.575392
     2  C    0.465202
     3  N   -0.769194
     4  O   -0.645358
     5  C    0.528861
     6  N   -0.767369
     7  N   -0.758878
     8  O   -0.625156
     9  H    0.189461
    10  H    0.151282
    11  H    0.212826
    12  H    0.332023
    13  H    0.279542
    14  H    0.371781
    15  H    0.287764
    16  H    0.308565
    17  H    0.326703
    18  H    0.295790
    19  H    0.391547
 Sum of Mulliken charges =  -0.00000

 Dipole moment (field-independent basis, Debye):
    X=              1.5562    Y=             -1.5592    Z=             -0.6042  Tot=              2.2842
 Quadrupole moment (field-independent basis, Debye-Ang):
   XX=            -40.0188   YY=            -52.8945   ZZ=            -50.2362
   XY=              0.7733   XZ=             -2.7336   YZ=              0.7582

 Normal termination of Gaussian 09 at Fri Aug 26 16:28:07 2022.
