 Gaussian 09, Revision E.01,
 Gaussian 09:  ES64L-G09RevE.01 30-Nov-2015

 -----
 #P G4
 -----

 ---------
 Frag_1056
 ---------
 Symbolic Z-matrix:
 Charge =  0 Multiplicity = 1

 SCF Done:  E(RB3LYP) =  -301.561420594     A.U. after   13 cycles
 SCF Done:  E(RB3LYP) =  -301.574993072     A.U. after   12 cycles
 SCF Done:  E(RB3LYP) =  -301.577212747     A.U. after   11 cycles
 SCF Done:  E(RB3LYP) =  -301.578089414     A.U. after   11 cycles
 SCF Done:  E(RB3LYP) =  -301.578917621     A.U. after   11 cycles
 SCF Done:  E(RB3LYP) =  -301.581629695     A.U. after   14 cycles
 SCF Done:  E(RB3LYP) =  -301.582643161     A.U. after   13 cycles
 SCF Done:  E(RB3LYP) =  -301.583889383     A.U. after   12 cycles
 SCF Done:  E(RB3LYP) =  -301.584492798     A.U. after   11 cycles
 SCF Done:  E(RB3LYP) =  -301.584583209     A.U. after   10 cycles
 SCF Done:  E(RB3LYP) =  -301.584703817     A.U. after    7 cycles
 SCF Done:  E(RB3LYP) =  -301.584704172     A.U. after    7 cycles
 SCF Done:  E(RB3LYP) =  -301.584704246     A.U. after    6 cycles
 Optimization completed.
    -- Stationary point found.
 Normal termination of Gaussian 09 at Fri Aug 26 10:11:50 2022.

 ----------------------------------------------------------
 #P Geom=AllCheck Guess=TCheck SCRF=Check B3LYP/GTBas3 Freq
 ----------------------------------------------------------

 Structure from the checkpoint file:  "G4.Frag_1056.chk"
 ---------
 Frag_1056
 ---------
 Charge =  0 Multiplicity = 1

 SCF Done:  E(RB3LYP) =  -301.584704246     A.U. after    1 cycles

  Exact polarizability:  46.684  -1.896  34.531  -1.436  -1.210  30.237
 Approx polarizability:  62.612  -5.044  48.457  -2.330  -0.766  44.555

                      1                      2                      3
                      A                      A                      A
 Frequencies --    128.2194               201.1276               245.3011
 Red. masses --      2.4003                 1.2967                 1.1857
 Frc consts  --      0.0233                 0.0309                 0.0420
 IR Inten    --     11.9352                24.6352                74.7362

                      4                      5                      6
                      A                      A                      A
 Frequencies --    295.6401               307.7236               444.5205
 Red. masses --      1.1199                 5.2126                 2.7411
 Frc consts  --      0.0577                 0.2908                 0.3191
 IR Inten    --     61.4382                 1.3040                28.6777

                      7                      8                      9
                      A                      A                      A
 Frequencies --    528.1543               584.6526               684.4362
 Red. masses --      4.0829                 3.2729                 1.4993
 Frc consts  --      0.6710                 0.6591                 0.4138
 IR Inten    --     24.1138                 4.6935               170.6929

                     10                     11                     12
                      A                      A                      A
 Frequencies --    894.9052               922.3510               950.8732
 Red. masses --      1.5303                 2.7390                 5.7969
 Frc consts  --      0.7221                 1.3729                 3.0881
 IR Inten    --    107.6082                72.8849                17.2985

                     13                     14                     15
                      A                      A                      A
 Frequencies --   1031.8841              1142.7075              1233.7667
 Red. masses --      2.6194                 2.1938                 1.4700
 Frc consts  --      1.6433                 1.6878                 1.3184
 IR Inten    --     68.3693                43.2666                21.3937

                     16                     17                     18
                      A                      A                      A
 Frequencies --   1280.5911              1365.1726              1387.8285
 Red. masses --      1.5676                 1.1510                 1.2152
 Frc consts  --      1.5146                 1.2639                 1.3791
 IR Inten    --     27.3291                26.1430                60.2221

                     19                     20                     21
                      A                      A                      A
 Frequencies --   1441.2205              1640.6294              1645.1097
 Red. masses --      1.4755                 1.1074                 1.1146
 Frc consts  --      1.8058                 1.7563                 1.7772
 IR Inten    --     60.4548                31.7252                38.7435

                     22                     23                     24
                      A                      A                      A
 Frequencies --   2934.2552              3491.8538              3547.9971
 Red. masses --      1.0830                 1.0490                 1.0493
 Frc consts  --      5.4937                 7.5361                 7.7824
 IR Inten    --    100.4861                 2.9728                 7.2227

                     25                     26                     27
                      A                      A                      A
 Frequencies --   3572.9050              3654.6605              3753.2803
 Red. masses --      1.0914                 1.0949                 1.0686
 Frc consts  --      8.2085                 8.6159                 8.8697
 IR Inten    --      3.9235                12.4934                29.2924

 - Thermochemistry -
 -------------------
 Temperature   298.150 Kelvin.  Pressure   1.00000 Atm.
 Atom     1 has atomic number  7 and mass  14.00307

 Molecular mass:    78.04293 amu.
 Principal axes and moments of inertia in atomic units:
                           1         2         3
     Eigenvalues --   202.16441 453.85350 603.97315
           X            0.99998   0.00258  -0.00571
           Y           -0.00262   0.99996  -0.00825
           Z            0.00569   0.00827   0.99995
 This molecule is an asymmetric top.
 Rotational symmetry number  1.
 Rotational temperatures (Kelvin)      0.42843     0.19084     0.14341
 Rotational constants (GHZ):           8.92710     3.97648     2.98811
 Zero-point vibrational energy     235136.6 (Joules/Mol)
                                   56.19899 (Kcal/Mol)
 Warning -- explicit consideration of   8 degrees of freedom as
           vibrations may cause significant error
 Vibrational temperatures:    184.48   289.38   352.93   425.36   442.75
          (Kelvin)            639.57   759.90   841.18   984.75  1287.57
                             1327.06  1368.09  1484.65  1644.10  1775.11
                             1842.48  1964.18  1996.77  2073.59  2360.50
                             2366.94  4221.73  5023.99  5104.77  5140.61
                             5258.23  5400.13

 Zero-point correction=                           0.089559 (Hartree/Particle)
 Thermal correction to Energy=                    0.095980
 Thermal correction to Enthalpy=                  0.096924
 Thermal correction to Gibbs Free Energy=         0.060324
 Sum of electronic and zero-point Energies=           -301.495145
 Sum of electronic and thermal Energies=              -301.488725
 Sum of electronic and thermal Enthalpies=            -301.487781
 Sum of electronic and thermal Free Energies=         -301.524381

                     E (Thermal)             CV                S
                      KCal/Mol        Cal/Mol-Kelvin    Cal/Mol-Kelvin
 Total                   60.228             22.075             77.032
 Electronic               0.000              0.000              0.000
 Translational            0.889              2.981             38.979
 Rotational               0.889              2.981             25.519
 Vibrational             58.451             16.113             12.533
 Vibration     1          0.611              1.925              2.973
 Vibration     2          0.638              1.838              2.123
 Vibration     3          0.660              1.771              1.764
 Vibration     4          0.690              1.682              1.441
 Vibration     5          0.698              1.659              1.375
 Vibration     6          0.804              1.373              0.813
 Vibration     7          0.883              1.188              0.591
 Vibration     8          0.942              1.065              0.477

 Optimization completed.
    -- Stationary point found.
 Normal termination of Gaussian 09 at Fri Aug 26 10:12:09 2022.

 -----------------------------------------------------------------
 #P Geom=AllCheck Guess=TCheck SCRF=Check CCSD(T,E4T,FrzG4)/GTBas1
 -----------------------------------------------------------------

 Structure from the checkpoint file:  "G4.Frag_1056.chk"
 ---------
 Frag_1056
 ---------
 Charge =  0 Multiplicity = 1

 SCF Done:  E(RHF) =  -299.850695382     A.U. after   13 cycles
 E2 =    -0.8235605929D+00 EUMP2 =    -0.30067425597441D+03
 CCSD(T)
 CCSD(T)= -0.30073317411D+03
 0.7331507\MP4SDQ=-300.7101085\CCSD=-300.7104893\CCSD(T)=-300.7331741\R
 Normal termination of Gaussian 09 at Fri Aug 26 10:13:09 2022.

 ---------------------------------------------------------
 #P Geom=AllCheck Guess=TCheck SCRF=Check MP4=FrzG4/GTBas2
 ---------------------------------------------------------

 Structure from the checkpoint file:  "G4.Frag_1056.chk"
 ---------
 Frag_1056
 ---------
 Charge =  0 Multiplicity = 1

 SCF Done:  E(RHF) =  -299.863496529     A.U. after   12 cycles
 E2 =    -0.8405457342D+00 EUMP2 =    -0.30070404226286D+03
 Normal termination of Gaussian 09 at Fri Aug 26 10:13:25 2022.

 ---------------------------------------------------------
 #P Geom=AllCheck Guess=TCheck SCRF=Check MP4=FrzG4/GTBas3
 ---------------------------------------------------------

 Structure from the checkpoint file:  "G4.Frag_1056.chk"
 ---------
 Frag_1056
 ---------
 Charge =  0 Multiplicity = 1

 SCF Done:  E(RHF) =  -299.894184669     A.U. after   12 cycles
 E2 =    -0.1014149557D+01 EUMP2 =    -0.30090833422554D+03
 Normal termination of Gaussian 09 at Fri Aug 26 10:14:49 2022.

 -----------------------------------------------------------
 #P Geom=AllCheck Guess=TCheck SCRF=Check MP2=Full/GTLargeXP
 -----------------------------------------------------------

 Structure from the checkpoint file:  "G4.Frag_1056.chk"
 ---------
 Frag_1056
 ---------
 Charge =  0 Multiplicity = 1

 SCF Done:  E(RHF) =  -299.982124434     A.U. after   13 cycles
 E2 =    -0.1314264328D+01 EUMP2 =    -0.30129638876205D+03
 Normal termination of Gaussian 09 at Fri Aug 26 10:15:38 2022.
 SCF Done:  E(RHF) =  -300.007511494     A.U. after    9 cycles
 Normal termination of Gaussian 09 at Fri Aug 26 10:16:33 2022.

                         Standard orientation:
 ---------------------------------------------------------------------
 Center     Atomic      Atomic             Coordinates (Angstroms)
 Number     Number       Type             X           Y           Z
 ---------------------------------------------------------------------
      1          7           0        1.599337   -0.757585   -0.052019
      2          6           0        0.433323   -0.017155    0.306634
      3          7           0        0.480814    1.348185   -0.186524
      4          8           0       -0.649885   -0.695418   -0.345064
      5          8           0       -1.869235   -0.016818    0.043366
      6          1           0        2.077191   -0.312596   -0.825921
      7          1           0        2.229583   -0.907586    0.721711
      8          1           0        0.262164   -0.102925    1.394727
      9          1           0       -0.443287    1.761075   -0.094157
     10          1           0        1.112993    1.893731    0.392682
     11          1           0       -2.246685   -0.665084    0.654542
 ---------------------------------------------------------------------

 SCF Done:  E(RHF) =  -300.012997344     A.U. after    8 cycles

 The electronic state is 1-A.
 Alpha  occ. eigenvalues --  -20.62084 -20.61779 -15.55032 -15.54878 -11.34747
 Alpha  occ. eigenvalues --   -1.47647  -1.26990  -1.17349  -1.14141  -0.85244
 Alpha  occ. eigenvalues --   -0.73033  -0.71776  -0.68592  -0.64746  -0.61813
 Alpha  occ. eigenvalues --   -0.59068  -0.55676  -0.49515  -0.47301  -0.43081
 Alpha  occ. eigenvalues --   -0.40688
 Alpha virt. eigenvalues --    0.03664   0.04740   0.05228   0.06073   0.09133
 Alpha virt. eigenvalues --    0.09700   0.10175   0.10737   0.11395   0.12727
 Alpha virt. eigenvalues --    0.13498   0.14861   0.15165   0.16985   0.17617

 Mulliken charges:
               1
     1  N   -0.719686
     2  C    0.286846
     3  N   -0.691585
     4  O   -0.179394
     5  O   -0.441011
     6  H    0.319670
     7  H    0.307655
     8  H    0.122188
     9  H    0.319164
    10  H    0.285168
    11  H    0.390985
 Sum of Mulliken charges =   0.00000

 Dipole moment (field-independent basis, Debye):
    X=              1.0637    Y=              0.9224    Z=              3.4258  Tot=              3.7038
 Quadrupole moment (field-independent basis, Debye-Ang):
   XX=            -24.4462   YY=            -31.1703   ZZ=            -29.7570
   XY=              2.2121   XZ=             -1.2087   YZ=             -0.4524

 Normal termination of Gaussian 09 at Fri Aug 26 10:21:46 2022.
