 Gaussian 09, Revision E.01,
 Gaussian 09:  ES64L-G09RevE.01 30-Nov-2015

 -----
 #P G4
 -----

 --------
 Frag_614
 --------
 Symbolic Z-matrix:
 Charge =  0 Multiplicity = 1

 SCF Done:  E(RB3LYP) =  -328.358812991     A.U. after   12 cycles
 SCF Done:  E(RB3LYP) =  -328.364043799     A.U. after   11 cycles
 SCF Done:  E(RB3LYP) =  -328.364525531     A.U. after   10 cycles
 SCF Done:  E(RB3LYP) =  -328.364801823     A.U. after   11 cycles
 SCF Done:  E(RB3LYP) =  -328.364978933     A.U. after   10 cycles
 SCF Done:  E(RB3LYP) =  -328.365104849     A.U. after   10 cycles
 SCF Done:  E(RB3LYP) =  -328.365179217     A.U. after   10 cycles
 SCF Done:  E(RB3LYP) =  -328.365216520     A.U. after    9 cycles
 SCF Done:  E(RB3LYP) =  -328.365231758     A.U. after    9 cycles
 SCF Done:  E(RB3LYP) =  -328.365232436     A.U. after    7 cycles
 SCF Done:  E(RB3LYP) =  -328.365232745     A.U. after    6 cycles
 Optimization completed.
    -- Stationary point found.
 Normal termination of Gaussian 09 at Tue Aug 23 06:08:54 2022.

 ----------------------------------------------------------
 #P Geom=AllCheck Guess=TCheck SCRF=Check B3LYP/GTBas3 Freq
 ----------------------------------------------------------

 Structure from the checkpoint file:  "G4.Frag_614.chk"
 --------
 Frag_614
 --------
 Charge =  0 Multiplicity = 1

 SCF Done:  E(RB3LYP) =  -328.365232745     A.U. after    1 cycles

  Exact polarizability:  69.030  -1.833  66.978   0.006  -1.044  63.833
 Approx polarizability:  93.279  -1.441  94.535   0.207  -1.503  92.021

                      1                      2                      3
                      A                      A                      A
 Frequencies --     95.5594               208.0925               231.1835
 Red. masses --      3.3096                 1.0698                 1.1556
 Frc consts  --      0.0178                 0.0273                 0.0364
 IR Inten    --      0.6094                 2.9786                 4.2132

                      4                      5                      6
                      A                      A                      A
 Frequencies --    243.3298               261.1269               273.4909
 Red. masses --      1.3379                 1.5596                 1.8135
 Frc consts  --      0.0467                 0.0627                 0.0799
 IR Inten    --      1.5361                 9.5532                 0.7437

                      7                      8                      9
                      A                      A                      A
 Frequencies --    302.2286               333.9273               349.3862
 Red. masses --      1.4352                 1.3759                 2.4186
 Frc consts  --      0.0772                 0.0904                 0.1740
 IR Inten    --      4.7366                96.7237                 0.4044

                     10                     11                     12
                      A                      A                      A
 Frequencies --    369.8553               384.8943               472.3501
 Red. masses --      1.6401                 2.1717                 2.4040
 Frc consts  --      0.1322                 0.1896                 0.3160
 IR Inten    --     35.1622                11.1880                27.2250

                     13                     14                     15
                      A                      A                      A
 Frequencies --    489.0684               584.9856               739.9745
 Red. masses --      3.1607                 2.9286                 3.0549
 Frc consts  --      0.4454                 0.5905                 0.9855
 IR Inten    --      1.3801                21.1406                 3.8876

                     16                     17                     18
                      A                      A                      A
 Frequencies --    868.4186               887.7953               938.5124
 Red. masses --      2.2225                 1.8507                 1.6903
 Frc consts  --      0.9875                 0.8594                 0.8772
 IR Inten    --      4.0753                89.1769                 0.8625

                     19                     20                     21
                      A                      A                      A
 Frequencies --    939.4089               958.8253              1009.9196
 Red. masses --      1.6242                 1.2106                 2.6381
 Frc consts  --      0.8445                 0.6557                 1.5853
 IR Inten    --      2.0655                 0.2152                88.1219

                     22                     23                     24
                      A                      A                      A
 Frequencies --   1029.5366              1060.3479              1094.4486
 Red. masses --      1.3706                 1.9215                 1.7203
 Frc consts  --      0.8559                 1.2729                 1.2141
 IR Inten    --      1.9133                54.3663                26.0871

                     25                     26                     27
                      A                      A                      A
 Frequencies --   1157.9601              1238.4620              1247.4732
 Red. masses --      1.2488                 2.0623                 2.6207
 Frc consts  --      0.9866                 1.8636                 2.4028
 IR Inten    --     14.9075                35.7735                 8.2023

                     28                     29                     30
                      A                      A                      A
 Frequencies --   1287.1989              1325.0237              1378.7723
 Red. masses --      2.3513                 1.6731                 1.2373
 Frc consts  --      2.2953                 1.7307                 1.3858
 IR Inten    --     10.2272                36.8080                 3.1086

                     31                     32                     33
                      A                      A                      A
 Frequencies --   1391.4072              1394.7195              1420.1050
 Red. masses --      1.2576                 1.2514                 1.2486
 Frc consts  --      1.4345                 1.4343                 1.4836
 IR Inten    --      7.9755                 4.5545                 1.2009

                     34                     35                     36
                      A                      A                      A
 Frequencies --   1444.2924              1479.0804              1490.5180
 Red. masses --      1.3945                 1.0506                 1.0492
 Frc consts  --      1.7139                 1.3541                 1.3734
 IR Inten    --     31.0094                 0.3999                 0.5976

                     37                     38                     39
                      A                      A                      A
 Frequencies --   1494.1955              1501.8325              1509.9142
 Red. masses --      1.0460                 1.0546                 1.0563
 Frc consts  --      1.3759                 1.4015                 1.4189
 IR Inten    --      0.1406                 2.3217                 4.5021

                     40                     41                     42
                      A                      A                      A
 Frequencies --   1525.2522              1670.3093              2972.1693
 Red. masses --      1.0651                 1.0923                 1.0840
 Frc consts  --      1.4599                 1.7954                 5.6420
 IR Inten    --     14.9547                27.9249                51.2017

                     43                     44                     45
                      A                      A                      A
 Frequencies --   3018.5560              3028.9349              3035.4311
 Red. masses --      1.0368                 1.0370                 1.0363
 Frc consts  --      5.5661                 5.6056                 5.6257
 IR Inten    --     27.1076                37.3378                 9.2826

                     46                     47                     48
                      A                      A                      A
 Frequencies --   3084.2520              3089.3229              3094.9995
 Red. masses --      1.0999                 1.1003                 1.1007
 Frc consts  --      6.1647                 6.1872                 6.2120
 IR Inten    --      9.3889                44.5102                15.9825

                     49                     50                     51
                      A                      A                      A
 Frequencies --   3098.5177              3113.1537              3130.8456
 Red. masses --      1.1002                 1.1016                 1.0985
 Frc consts  --      6.2235                 6.2902                 6.3441
 IR Inten    --     42.2811                23.2433                17.7760

                     52                     53                     54
                      A                      A                      A
 Frequencies --   3497.8181              3569.9904              3815.9013
 Red. masses --      1.0490                 1.0913                 1.0654
 Frc consts  --      7.5616                 8.1943                 9.1401
 IR Inten    --      0.1854                 1.4850                 7.9311

 - Thermochemistry -
 -------------------
 Temperature   298.150 Kelvin.  Pressure   1.00000 Atm.
 Atom     1 has atomic number  6 and mass  12.00000

 Molecular mass:   103.09971 amu.
 Principal axes and moments of inertia in atomic units:
                           1         2         3
     Eigenvalues --   578.08274 802.15927 957.16167
           X            0.99932  -0.03671   0.00334
           Y            0.03679   0.99892  -0.02835
           Z           -0.00230   0.02846   0.99959
 This molecule is an asymmetric top.
 Rotational symmetry number  1.
 Warning -- assumption of classical behavior for rotation
           may cause significant error
 Rotational temperatures (Kelvin)      0.14983     0.10798     0.09049
 Rotational constants (GHZ):           3.12194     2.24985     1.88551
 Zero-point vibrational energy     476311.6 (Joules/Mol)
                                  113.84120 (Kcal/Mol)
 Warning -- explicit consideration of  14 degrees of freedom as
           vibrations may cause significant error
 Vibrational temperatures:    137.49   299.40   332.62   350.10   375.70
          (Kelvin)            393.49   434.84   480.45   502.69   532.14
                              553.78   679.61   703.66   841.66  1064.66
                             1249.46  1277.34  1350.31  1351.60  1379.53
                             1453.05  1481.27  1525.60  1574.67  1666.04
                             1781.87  1794.83  1851.99  1906.41  1983.74
                             2001.92  2006.69  2043.21  2078.01  2128.06
                             2144.52  2149.81  2160.80  2172.43  2194.49
                             2403.20  4276.28  4343.02  4357.96  4367.30
                             4437.55  4444.84  4453.01  4458.07  4479.13
                             4504.58  5032.57  5136.41  5490.22

 Zero-point correction=                           0.181417 (Hartree/Particle)
 Thermal correction to Energy=                    0.190558
 Thermal correction to Enthalpy=                  0.191502
 Thermal correction to Gibbs Free Energy=         0.149098
 Sum of electronic and zero-point Energies=           -328.183815
 Sum of electronic and thermal Energies=              -328.174675
 Sum of electronic and thermal Enthalpies=            -328.173731
 Sum of electronic and thermal Free Energies=         -328.216134

                     E (Thermal)             CV                S
                      KCal/Mol        Cal/Mol-Kelvin    Cal/Mol-Kelvin
 Total                  119.577             34.661             89.246
 Electronic               0.000              0.000              0.000
 Translational            0.889              2.981             39.809
 Rotational               0.889              2.981             27.587
 Vibrational            117.799             28.699             21.850
 Vibration     1          0.603              1.952              3.543
 Vibration     2          0.641              1.828              2.060
 Vibration     3          0.653              1.793              1.870
 Vibration     4          0.659              1.774              1.778
 Vibration     5          0.669              1.744              1.654
 Vibration     6          0.676              1.722              1.574
 Vibration     7          0.694              1.669              1.405
 Vibration     8          0.715              1.608              1.241
 Vibration     9          0.727              1.577              1.169
 Vibration    10          0.742              1.534              1.080
 Vibration    11          0.754              1.502              1.020
 Vibration    12          0.829              1.311              0.731
 Vibration    13          0.845              1.274              0.686
 Vibration    14          0.942              1.064              0.476

 Optimization completed.
    -- Stationary point found.
 Normal termination of Gaussian 09 at Tue Aug 23 06:17:34 2022.

 -----------------------------------------------------------------
 #P Geom=AllCheck Guess=TCheck SCRF=Check CCSD(T,E4T,FrzG4)/GTBas1
 -----------------------------------------------------------------

 Structure from the checkpoint file:  "G4.Frag_614.chk"
 --------
 Frag_614
 --------
 Charge =  0 Multiplicity = 1

 SCF Done:  E(RHF) =  -326.208786779     A.U. after   11 cycles
 E2 =    -0.1009299743D+01 EUMP2 =    -0.32721808652166D+03
 CCSD(T)
 CCSD(T)= -0.32732030931D+03
 -327.2897625\CCSD(T)=-327.3203093\RMSD=9.101e-09\PG=C01 [X(C5H13N1O1)]
 Normal termination of Gaussian 09 at Tue Aug 23 06:39:38 2022.

 ---------------------------------------------------------
 #P Geom=AllCheck Guess=TCheck SCRF=Check MP4=FrzG4/GTBas2
 ---------------------------------------------------------

 Structure from the checkpoint file:  "G4.Frag_614.chk"
 --------
 Frag_614
 --------
 Charge =  0 Multiplicity = 1

 SCF Done:  E(RHF) =  -326.217421652     A.U. after   11 cycles
 E2 =    -0.1024989013D+01 EUMP2 =    -0.32724241066437D+03
 Normal termination of Gaussian 09 at Tue Aug 23 07:08:02 2022.

 ---------------------------------------------------------
 #P Geom=AllCheck Guess=TCheck SCRF=Check MP4=FrzG4/GTBas3
 ---------------------------------------------------------

 Structure from the checkpoint file:  "G4.Frag_614.chk"
 --------
 Frag_614
 --------
 Charge =  0 Multiplicity = 1

 SCF Done:  E(RHF) =  -326.255315536     A.U. after   10 cycles
 E2 =    -0.1259302802D+01 EUMP2 =    -0.32751461833736D+03
 Normal termination of Gaussian 09 at Tue Aug 23 14:01:13 2022.

 -----------------------------------------------------------
 #P Geom=AllCheck Guess=TCheck SCRF=Check MP2=Full/GTLargeXP
 -----------------------------------------------------------

 Structure from the checkpoint file:  "G4.Frag_614.chk"
 --------
 Frag_614
 --------
 Charge =  0 Multiplicity = 1

 SCF Done:  E(RHF) =  -326.334495954     A.U. after   11 cycles
 E2 =    -0.1648024543D+01 EUMP2 =    -0.32798252049661D+03
 Normal termination of Gaussian 09 at Tue Aug 23 14:18:11 2022.
 SCF Done:  E(RHF) =  -326.360526687     A.U. after    8 cycles
 Normal termination of Gaussian 09 at Tue Aug 23 14:30:30 2022.

                         Standard orientation:
 ---------------------------------------------------------------------
 Center     Atomic      Atomic             Coordinates (Angstroms)
 Number     Number       Type             X           Y           Z
 ---------------------------------------------------------------------
      1          6           0       -1.306686   -1.222562   -0.689644
      2          6           0       -0.620310   -0.033532    0.004812
      3          6           0       -1.331123    1.269320   -0.408287
      4          6           0       -0.697590   -0.190847    1.533820
      5          6           0        0.862028    0.032863   -0.460039
      6          7           0        1.598343   -1.143481   -0.074963
      7          8           0        1.537703    1.189044    0.055933
      8          1           0       -0.796019   -2.158324   -0.453605
      9          1           0       -1.298604   -1.102142   -1.779339
     10          1           0       -2.352390   -1.302037   -0.373415
     11          1           0       -0.944197    2.136960    0.136721
     12          1           0       -2.402347    1.205806   -0.191477
     13          1           0       -1.225916    1.460207   -1.483493
     14          1           0       -0.102834    0.580110    2.032473
     15          1           0       -0.335352   -1.172367    1.855868
     16          1           0       -1.733345   -0.099991    1.876956
     17          1           0        0.868174    0.074889   -1.561132
     18          1           0        1.709743   -1.151987    0.935196
     19          1           0        2.536372   -1.085309   -0.459637
     20          1           0        1.148773    1.974751   -0.341812
 ---------------------------------------------------------------------

 SCF Done:  E(RHF) =  -326.366174155     A.U. after    8 cycles

 The electronic state is 1-A.
 Alpha  occ. eigenvalues --  -20.55132 -15.53824 -11.30380 -11.23511 -11.21777
 Alpha  occ. eigenvalues --  -11.20891 -11.20618  -1.36367  -1.17687  -1.08649
 Alpha  occ. eigenvalues --   -0.93314  -0.92864  -0.88052  -0.74431  -0.70526
 Alpha  occ. eigenvalues --   -0.66910  -0.63059  -0.60489  -0.58882  -0.57908
 Alpha  occ. eigenvalues --   -0.54124  -0.53324  -0.52470  -0.51322  -0.49879
 Alpha  occ. eigenvalues --   -0.46260  -0.45914  -0.42471  -0.41669
 Alpha virt. eigenvalues --    0.03066   0.04071   0.04343   0.04383   0.06395
 Alpha virt. eigenvalues --    0.06673   0.06788   0.07216   0.07677   0.09489
 Alpha virt. eigenvalues --    0.09797   0.09959   0.10100   0.12284   0.12314

 Mulliken charges:
               1
     1  C   -0.599764
     2  C    0.444133
     3  C   -0.639750
     4  C   -0.641437
     5  C    0.114373
     6  N   -0.713660
     7  O   -0.599456
     8  H    0.198362
     9  H    0.155133
    10  H    0.161847
    11  H    0.163719
    12  H    0.174220
    13  H    0.170959
    14  H    0.195019
    15  H    0.167711
    16  H    0.169475
    17  H    0.137965
    18  H    0.289251
    19  H    0.286031
    20  H    0.365870
 Sum of Mulliken charges =  -0.00000

 Dipole moment (field-independent basis, Debye):
    X=             -0.6290    Y=              0.8554    Z=             -0.5337  Tot=              1.1883
 Quadrupole moment (field-independent basis, Debye-Ang):
   XX=            -46.4999   YY=            -47.1095   ZZ=            -45.0949
   XY=             -1.6912   XZ=             -1.0432   YZ=             -2.7522

 Normal termination of Gaussian 09 at Tue Aug 23 20:30:36 2022.
