 Gaussian 09, Revision E.01,
 Gaussian 09:  ES64L-G09RevE.01 30-Nov-2015

 -----
 #P G4
 -----

 ---------
 Frag_1113
 ---------
 Symbolic Z-matrix:
 Charge =  0 Multiplicity = 1

 SCF Done:  E(RB3LYP) =  -265.746812015     A.U. after   12 cycles
 SCF Done:  E(RB3LYP) =  -265.752161811     A.U. after   11 cycles
 SCF Done:  E(RB3LYP) =  -265.752715886     A.U. after   10 cycles
 SCF Done:  E(RB3LYP) =  -265.753298050     A.U. after   11 cycles
 SCF Done:  E(RB3LYP) =  -265.753602347     A.U. after   10 cycles
 SCF Done:  E(RB3LYP) =  -265.753950506     A.U. after   11 cycles
 SCF Done:  E(RB3LYP) =  -265.754134672     A.U. after   10 cycles
 SCF Done:  E(RB3LYP) =  -265.754428394     A.U. after   11 cycles
 SCF Done:  E(RB3LYP) =  -265.739362197     A.U. after   13 cycles
 SCF Done:  E(RB3LYP) =  -265.754649805     A.U. after   12 cycles
 SCF Done:  E(RB3LYP) =  -265.759291189     A.U. after    9 cycles
 SCF Done:  E(RB3LYP) =  -265.759299061     A.U. after    8 cycles
 SCF Done:  E(RB3LYP) =  -265.759300323     A.U. after    7 cycles
 Optimization completed.
    -- Stationary point found.
 Normal termination of Gaussian 09 at Mon Aug 22 23:08:35 2022.

 ----------------------------------------------------------
 #P Geom=AllCheck Guess=TCheck SCRF=Check B3LYP/GTBas3 Freq
 ----------------------------------------------------------

 Structure from the checkpoint file:  "G4.Frag_1113.chk"
 ---------
 Frag_1113
 ---------
 Charge =  0 Multiplicity = 1

 SCF Done:  E(RB3LYP) =  -265.759300323     A.U. after    1 cycles

  Exact polarizability:  46.027   0.779  41.828   0.553   0.714  38.580
 Approx polarizability:  59.561   2.408  56.507   0.351   0.225  57.171

                      1                      2                      3
                      A                      A                      A
 Frequencies --    148.3857               255.8946               280.7599
 Red. masses --      2.5425                 1.8267                 1.2942
 Frc consts  --      0.0330                 0.0705                 0.0601
 IR Inten    --      4.8961                 6.2499                35.3883

                      4                      5                      6
                      A                      A                      A
 Frequencies --    296.4490               351.7570               420.5699
 Red. masses --      1.3256                 1.1688                 2.3996
 Frc consts  --      0.0686                 0.0852                 0.2501
 IR Inten    --     14.1171               100.6663                44.6496

                      7                      8                      9
                      A                      A                      A
 Frequencies --    488.5662               530.4166               854.3127
 Red. masses --      2.3062                 2.9814                 2.1272
 Frc consts  --      0.3243                 0.4942                 0.9147
 IR Inten    --     36.2647                15.9176                61.0712

                     10                     11                     12
                      A                      A                      A
 Frequencies --    887.0958               892.8324               961.1100
 Red. masses --      1.7099                 1.5656                 1.4806
 Frc consts  --      0.7928                 0.7353                 0.8058
 IR Inten    --    164.8016                47.0682                29.8009

                     13                     14                     15
                      A                      A                      A
 Frequencies --   1073.4937              1080.7476              1109.8445
 Red. masses --      2.1081                 2.9407                 2.1843
 Frc consts  --      1.4313                 2.0237                 1.5852
 IR Inten    --     28.5078                39.1869                67.1310

                     16                     17                     18
                      A                      A                      A
 Frequencies --   1137.5722              1246.2062              1287.1381
 Red. masses --      1.1488                 1.6482                 1.2149
 Frc consts  --      0.8759                 1.5081                 1.1858
 IR Inten    --      4.7643                18.1715                 3.9075

                     19                     20                     21
                      A                      A                      A
 Frequencies --   1362.8750              1377.2107              1411.5869
 Red. masses --      1.3085                 1.2864                 1.2021
 Frc consts  --      1.4320                 1.4376                 1.4113
 IR Inten    --     12.7892                14.9159                40.4250

                     22                     23                     24
                      A                      A                      A
 Frequencies --   1454.3361              1492.3032              1643.5248
 Red. masses --      1.6041                 1.0869                 1.0957
 Frc consts  --      1.9990                 1.4262                 1.7438
 IR Inten    --      7.5054                 1.3208                38.2845

                     25                     26                     27
                      A                      A                      A
 Frequencies --   1666.9681              2924.2659              3028.9325
 Red. masses --      1.0939                 1.0818                 1.0593
 Frc consts  --      1.7909                 5.4505                 5.7262
 IR Inten    --     20.2825                80.0174                39.5251

                     28                     29                     30
                      A                      A                      A
 Frequencies --   3085.7538              3477.8718              3481.6192
 Red. masses --      1.1058                 1.0495                 1.0489
 Frc consts  --      6.2035                 7.4793                 7.4911
 IR Inten    --     32.3824                 2.9269                 2.3291

                     31                     32                     33
                      A                      A                      A
 Frequencies --   3558.2810              3563.7148              3814.2824
 Red. masses --      1.0908                 1.0924                 1.0662
 Frc consts  --      8.1369                 8.1738                 9.1390
 IR Inten    --      0.7505                 1.8344                18.3953

 - Thermochemistry -
 -------------------
 Temperature   298.150 Kelvin.  Pressure   1.00000 Atm.
 Atom     1 has atomic number  7 and mass  14.00307

 Molecular mass:    76.06366 amu.
 Principal axes and moments of inertia in atomic units:
                           1         2         3
     Eigenvalues --   215.93442 496.96603 649.44826
           X            0.99986  -0.01552   0.00634
           Y            0.01532   0.99942   0.03033
           Z           -0.00681  -0.03023   0.99952
 This molecule is an asymmetric top.
 Rotational symmetry number  1.
 Rotational temperatures (Kelvin)      0.40111     0.17429     0.13337
 Rotational constants (GHZ):           8.35782     3.63152     2.77888
 Zero-point vibrational energy     302934.4 (Joules/Mol)
                                   72.40306 (Kcal/Mol)
 Warning -- explicit consideration of   8 degrees of freedom as
           vibrations may cause significant error
 Vibrational temperatures:    213.49   368.17   403.95   426.52   506.10
          (Kelvin)            605.11   702.94   763.15  1229.16  1276.33
                             1284.59  1382.82  1544.52  1554.95  1596.82
                             1636.71  1793.01  1851.90  1960.87  1981.50
                             2030.96  2092.46  2147.09  2364.66  2398.39
                             4207.36  4357.95  4439.71  5003.88  5009.27
                             5119.57  5127.38  5487.89

 Zero-point correction=                           0.115382 (Hartree/Particle)
 Thermal correction to Energy=                    0.121677
 Thermal correction to Enthalpy=                  0.122622
 Thermal correction to Gibbs Free Energy=         0.086370
 Sum of electronic and zero-point Energies=           -265.643919
 Sum of electronic and thermal Energies=              -265.637623
 Sum of electronic and thermal Enthalpies=            -265.636679
 Sum of electronic and thermal Free Energies=         -265.672930

                     E (Thermal)             CV                S
                      KCal/Mol        Cal/Mol-Kelvin    Cal/Mol-Kelvin
 Total                   76.354             22.519             76.297
 Electronic               0.000              0.000              0.000
 Translational            0.889              2.981             38.903
 Rotational               0.889              2.981             25.747
 Vibrational             74.576             16.557             11.647
 Vibration     1          0.618              1.904              2.693
 Vibration     2          0.666              1.753              1.690
 Vibration     3          0.680              1.709              1.529
 Vibration     4          0.690              1.680              1.437
 Vibration     5          0.728              1.572              1.158
 Vibration     6          0.783              1.426              0.890
 Vibration     7          0.844              1.275              0.687
 Vibration     8          0.885              1.183              0.586

 Normal termination of Gaussian 09 at Mon Aug 22 23:10:15 2022.

 -----------------------------------------------------------------
 #P Geom=AllCheck Guess=TCheck SCRF=Check CCSD(T,E4T,FrzG4)/GTBas1
 -----------------------------------------------------------------

 Structure from the checkpoint file:  "G4.Frag_1113.chk"
 ---------
 Frag_1113
 ---------
 Charge =  0 Multiplicity = 1

 SCF Done:  E(RHF) =  -264.122872819     A.U. after   12 cycles
 E2 =    -0.7695930047D+00 EUMP2 =    -0.26489246582335D+03
 CCSD(T)
 CCSD(T)= -0.26495864128D+03
 MP4SDTQ=-264.9577446\MP4SDQ=-264.9376018\CCSD=-264.9383737\CCSD(T)=-26
 Normal termination of Gaussian 09 at Mon Aug 22 23:12:47 2022.

 ---------------------------------------------------------
 #P Geom=AllCheck Guess=TCheck SCRF=Check MP4=FrzG4/GTBas2
 ---------------------------------------------------------

 Structure from the checkpoint file:  "G4.Frag_1113.chk"
 ---------
 Frag_1113
 ---------
 Charge =  0 Multiplicity = 1

 SCF Done:  E(RHF) =  -264.134670037     A.U. after   11 cycles
 E2 =    -0.7845267490D+00 EUMP2 =    -0.26491919678640D+03
 Normal termination of Gaussian 09 at Mon Aug 22 23:16:21 2022.

 ---------------------------------------------------------
 #P Geom=AllCheck Guess=TCheck SCRF=Check MP4=FrzG4/GTBas3
 ---------------------------------------------------------

 Structure from the checkpoint file:  "G4.Frag_1113.chk"
 ---------
 Frag_1113
 ---------
 Charge =  0 Multiplicity = 1

 SCF Done:  E(RHF) =  -264.164555152     A.U. after   11 cycles
 E2 =    -0.9540758779D+00 EUMP2 =    -0.26511863102962D+03
 Normal termination of Gaussian 09 at Tue Aug 23 00:10:49 2022.

 -----------------------------------------------------------
 #P Geom=AllCheck Guess=TCheck SCRF=Check MP2=Full/GTLargeXP
 -----------------------------------------------------------

 Structure from the checkpoint file:  "G4.Frag_1113.chk"
 ---------
 Frag_1113
 ---------
 Charge =  0 Multiplicity = 1

 SCF Done:  E(RHF) =  -264.238928935     A.U. after   12 cycles
 E2 =    -0.1243382393D+01 EUMP2 =    -0.26548231132762D+03
 Normal termination of Gaussian 09 at Tue Aug 23 00:13:51 2022.
 SCF Done:  E(RHF) =  -264.260086351     A.U. after    8 cycles
 Normal termination of Gaussian 09 at Tue Aug 23 00:17:14 2022.

                         Standard orientation:
 ---------------------------------------------------------------------
 Center     Atomic      Atomic             Coordinates (Angstroms)
 Number     Number       Type             X           Y           Z
 ---------------------------------------------------------------------
      1          7           0       -0.528731    1.356503   -0.240107
      2          6           0       -0.485410    0.007058    0.327223
      3          7           0       -1.662767   -0.789373    0.007152
      4          6           0        0.751773   -0.701862   -0.235580
      5          8           0        1.953328    0.014200    0.024061
      6          1           0        0.407124    1.753675   -0.200017
      7          1           0       -1.134843    1.958288    0.309268
      8          1           0       -0.401090    0.003527    1.429852
      9          1           0       -1.886096   -0.635515   -0.974045
     10          1           0       -2.464263   -0.448917    0.529720
     11          1           0        0.786048   -1.726016    0.155623
     12          1           0        0.664679   -0.754680   -1.326403
     13          1           0        2.144122   -0.065044    0.964344
 ---------------------------------------------------------------------

 SCF Done:  E(RHF) =  -264.264844002     A.U. after    8 cycles

 The electronic state is 1-A.
 Alpha  occ. eigenvalues --  -20.56197 -15.54264 -15.53863 -11.28468 -11.27227
 Alpha  occ. eigenvalues --   -1.36667  -1.22268  -1.12619  -0.95883  -0.81600
 Alpha  occ. eigenvalues --   -0.69805  -0.68935  -0.66268  -0.61524  -0.59943
 Alpha  occ. eigenvalues --   -0.56019  -0.55085  -0.49263  -0.45517  -0.41761
 Alpha  occ. eigenvalues --   -0.39494
 Alpha virt. eigenvalues --    0.03633   0.04579   0.04980   0.05492   0.07459
 Alpha virt. eigenvalues --    0.07664   0.08011   0.09783   0.10046   0.12494
 Alpha virt. eigenvalues --    0.12655   0.13414   0.13866   0.14764   0.15381

 Mulliken charges:
               1
     1  N   -0.699132
     2  C    0.142539
     3  N   -0.726983
     4  C   -0.121881
     5  O   -0.584480
     6  H    0.310876
     7  H    0.280494
     8  H    0.126173
     9  H    0.299188
    10  H    0.283371
    11  H    0.163618
    12  H    0.164923
    13  H    0.361294
 Sum of Mulliken charges =  -0.00000

 Dipole moment (field-independent basis, Debye):
    X=             -0.8009    Y=              0.6491    Z=              2.1394  Tot=              2.3748
 Quadrupole moment (field-independent basis, Debye-Ang):
   XX=            -31.8504   YY=            -33.4282   ZZ=            -29.7260
   XY=             -2.6143   XZ=              2.2047   YZ=              2.7717

 Normal termination of Gaussian 09 at Tue Aug 23 01:56:43 2022.
