 Gaussian 09, Revision E.01,
 Gaussian 09:  ES64L-G09RevE.01 30-Nov-2015

 -----
 #P G4
 -----

 --------
 Frag_585
 --------
 Symbolic Z-matrix:
 Charge =  0 Multiplicity = 1

 SCF Done:  E(RB3LYP) =  -343.607157192     A.U. after   14 cycles
 SCF Done:  E(RB3LYP) =  -343.622548431     A.U. after   13 cycles
 SCF Done:  E(RB3LYP) =  -343.623499136     A.U. after   12 cycles
 SCF Done:  E(RB3LYP) =  -343.623529623     A.U. after   12 cycles
 SCF Done:  E(RB3LYP) =  -343.623781453     A.U. after   12 cycles
 SCF Done:  E(RB3LYP) =  -343.624044639     A.U. after   11 cycles
 SCF Done:  E(RB3LYP) =  -343.624358137     A.U. after   12 cycles
 SCF Done:  E(RB3LYP) =  -343.624400102     A.U. after   11 cycles
 SCF Done:  E(RB3LYP) =  -343.624407921     A.U. after   10 cycles
 SCF Done:  E(RB3LYP) =  -343.624409624     A.U. after    8 cycles
 SCF Done:  E(RB3LYP) =  -343.624411587     A.U. after    9 cycles
 SCF Done:  E(RB3LYP) =  -343.624411902     A.U. after    8 cycles
 SCF Done:  E(RB3LYP) =  -343.624411914     A.U. after    7 cycles
 Optimization completed.
    -- Stationary point found.
 Normal termination of Gaussian 09 at Thu Aug 25 10:38:06 2022.

 ----------------------------------------------------------
 #P Geom=AllCheck Guess=TCheck SCRF=Check B3LYP/GTBas3 Freq
 ----------------------------------------------------------

 Structure from the checkpoint file:  "G4.Frag_585.chk"
 --------
 Frag_585
 --------
 Charge =  0 Multiplicity = 1

 SCF Done:  E(RB3LYP) =  -343.624411914     A.U. after    1 cycles

  Exact polarizability:  46.220  -0.239  45.364   0.286  -3.925  36.757
 Approx polarizability:  61.387  -0.152  70.850   1.757 -11.208  55.001

                      1                      2                      3
                      A                      A                      A
 Frequencies --     48.9554               210.5910               234.9483
 Red. masses --      5.2053                 1.2672                 1.1108
 Frc consts  --      0.0074                 0.0331                 0.0361
 IR Inten    --      0.9144                73.0665                 2.2503

                      4                      5                      6
                      A                      A                      A
 Frequencies --    240.6686               304.3419               390.4089
 Red. masses --      2.5268                 3.8100                 3.7341
 Frc consts  --      0.0862                 0.2079                 0.3353
 IR Inten    --     33.8699                 3.4887                13.8055

                      7                      8                      9
                      A                      A                      A
 Frequencies --    481.2895               503.3043               644.3537
 Red. masses --      1.1350                 3.6632                 5.7542
 Frc consts  --      0.1549                 0.5467                 1.4076
 IR Inten    --     89.4744                 3.8866                12.8998

                     10                     11                     12
                      A                      A                      A
 Frequencies --    738.1557               804.2048               913.8942
 Red. masses --      4.6661                 3.0266                 2.2324
 Frc consts  --      1.4980                 1.1533                 1.0985
 IR Inten    --      1.6303                13.4115                26.6599

                     13                     14                     15
                      A                      A                      A
 Frequencies --   1044.4818              1091.6513              1129.7988
 Red. masses --      1.5794                 2.2506                 2.7890
 Frc consts  --      1.0152                 1.5802                 2.0975
 IR Inten    --      9.7000                 3.9010               113.6785

                     16                     17                     18
                      A                      A                      A
 Frequencies --   1179.4483              1258.5090              1294.4002
 Red. masses --      2.5014                 1.1394                 1.8134
 Frc consts  --      2.0502                 1.0633                 1.7901
 IR Inten    --     58.0243                47.3251               241.2096

                     19                     20                     21
                      A                      A                      A
 Frequencies --   1351.4434              1400.7312              1428.5500
 Red. masses --      1.3016                 1.2417                 1.4547
 Frc consts  --      1.4007                 1.4354                 1.7491
 IR Inten    --     61.8976                 4.7363                14.1227

                     22                     23                     24
                      A                      A                      A
 Frequencies --   1488.4066              1502.5800              1898.6321
 Red. masses --      1.0524                 1.1112                10.6136
 Frc consts  --      1.3737                 1.4782                22.5422
 IR Inten    --      5.7591                15.1876               210.9538

                     25                     26                     27
                      A                      A                      A
 Frequencies --   2925.4540              3035.2010              3104.0833
 Red. masses --      1.0813                 1.0355                 1.1007
 Frc consts  --      5.4523                 5.6207                 6.2484
 IR Inten    --     63.9028                13.4411                22.0961

                     28                     29                     30
                      A                      A                      A
 Frequencies --   3128.3580              3794.2053              3823.7565
 Red. masses --      1.1024                 1.0655                 1.0663
 Frc consts  --      6.3566                 9.0377                 9.1853
 IR Inten    --     12.3865                27.9162                23.0452

 - Thermochemistry -
 -------------------
 Temperature   298.150 Kelvin.  Pressure   1.00000 Atm.
 Atom     1 has atomic number  6 and mass  12.00000

 Molecular mass:    90.03169 amu.
 Principal axes and moments of inertia in atomic units:
                           1         2         3
     Eigenvalues --   351.47413 588.51974 777.41064
           X            0.99929  -0.03250  -0.01920
           Y            0.03289   0.99925   0.02066
           Z            0.01851  -0.02128   0.99960
 This molecule is an asymmetric top.
 Rotational symmetry number  1.
 Rotational temperatures (Kelvin)      0.24643     0.14717     0.11141
 Rotational constants (GHZ):           5.13478     3.06658     2.32148
 Zero-point vibrational energy     247595.9 (Joules/Mol)
                                   59.17685 (Kcal/Mol)
 Warning -- explicit consideration of   8 degrees of freedom as
           vibrations may cause significant error
 Vibrational temperatures:     70.44   302.99   338.04   346.27   437.88
          (Kelvin)            561.71   692.47   724.14   927.08  1062.04
                             1157.07  1314.89  1502.77  1570.64  1625.53
                             1696.96  1810.71  1862.35  1944.42  2015.34
                             2055.36  2141.48  2161.87  2731.70  4209.07
                             4366.97  4466.08  4501.00  5459.01  5501.53

 Zero-point correction=                           0.094304 (Hartree/Particle)
 Thermal correction to Energy=                    0.101239
 Thermal correction to Enthalpy=                  0.102183
 Thermal correction to Gibbs Free Energy=         0.063397
 Sum of electronic and zero-point Energies=           -343.530108
 Sum of electronic and thermal Energies=              -343.523173
 Sum of electronic and thermal Enthalpies=            -343.522229
 Sum of electronic and thermal Free Energies=         -343.561015

                     E (Thermal)             CV                S
                      KCal/Mol        Cal/Mol-Kelvin    Cal/Mol-Kelvin
 Total                   63.529             23.752             81.632
 Electronic               0.000              0.000              0.000
 Translational            0.889              2.981             39.405
 Rotational               0.889              2.981             26.578
 Vibrational             61.751             17.791             15.649
 Vibration     1          0.595              1.978              4.859
 Vibration     2          0.643              1.825              2.039
 Vibration     3          0.655              1.787              1.841
 Vibration     4          0.658              1.778              1.798
 Vibration     5          0.695              1.665              1.393
 Vibration     6          0.758              1.491              0.999
 Vibration     7          0.838              1.292              0.707
 Vibration     8          0.859              1.243              0.650

 Optimization completed.
    -- Stationary point found.
 Normal termination of Gaussian 09 at Thu Aug 25 10:39:57 2022.

 -----------------------------------------------------------------
 #P Geom=AllCheck Guess=TCheck SCRF=Check CCSD(T,E4T,FrzG4)/GTBas1
 -----------------------------------------------------------------

 Structure from the checkpoint file:  "G4.Frag_585.chk"
 --------
 Frag_585
 --------
 Charge =  0 Multiplicity = 1

 SCF Done:  E(RHF) =  -341.672702972     A.U. after   13 cycles
 E2 =    -0.9191827628D+00 EUMP2 =    -0.34259188573504D+03
 CCSD(T)
 CCSD(T)= -0.34265415755D+03
 D=-342.6265427\CCSD(T)=-342.6541575\RMSD=7.693e-09\PG=C01 [X(C3H6O3)]\
 Normal termination of Gaussian 09 at Thu Aug 25 10:45:03 2022.

 ---------------------------------------------------------
 #P Geom=AllCheck Guess=TCheck SCRF=Check MP4=FrzG4/GTBas2
 ---------------------------------------------------------

 Structure from the checkpoint file:  "G4.Frag_585.chk"
 --------
 Frag_585
 --------
 Charge =  0 Multiplicity = 1

 SCF Done:  E(RHF) =  -341.683810242     A.U. after   12 cycles
 E2 =    -0.9345840917D+00 EUMP2 =    -0.34261839433403D+03
 Normal termination of Gaussian 09 at Thu Aug 25 10:50:02 2022.

 ---------------------------------------------------------
 #P Geom=AllCheck Guess=TCheck SCRF=Check MP4=FrzG4/GTBas3
 ---------------------------------------------------------

 Structure from the checkpoint file:  "G4.Frag_585.chk"
 --------
 Frag_585
 --------
 Charge =  0 Multiplicity = 1

 SCF Done:  E(RHF) =  -341.718803996     A.U. after   11 cycles
 E2 =    -0.1134526029D+01 EUMP2 =    -0.34285333002468D+03
 Normal termination of Gaussian 09 at Thu Aug 25 12:47:16 2022.

 -----------------------------------------------------------
 #P Geom=AllCheck Guess=TCheck SCRF=Check MP2=Full/GTLargeXP
 -----------------------------------------------------------

 Structure from the checkpoint file:  "G4.Frag_585.chk"
 --------
 Frag_585
 --------
 Charge =  0 Multiplicity = 1

 SCF Done:  E(RHF) =  -341.814739826     A.U. after   13 cycles
 E2 =    -0.1482866312D+01 EUMP2 =    -0.34329760613771D+03
 Normal termination of Gaussian 09 at Thu Aug 25 12:52:11 2022.
 SCF Done:  E(RHF) =  -341.842664802     A.U. after    9 cycles
 Normal termination of Gaussian 09 at Thu Aug 25 12:57:03 2022.

                         Standard orientation:
 ---------------------------------------------------------------------
 Center     Atomic      Atomic             Coordinates (Angstroms)
 Number     Number       Type             X           Y           Z
 ---------------------------------------------------------------------
      1          6           0       -1.239205    1.147253    0.574341
      2          6           0       -0.639969    0.116472   -0.394811
      3          8           0       -1.337242   -1.104239   -0.376496
      4          6           0        0.810537   -0.184178    0.010414
      5          8           0        1.161508   -1.134785    0.640771
      6          8           0        1.703730    0.770020   -0.366384
      7          1           0       -2.266209    1.390114    0.280667
      8          1           0       -0.665379    2.079151    0.581185
      9          1           0       -1.250017    0.736002    1.587264
     10          1           0       -0.626639    0.544120   -1.414473
     11          1           0       -2.277824   -0.910710   -0.440746
     12          1           0        1.273918    1.436066   -0.916690
 ---------------------------------------------------------------------

 SCF Done:  E(RHF) =  -341.848713711     A.U. after    8 cycles

 The electronic state is 1-A.
 Alpha  occ. eigenvalues --  -20.61475 -20.57958 -20.54420 -11.38391 -11.32477
 Alpha  occ. eigenvalues --  -11.25324  -1.46374  -1.39285  -1.36534  -1.05797
 Alpha  occ. eigenvalues --   -0.91960  -0.82840  -0.73645  -0.71818  -0.66623
 Alpha  occ. eigenvalues --   -0.65469  -0.62479  -0.59530  -0.57158  -0.56390
 Alpha  occ. eigenvalues --   -0.53494  -0.48497  -0.47166  -0.44612
 Alpha virt. eigenvalues --    0.02391   0.03725   0.04113   0.05430   0.06929
 Alpha virt. eigenvalues --    0.06977   0.07485   0.07733   0.08651   0.10233
 Alpha virt. eigenvalues --    0.12840   0.13593   0.14511   0.15067   0.15613

 Mulliken charges:
               1
     1  C   -0.548799
     2  C    0.101919
     3  O   -0.548362
     4  C    0.542739
     5  O   -0.488309
     6  O   -0.509968
     7  H    0.167982
     8  H    0.172427
     9  H    0.206132
    10  H    0.159232
    11  H    0.368219
    12  H    0.376787
 Sum of Mulliken charges =  -0.00000

 Dipole moment (field-independent basis, Debye):
    X=             -3.7684    Y=              4.4481    Z=             -2.1039  Tot=              6.1978
 Quadrupole moment (field-independent basis, Debye-Ang):
   XX=            -35.6547   YY=            -37.9580   ZZ=            -34.5152
   XY=              1.5977   XZ=             -1.7641   YZ=             -0.2992

 Normal termination of Gaussian 09 at Thu Aug 25 15:08:26 2022.
