 Gaussian 09, Revision E.01,
 Gaussian 09:  ES64L-G09RevE.01 30-Nov-2015

 -----
 #P G4
 -----

 --------
 Frag_949
 --------
 Symbolic Z-matrix:
 Charge =  0 Multiplicity = 1

 SCF Done:  E(RB3LYP) =  -284.329646591     A.U. after   13 cycles
 SCF Done:  E(RB3LYP) =  -284.350968580     A.U. after   12 cycles
 SCF Done:  E(RB3LYP) =  -284.353287783     A.U. after   11 cycles
 SCF Done:  E(RB3LYP) =  -284.353736273     A.U. after   11 cycles
 SCF Done:  E(RB3LYP) =  -284.353921124     A.U. after   10 cycles
 SCF Done:  E(RB3LYP) =  -284.354099762     A.U. after   11 cycles
 SCF Done:  E(RB3LYP) =  -284.354288422     A.U. after   12 cycles
 SCF Done:  E(RB3LYP) =  -284.354392739     A.U. after   11 cycles
 SCF Done:  E(RB3LYP) =  -284.354505365     A.U. after   11 cycles
 SCF Done:  E(RB3LYP) =  -284.354538715     A.U. after    9 cycles
 SCF Done:  E(RB3LYP) =  -284.354567212     A.U. after    8 cycles
 SCF Done:  E(RB3LYP) =  -284.354568693     A.U. after    8 cycles
 SCF Done:  E(RB3LYP) =  -284.354568943     A.U. after    7 cycles
 Optimization completed.
    -- Stationary point found.
 Normal termination of Gaussian 09 at Fri Aug 19 19:13:21 2022.

 ----------------------------------------------------------
 #P Geom=AllCheck Guess=TCheck SCRF=Check B3LYP/GTBas3 Freq
 ----------------------------------------------------------

 Structure from the checkpoint file:  "G4.Frag_949.chk"
 --------
 Frag_949
 --------
 Charge =  0 Multiplicity = 1

 SCF Done:  E(RB3LYP) =  -284.354568943     A.U. after    1 cycles

  Exact polarizability:  44.781  -1.416  44.970   0.000   0.001  23.647
 Approx polarizability:  58.354   0.484  71.288  -0.000   0.001  34.469

                      1                      2                      3
                      A                      A                      A
 Frequencies --    109.3328               124.6238               232.1732
 Red. masses --      2.1193                 1.2795                 1.3182
 Frc consts  --      0.0149                 0.0117                 0.0419
 IR Inten    --     44.5950                11.5503                76.6766

                      4                      5                      6
                      A                      A                      A
 Frequencies --    327.1900               457.9472               564.2823
 Red. masses --      3.5628                 2.7799                 4.3784
 Frc consts  --      0.2247                 0.3435                 0.8214
 IR Inten    --      0.7762                 2.1130                 3.9731

                      7                      8                      9
                      A                      A                      A
 Frequencies --    653.6892               726.0844               768.6598
 Red. masses --      4.6121                 1.0469                 1.4229
 Frc consts  --      1.1612                 0.3252                 0.4953
 IR Inten    --      0.1941                 1.0387                82.0870

                     10                     11                     12
                      A                      A                      A
 Frequencies --    889.6769               948.8723               990.4450
 Red. masses --      4.6733                 2.1791                 3.6386
 Frc consts  --      2.1794                 1.1560                 2.1031
 IR Inten    --     65.3373                18.7118                40.6115

                     13                     14                     15
                      A                      A                      A
 Frequencies --   1187.2756              1257.7829              1344.0509
 Red. masses --      1.4876                 1.5184                 1.1115
 Frc consts  --      1.2355                 1.4153                 1.1831
 IR Inten    --     57.2065                 3.5047                 0.8040

                     16                     17                     18
                      A                      A                      A
 Frequencies --   1355.9844              1414.9704              1653.0659
 Red. masses --      2.8901                 1.1692                 1.0925
 Frc consts  --      3.1309                 1.3792                 1.7590
 IR Inten    --    361.5482                18.4196                13.4593

                     19                     20                     21
                      A                      A                      A
 Frequencies --   1785.0800              3208.9905              3315.3854
 Red. masses --      5.5659                 1.0598                 1.1162
 Frc consts  --     10.4496                 6.4299                 7.2289
 IR Inten    --    246.9991                 3.0293                 0.7163

                     22                     23                     24
                      A                      A                      A
 Frequencies --   3442.2929              3530.0883              3804.9543
 Red. masses --      1.0474                 1.0962                 1.0648
 Frc consts  --      7.3125                 8.0481                 9.0830
 IR Inten    --      0.5073                 2.1776                73.1580

 - Thermochemistry -
 -------------------
 Temperature   298.150 Kelvin.  Pressure   1.00000 Atm.
 Atom     1 has atomic number  6 and mass  12.00000

 Molecular mass:    75.03203 amu.
 Principal axes and moments of inertia in atomic units:
                           1         2         3
     Eigenvalues --   186.61262 418.29203 595.36823
           X            0.99971  -0.02407   0.00001
           Y            0.02407   0.99971   0.00002
           Z           -0.00001  -0.00002   1.00000
 This molecule is an asymmetric top.
 Rotational symmetry number  1.
 Rotational temperatures (Kelvin)      0.46414     0.20707     0.14548
 Rotational constants (GHZ):           9.67106     4.31455     3.03130
 Zero-point vibrational energy     203920.8 (Joules/Mol)
                                   48.73824 (Kcal/Mol)
 Warning -- explicit consideration of   6 degrees of freedom as
           vibrations may cause significant error
 Vibrational temperatures:    157.31   179.31   334.05   470.75   658.88
          (Kelvin)            811.88   940.51  1044.67  1105.93  1280.05
                             1365.21  1425.03  1708.22  1809.67  1933.79
                             1950.96  2035.82  2378.39  2568.33  4617.02
                             4770.09  4952.69  5079.00  5474.47

 Zero-point correction=                           0.077669 (Hartree/Particle)
 Thermal correction to Energy=                    0.083767
 Thermal correction to Enthalpy=                  0.084711
 Thermal correction to Gibbs Free Energy=         0.048450
 Sum of electronic and zero-point Energies=           -284.276900
 Sum of electronic and thermal Energies=              -284.270802
 Sum of electronic and thermal Enthalpies=            -284.269858
 Sum of electronic and thermal Free Energies=         -284.306119

                     E (Thermal)             CV                S
                      KCal/Mol        Cal/Mol-Kelvin    Cal/Mol-Kelvin
 Total                   52.565             20.245             76.319
 Electronic               0.000              0.000              0.000
 Translational            0.889              2.981             38.862
 Rotational               0.889              2.981             25.344
 Vibrational             50.787             14.283             12.113
 Vibration     1          0.606              1.942              3.281
 Vibration     2          0.610              1.928              3.027
 Vibration     3          0.653              1.792              1.862
 Vibration     4          0.711              1.621              1.274
 Vibration     5          0.816              1.343              0.772
 Vibration     6          0.920              1.109              0.515

 Optimization completed.
    -- Stationary point found.
 Normal termination of Gaussian 09 at Fri Aug 19 19:14:22 2022.

 -----------------------------------------------------------------
 #P Geom=AllCheck Guess=TCheck SCRF=Check CCSD(T,E4T,FrzG4)/GTBas1
 -----------------------------------------------------------------

 Structure from the checkpoint file:  "G4.Frag_949.chk"
 --------
 Frag_949
 --------
 Charge =  0 Multiplicity = 1

 SCF Done:  E(RHF) =  -282.716358612     A.U. after   13 cycles
 E2 =    -0.7722292009D+00 EUMP2 =    -0.28348858781256D+03
 CCSD(T)
 CCSD(T)= -0.28354618529D+03
 Normal termination of Gaussian 09 at Fri Aug 19 19:15:49 2022.

 ---------------------------------------------------------
 #P Geom=AllCheck Guess=TCheck SCRF=Check MP4=FrzG4/GTBas2
 ---------------------------------------------------------

 Structure from the checkpoint file:  "G4.Frag_949.chk"
 --------
 Frag_949
 --------
 Charge =  0 Multiplicity = 1

 SCF Done:  E(RHF) =  -282.727369079     A.U. after   12 cycles
 E2 =    -0.7851959735D+00 EUMP2 =    -0.28351256505271D+03
 Normal termination of Gaussian 09 at Fri Aug 19 19:17:17 2022.

 ---------------------------------------------------------
 #P Geom=AllCheck Guess=TCheck SCRF=Check MP4=FrzG4/GTBas3
 ---------------------------------------------------------

 Structure from the checkpoint file:  "G4.Frag_949.chk"
 --------
 Frag_949
 --------
 Charge =  0 Multiplicity = 1

 SCF Done:  E(RHF) =  -282.754960574     A.U. after   12 cycles
 E2 =    -0.9488646181D+00 EUMP2 =    -0.28370382519211D+03
 Normal termination of Gaussian 09 at Fri Aug 19 19:48:33 2022.

 -----------------------------------------------------------
 #P Geom=AllCheck Guess=TCheck SCRF=Check MP2=Full/GTLargeXP
 -----------------------------------------------------------

 Structure from the checkpoint file:  "G4.Frag_949.chk"
 --------
 Frag_949
 --------
 Charge =  0 Multiplicity = 1

 SCF Done:  E(RHF) =  -282.835390577     A.U. after   12 cycles
 E2 =    -0.1238482798D+01 EUMP2 =    -0.28407387337495D+03
 Normal termination of Gaussian 09 at Fri Aug 19 19:50:32 2022.
 SCF Done:  E(RHF) =  -282.858950858     A.U. after    9 cycles
 Normal termination of Gaussian 09 at Fri Aug 19 19:53:06 2022.

                         Standard orientation:
 ---------------------------------------------------------------------
 Center     Atomic      Atomic             Coordinates (Angstroms)
 Number     Number       Type             X           Y           Z
 ---------------------------------------------------------------------
      1          6           0       -0.615668    1.416963   -0.000048
      2          6           0       -0.526792    0.092664   -0.000039
      3          8           0       -1.596109   -0.735773    0.000124
      4          8           0        0.606860   -0.685013   -0.000025
      5          7           0        1.817146    0.084979    0.000057
      6          1           0        0.272678    2.025341    0.000168
      7          1           0       -1.594332    1.873553   -0.000053
      8          1           0       -1.262607   -1.641118   -0.000623
      9          1           0        2.316573   -0.272245    0.813819
     10          1           0        2.316407   -0.271854   -0.813981
 ---------------------------------------------------------------------

 SCF Done:  E(RHF) =  -282.863937766     A.U. after    8 cycles

 The electronic state is 1-A.
 Alpha  occ. eigenvalues --  -20.62496 -20.59058 -15.63166 -11.35105 -11.18947
 Alpha  occ. eigenvalues --   -1.47419  -1.38957  -1.12653  -1.00736  -0.79331
 Alpha  occ. eigenvalues --   -0.74124  -0.72537  -0.68767  -0.60973  -0.60235
 Alpha  occ. eigenvalues --   -0.57550  -0.54551  -0.51341  -0.45517  -0.32872
 Alpha virt. eigenvalues --    0.03629   0.04639   0.05390   0.06478   0.07610
 Alpha virt. eigenvalues --    0.08332   0.08704   0.09435   0.10016   0.11263
 Alpha virt. eigenvalues --    0.14746   0.15397   0.15994   0.17049   0.17185

 Mulliken charges:
               1
     1  C   -0.516999
     2  C    0.427738
     3  O   -0.561849
     4  O   -0.330613
     5  N   -0.490848
     6  H    0.226338
     7  H    0.210914
     8  H    0.398589
     9  H    0.318369
    10  H    0.318361
 Sum of Mulliken charges =  -0.00000

 Dipole moment (field-independent basis, Debye):
    X=              2.7097    Y=             -1.7788    Z=             -0.0013  Tot=              3.2414
 Quadrupole moment (field-independent basis, Debye-Ang):
   XX=            -26.0861   YY=            -27.9050   ZZ=            -30.4078
   XY=             -1.0319   XZ=              0.0014   YZ=              0.0026

 Normal termination of Gaussian 09 at Fri Aug 19 21:04:39 2022.
