 Gaussian 09, Revision E.01,
 Gaussian 09:  ES64L-G09RevE.01 30-Nov-2015

 -----
 #P G4
 -----

 --------
 Frag_449
 --------
 Symbolic Z-matrix:
 Charge =  0 Multiplicity = 1

 SCF Done:  E(RB3LYP) =  -306.436216064     A.U. after   13 cycles
 SCF Done:  E(RB3LYP) =  -306.456943770     A.U. after   12 cycles
 SCF Done:  E(RB3LYP) =  -306.459241794     A.U. after   11 cycles
 SCF Done:  E(RB3LYP) =  -306.459571644     A.U. after   10 cycles
 SCF Done:  E(RB3LYP) =  -306.459707977     A.U. after   11 cycles
 SCF Done:  E(RB3LYP) =  -306.459726511     A.U. after   10 cycles
 SCF Done:  E(RB3LYP) =  -306.459730759     A.U. after    8 cycles
 SCF Done:  E(RB3LYP) =  -306.459731343     A.U. after    7 cycles
 Optimization completed.
    -- Stationary point found.
 Normal termination of Gaussian 09 at Wed Aug 24 14:15:12 2022.

 ----------------------------------------------------------
 #P Geom=AllCheck Guess=TCheck SCRF=Check B3LYP/GTBas3 Freq
 ----------------------------------------------------------

 Structure from the checkpoint file:  "G4.Frag_449.chk"
 --------
 Frag_449
 --------
 Charge =  0 Multiplicity = 1

 SCF Done:  E(RB3LYP) =  -306.459731343     A.U. after    1 cycles

  Exact polarizability:  65.686 -14.810  66.089  -0.014  -0.792  26.623
 Approx polarizability:  94.442 -30.437 113.266   0.157  -0.868  40.769

                      1                      2                      3
                      A                      A                      A
 Frequencies --    101.6032               279.3529               363.7740
 Red. masses --      4.5995                 3.4373                 2.2861
 Frc consts  --      0.0280                 0.1580                 0.1782
 IR Inten    --      1.3270                 3.0616                 6.6958

                      4                      5                      6
                      A                      A                      A
 Frequencies --    401.9677               411.2196               435.5157
 Red. masses --      2.8407                 1.1333                 1.2026
 Frc consts  --      0.2704                 0.1129                 0.1344
 IR Inten    --     22.5384               150.4040                26.3036

                      7                      8                      9
                      A                      A                      A
 Frequencies --    512.4468               537.0713               716.3715
 Red. masses --      2.3346                 4.0966                 1.3104
 Frc consts  --      0.3612                 0.6962                 0.3962
 IR Inten    --     16.6392                 2.7215                 3.5283

                     10                     11                     12
                      A                      A                      A
 Frequencies --    724.0867               763.9055               783.8899
 Red. masses --      2.6577                 1.1693                 2.9350
 Frc consts  --      0.8210                 0.4020                 1.0626
 IR Inten    --      4.2209                 9.0638                 8.5880

                     13                     14                     15
                      A                      A                      A
 Frequencies --    816.2786               878.3736               980.4815
 Red. masses --      1.4797                 1.4140                 1.8071
 Frc consts  --      0.5809                 0.6428                 1.0236
 IR Inten    --     58.0586                44.6892                 3.0125

                     16                     17                     18
                      A                      A                      A
 Frequencies --    984.2888              1160.4337              1240.5260
 Red. masses --      1.9427                 2.0445                 1.3190
 Frc consts  --      1.1089                 1.6221                 1.1960
 IR Inten    --     38.5800               127.2428               132.2742

                     19                     20                     21
                      A                      A                      A
 Frequencies --   1321.7532              1407.1163              1430.7850
 Red. masses --      1.8264                 1.8814                 1.2883
 Frc consts  --      1.8800                 2.1948                 1.5539
 IR Inten    --     91.0489                 2.2022                 5.0743

                     22                     23                     24
                      A                      A                      A
 Frequencies --   1463.2899              1671.4492              1734.1680
 Red. masses --      1.5074                 5.2010                 5.8258
 Frc consts  --      1.9017                 8.5610                10.3225
 IR Inten    --     19.5447               171.9650                 3.5297

                     25                     26                     27
                      A                      A                      A
 Frequencies --   3165.8649              3188.3628              3255.4869
 Red. masses --      1.0632                 1.0609                 1.1126
 Frc consts  --      6.2785                 6.3542                 6.9472
 IR Inten    --      2.0681                 1.2497                 5.1228

                     28                     29                     30
                      A                      A                      A
 Frequencies --   3290.8699              3799.2896              3814.1971
 Red. masses --      1.1156                 1.0652                 1.0655
 Frc consts  --      7.1183                 9.0591                 9.1332
 IR Inten    --      0.7813                32.3415                34.6063

 - Thermochemistry -
 -------------------
 Temperature   298.150 Kelvin.  Pressure   1.00000 Atm.
 Atom     1 has atomic number  6 and mass  12.00000

 Molecular mass:    86.03678 amu.
 Principal axes and moments of inertia in atomic units:
                           1         2         3
     Eigenvalues --   338.06141 512.70682 832.38326
           X            0.99333  -0.11531  -0.00267
           Y            0.11529   0.99329  -0.00874
           Z            0.00366   0.00837   0.99996
 This molecule is an asymmetric top.
 Rotational symmetry number  1.
 Rotational temperatures (Kelvin)      0.25621     0.16893     0.10406
 Rotational constants (GHZ):           5.33850     3.52003     2.16816
 Zero-point vibrational energy     249027.9 (Joules/Mol)
                                   59.51910 (Kcal/Mol)
 Warning -- explicit consideration of   8 degrees of freedom as
           vibrations may cause significant error
 Vibrational temperatures:    146.18   401.93   523.39   578.34   591.65
          (Kelvin)            626.61   737.30   772.72  1030.70  1041.80
                             1099.09  1127.84  1174.44  1263.78  1410.69
                             1416.17  1669.60  1784.84  1901.71  2024.52
                             2058.58  2105.35  2404.84  2495.08  4554.97
                             4587.34  4683.91  4734.82  5466.32  5487.77

 Zero-point correction=                           0.094850 (Hartree/Particle)
 Thermal correction to Energy=                    0.101164
 Thermal correction to Enthalpy=                  0.102108
 Thermal correction to Gibbs Free Energy=         0.065303
 Sum of electronic and zero-point Energies=           -306.364882
 Sum of electronic and thermal Energies=              -306.358568
 Sum of electronic and thermal Enthalpies=            -306.357623
 Sum of electronic and thermal Free Energies=         -306.394429

                     E (Thermal)             CV                S
                      KCal/Mol        Cal/Mol-Kelvin    Cal/Mol-Kelvin
 Total                   63.481             23.690             77.463
 Electronic               0.000              0.000              0.000
 Translational            0.889              2.981             39.270
 Rotational               0.889              2.981             26.470
 Vibrational             61.704             17.728             11.724
 Vibration     1          0.604              1.948              3.423
 Vibration     2          0.680              1.712              1.538
 Vibration     3          0.737              1.547              1.106
 Vibration     4          0.768              1.466              0.955
 Vibration     5          0.775              1.446              0.922
 Vibration     6          0.796              1.393              0.841
 Vibration     7          0.868              1.222              0.628
 Vibration     8          0.892              1.168              0.572

 Optimization completed.
    -- Stationary point found.
 Normal termination of Gaussian 09 at Wed Aug 24 14:17:03 2022.

 -----------------------------------------------------------------
 #P Geom=AllCheck Guess=TCheck SCRF=Check CCSD(T,E4T,FrzG4)/GTBas1
 -----------------------------------------------------------------

 Structure from the checkpoint file:  "G4.Frag_449.chk"
 --------
 Frag_449
 --------
 Charge =  0 Multiplicity = 1

 SCF Done:  E(RHF) =  -304.626914886     A.U. after   13 cycles
 E2 =    -0.8622241793D+00 EUMP2 =    -0.30548913906515D+03
 CCSD(T)
 CCSD(T)= -0.30556023967D+03
 SD=-305.530138\CCSD(T)=-305.5602397\RMSD=3.302e-09\PG=C01 [X(C4H6O2)]\
 Normal termination of Gaussian 09 at Wed Aug 24 14:22:45 2022.

 ---------------------------------------------------------
 #P Geom=AllCheck Guess=TCheck SCRF=Check MP4=FrzG4/GTBas2
 ---------------------------------------------------------

 Structure from the checkpoint file:  "G4.Frag_449.chk"
 --------
 Frag_449
 --------
 Charge =  0 Multiplicity = 1

 SCF Done:  E(RHF) =  -304.638446295     A.U. after   13 cycles
 E2 =    -0.8751295724D+00 EUMP2 =    -0.30551357586779D+03
 Normal termination of Gaussian 09 at Wed Aug 24 14:29:08 2022.

 ---------------------------------------------------------
 #P Geom=AllCheck Guess=TCheck SCRF=Check MP4=FrzG4/GTBas3
 ---------------------------------------------------------

 Structure from the checkpoint file:  "G4.Frag_449.chk"
 --------
 Frag_449
 --------
 Charge =  0 Multiplicity = 1

 SCF Done:  E(RHF) =  -304.670512955     A.U. after   11 cycles
 E2 =    -0.1056033651D+01 EUMP2 =    -0.30572654660658D+03
 Normal termination of Gaussian 09 at Wed Aug 24 16:16:54 2022.

 -----------------------------------------------------------
 #P Geom=AllCheck Guess=TCheck SCRF=Check MP2=Full/GTLargeXP
 -----------------------------------------------------------

 Structure from the checkpoint file:  "G4.Frag_449.chk"
 --------
 Frag_449
 --------
 Charge =  0 Multiplicity = 1

 SCF Done:  E(RHF) =  -304.752487111     A.U. after   12 cycles
 E2 =    -0.1390770939D+01 EUMP2 =    -0.30614325805074D+03
 Normal termination of Gaussian 09 at Wed Aug 24 16:21:23 2022.
 SCF Done:  E(RHF) =  -304.777639808     A.U. after    8 cycles
 Normal termination of Gaussian 09 at Wed Aug 24 16:25:47 2022.

                         Standard orientation:
 ---------------------------------------------------------------------
 Center     Atomic      Atomic             Coordinates (Angstroms)
 Number     Number       Type             X           Y           Z
 ---------------------------------------------------------------------
      1          6           0       -1.436101    1.120439    0.194877
      2          6           0       -0.718684    0.003312    0.008794
      3          8           0       -1.264720   -1.225227   -0.206199
      4          6           0        0.757978   -0.024571    0.005944
      5          6           0        1.469707   -1.140435    0.176094
      6          8           0        1.383311    1.182854   -0.138776
      7          1           0       -0.959736    2.055700    0.453864
      8          1           0       -2.519797    1.115053    0.157825
      9          1           0       -2.216771   -1.168255   -0.069319
     10          1           0        0.971337   -2.080746    0.357223
     11          1           0        2.551413   -1.110548    0.156960
     12          1           0        0.787420    1.775302   -0.611009
 ---------------------------------------------------------------------

 SCF Done:  E(RHF) =  -304.782863156     A.U. after    8 cycles

 The electronic state is 1-A.
 Alpha  occ. eigenvalues --  -20.59942 -20.58332 -11.32156 -11.30160 -11.23006
 Alpha  occ. eigenvalues --  -11.21754  -1.42216  -1.40057  -1.06836  -1.01558
 Alpha  occ. eigenvalues --   -0.86072  -0.78453  -0.72783  -0.69758  -0.63708
 Alpha  occ. eigenvalues --   -0.62286  -0.59328  -0.57925  -0.56665  -0.54186
 Alpha  occ. eigenvalues --   -0.52105  -0.39078  -0.32756
 Alpha virt. eigenvalues --    0.03352   0.04321   0.04893   0.05521   0.06193
 Alpha virt. eigenvalues --    0.06912   0.07698   0.08347   0.08878   0.09364
 Alpha virt. eigenvalues --    0.10104   0.10607   0.12314   0.12957   0.14411

 Mulliken charges:
               1
     1  C   -0.532749
     2  C    0.296496
     3  O   -0.560977
     4  C    0.237031
     5  C   -0.426924
     6  O   -0.577704
     7  H    0.202862
     8  H    0.166578
     9  H    0.387649
    10  H    0.213331
    11  H    0.215886
    12  H    0.378522
 Sum of Mulliken charges =  -0.00000

 Dipole moment (field-independent basis, Debye):
    X=             -2.4447    Y=              0.5185    Z=             -0.1797  Tot=              2.5056
 Quadrupole moment (field-independent basis, Debye-Ang):
   XX=            -31.8696   YY=            -34.0953   ZZ=            -39.0072
   XY=             -1.2334   XZ=             -0.6533   YZ=             -2.0174

 Normal termination of Gaussian 09 at Wed Aug 24 18:40:17 2022.
