 Gaussian 09, Revision E.01,
 Gaussian 09:  ES64L-G09RevE.01 30-Nov-2015

 -----
 #P G4
 -----

 --------
 Frag_617
 --------
 Symbolic Z-matrix:
 Charge =  0 Multiplicity = 1

 SCF Done:  E(RB3LYP) =  -307.546889143     A.U. after   13 cycles
 SCF Done:  E(RB3LYP) =  -307.634460605     A.U. after   11 cycles
 SCF Done:  E(RB3LYP) =  -307.665590852     A.U. after   12 cycles
 SCF Done:  E(RB3LYP) =  -307.671112707     A.U. after   11 cycles
 SCF Done:  E(RB3LYP) =  -307.672610593     A.U. after   11 cycles
 SCF Done:  E(RB3LYP) =  -307.672797191     A.U. after   10 cycles
 SCF Done:  E(RB3LYP) =  -307.672945643     A.U. after   10 cycles
 SCF Done:  E(RB3LYP) =  -307.673726759     A.U. after   11 cycles
 SCF Done:  E(RB3LYP) =  -307.674020893     A.U. after   12 cycles
 SCF Done:  E(RB3LYP) =  -307.672888522     A.U. after   11 cycles
 SCF Done:  E(RB3LYP) =  -307.682326212     A.U. after    8 cycles
 SCF Done:  E(RB3LYP) =  -307.682326289     A.U. after    8 cycles
 SCF Done:  E(RB3LYP) =  -307.682326314     A.U. after    6 cycles
 Optimization completed.
    -- Stationary point found.
 Normal termination of Gaussian 09 at Tue Aug 30 09:55:49 2022.

 ----------------------------------------------------------
 #P Geom=AllCheck Guess=TCheck SCRF=Check B3LYP/GTBas3 Freq
 ----------------------------------------------------------

 Structure from the checkpoint file:  "G4.Frag_617.chk"
 --------
 Frag_617
 --------
 Charge =  0 Multiplicity = 1

 SCF Done:  E(RB3LYP) =  -307.682326314     A.U. after    1 cycles

  Exact polarizability:  54.797   2.232  61.115   1.943   4.290  39.249
 Approx polarizability:  70.576   4.524  91.611   2.602   6.945  59.519

                      1                      2                      3
                      A                      A                      A
 Frequencies --     74.4332               180.0215               243.6980
 Red. masses --      3.6609                 1.0500                 1.2369
 Frc consts  --      0.0120                 0.0200                 0.0433
 IR Inten    --      3.2563                 1.6830                66.7275

                      4                      5                      6
                      A                      A                      A
 Frequencies --    256.1918               314.7427               323.8970
 Red. masses --      2.5761                 1.5026                 1.9687
 Frc consts  --      0.0996                 0.0877                 0.1217
 IR Inten    --     11.2851                71.8475                58.7996

                      7                      8                      9
                      A                      A                      A
 Frequencies --    379.8342               491.6970               537.4083
 Red. masses --      2.5781                 3.0487                 3.5311
 Frc consts  --      0.2192                 0.4343                 0.6009
 IR Inten    --      3.6335                 6.3030                 3.7180

                     10                     11                     12
                      A                      A                      A
 Frequencies --    626.9690               743.8551               867.1738
 Red. masses --      3.0402                 1.3352                 2.2853
 Frc consts  --      0.7041                 0.4353                 1.0125
 IR Inten    --      8.8250                 1.0013                21.4156

                     13                     14                     15
                      A                      A                      A
 Frequencies --    951.6286               956.0611              1011.5207
 Red. masses --      1.6762                 1.5109                 1.4963
 Frc consts  --      0.8943                 0.8137                 0.9020
 IR Inten    --     19.2771                22.7484                18.1066

                     16                     17                     18
                      A                      A                      A
 Frequencies --   1051.0511              1071.0134              1095.9933
 Red. masses --      2.5770                 1.5206                 4.0878
 Frc consts  --      1.6773                 1.0277                 2.8931
 IR Inten    --     77.0051                 7.6808               111.4961

                     19                     20                     21
                      A                      A                      A
 Frequencies --   1250.8384              1270.4362              1287.9423
 Red. masses --      1.4257                 1.4306                 1.4786
 Frc consts  --      1.3142                 1.3605                 1.4451
 IR Inten    --     60.3457                63.3538                37.7254

                     22                     23                     24
                      A                      A                      A
 Frequencies --   1404.8760              1418.6665              1436.2788
 Red. masses --      1.2344                 1.2657                 1.2223
 Frc consts  --      1.4354                 1.5008                 1.4856
 IR Inten    --      1.4075                14.1496                 4.4977

                     25                     26                     27
                      A                      A                      A
 Frequencies --   1460.1535              1476.9428              1494.4024
 Red. masses --      1.5517                 1.0514                 1.0705
 Frc consts  --      1.9492                 1.3513                 1.4086
 IR Inten    --     47.4884                 4.8663                18.0428

                     28                     29                     30
                      A                      A                      A
 Frequencies --   1733.8193              2880.1347              3022.9558
 Red. masses --      5.8367                 1.0803                 1.0419
 Frc consts  --     10.3378                 5.2796                 5.6100
 IR Inten    --      5.5575                97.1044                25.7917

                     31                     32                     33
                      A                      A                      A
 Frequencies --   3082.1363              3121.7068              3154.2336
 Red. masses --      1.0918                 1.1017                 1.0611
 Frc consts  --      6.1108                 6.3254                 6.2203
 IR Inten    --     15.1460                17.1773                 7.8554

                     34                     35                     36
                      A                      A                      A
 Frequencies --   3240.8733              3804.7538              3820.7919
 Red. masses --      1.1138                 1.0655                 1.0657
 Frc consts  --      6.8925                 9.0874                 9.1663
 IR Inten    --      6.9887                26.2675                25.1986

 - Thermochemistry -
 -------------------
 Temperature   298.150 Kelvin.  Pressure   1.00000 Atm.
 Atom     1 has atomic number  6 and mass  12.00000

 Molecular mass:    88.05243 amu.
 Principal axes and moments of inertia in atomic units:
                           1         2         3
     Eigenvalues --   363.90397 573.98049 838.51197
           X            0.99979  -0.01813   0.00970
           Y            0.01789   0.99953   0.02478
           Z           -0.01014  -0.02461   0.99965
 This molecule is an asymmetric top.
 Rotational symmetry number  1.
 Rotational temperatures (Kelvin)      0.23801     0.15090     0.10329
 Rotational constants (GHZ):           4.95939     3.14426     2.15231
 Zero-point vibrational energy     308272.5 (Joules/Mol)
                                   73.67889 (Kcal/Mol)
 Warning -- explicit consideration of   9 degrees of freedom as
           vibrations may cause significant error
 Vibrational temperatures:    107.09   259.01   350.63   368.60   452.84
          (Kelvin)            466.02   546.50   707.44   773.21   902.07
                             1070.24  1247.67  1369.18  1375.56  1455.35
                             1512.23  1540.95  1576.89  1799.68  1827.87
                             1853.06  2021.30  2041.14  2066.48  2100.83
                             2124.99  2150.11  2494.58  4143.87  4349.35
                             4434.50  4491.43  4538.23  4662.89  5474.19
                             5497.26

 Zero-point correction=                           0.117415 (Hartree/Particle)
 Thermal correction to Energy=                    0.124735
 Thermal correction to Enthalpy=                  0.125680
 Thermal correction to Gibbs Free Energy=         0.086588
 Sum of electronic and zero-point Energies=           -307.564912
 Sum of electronic and thermal Energies=              -307.557591
 Sum of electronic and thermal Enthalpies=            -307.556647
 Sum of electronic and thermal Free Energies=         -307.595739

                     E (Thermal)             CV                S
                      KCal/Mol        Cal/Mol-Kelvin    Cal/Mol-Kelvin
 Total                   78.273             26.016             82.276
 Electronic               0.000              0.000              0.000
 Translational            0.889              2.981             39.339
 Rotational               0.889              2.981             26.663
 Vibrational             76.495             20.054             16.275
 Vibration     1          0.599              1.966              4.033
 Vibration     2          0.629              1.867              2.328
 Vibration     3          0.659              1.773              1.776
 Vibration     4          0.666              1.752              1.688
 Vibration     5          0.702              1.646              1.337
 Vibration     6          0.708              1.628              1.290
 Vibration     7          0.750              1.513              1.040
 Vibration     8          0.847              1.268              0.679
 Vibration     9          0.892              1.167              0.571

 Optimization completed.
    -- Stationary point found.
 Normal termination of Gaussian 09 at Tue Aug 30 09:56:24 2022.

 -----------------------------------------------------------------
 #P Geom=AllCheck Guess=TCheck SCRF=Check CCSD(T,E4T,FrzG4)/GTBas1
 -----------------------------------------------------------------

 Structure from the checkpoint file:  "G4.Frag_617.chk"
 --------
 Frag_617
 --------
 Charge =  0 Multiplicity = 1

 SCF Done:  E(RHF) =  -305.814319146     A.U. after   12 cycles
 E2 =    -0.8718607644D+00 EUMP2 =    -0.30668617991046D+03
 CCSD(T)
 CCSD(T)= -0.30676289155D+03
 06.7354374\CCSD=-306.7360067\CCSD(T)=-306.7628915\RMSD=5.833e-09\PG=C0
 Normal termination of Gaussian 09 at Tue Aug 30 09:58:16 2022.

 ---------------------------------------------------------
 #P Geom=AllCheck Guess=TCheck SCRF=Check MP4=FrzG4/GTBas2
 ---------------------------------------------------------

 Structure from the checkpoint file:  "G4.Frag_617.chk"
 --------
 Frag_617
 --------
 Charge =  0 Multiplicity = 1

 SCF Done:  E(RHF) =  -305.825908689     A.U. after   12 cycles
 E2 =    -0.8857615730D+00 EUMP2 =    -0.30671167026229D+03
 Normal termination of Gaussian 09 at Tue Aug 30 09:58:55 2022.

 ---------------------------------------------------------
 #P Geom=AllCheck Guess=TCheck SCRF=Check MP4=FrzG4/GTBas3
 ---------------------------------------------------------

 Structure from the checkpoint file:  "G4.Frag_617.chk"
 --------
 Frag_617
 --------
 Charge =  0 Multiplicity = 1

 SCF Done:  E(RHF) =  -305.857339556     A.U. after   11 cycles
 E2 =    -0.1079427853D+01 EUMP2 =    -0.30693676740867D+03
 Normal termination of Gaussian 09 at Tue Aug 30 10:02:25 2022.

 -----------------------------------------------------------
 #P Geom=AllCheck Guess=TCheck SCRF=Check MP2=Full/GTLargeXP
 -----------------------------------------------------------

 Structure from the checkpoint file:  "G4.Frag_617.chk"
 --------
 Frag_617
 --------
 Charge =  0 Multiplicity = 1

 SCF Done:  E(RHF) =  -305.939898199     A.U. after   12 cycles
 E2 =    -0.1417733102D+01 EUMP2 =    -0.30735763130179D+03
 Normal termination of Gaussian 09 at Tue Aug 30 10:04:11 2022.
 SCF Done:  E(RHF) =  -305.965032515     A.U. after    8 cycles
 Normal termination of Gaussian 09 at Tue Aug 30 10:06:02 2022.

                         Standard orientation:
 ---------------------------------------------------------------------
 Center     Atomic      Atomic             Coordinates (Angstroms)
 Number     Number       Type             X           Y           Z
 ---------------------------------------------------------------------
      1          6           0        1.020136    1.458591    0.355578
      2          6           0        0.741067    0.218457   -0.033467
      3          6           0        1.777575   -0.853439   -0.230266
      4          6           0       -0.685098   -0.210784   -0.330299
      5          8           0       -1.003567   -1.249447    0.551012
      6          8           0       -1.652204    0.806395   -0.158002
      7          1           0        2.039357    1.774036    0.553610
      8          1           0        0.234780    2.189607    0.506028
      9          1           0        2.785232   -0.472080   -0.048597
     10          1           0        1.742738   -1.257664   -1.250452
     11          1           0        1.591341   -1.694498    0.445671
     12          1           0       -0.730203   -0.571098   -1.378780
     13          1           0       -1.922553   -1.488132    0.384467
     14          1           0       -1.616602    1.387293   -0.925302
 ---------------------------------------------------------------------

 SCF Done:  E(RHF) =  -305.970427656     A.U. after    8 cycles

 The electronic state is 1-A.
 Alpha  occ. eigenvalues --  -20.56817 -20.56541 -11.34434 -11.23851 -11.22073
 Alpha  occ. eigenvalues --  -11.21692  -1.41728  -1.33822  -1.08375  -0.93547
 Alpha  occ. eigenvalues --   -0.90958  -0.74956  -0.72480  -0.70484  -0.65292
 Alpha  occ. eigenvalues --   -0.59200  -0.57883  -0.56335  -0.54018  -0.53601
 Alpha  occ. eigenvalues --   -0.51156  -0.49080  -0.44304  -0.36116
 Alpha virt. eigenvalues --    0.03435   0.04057   0.04464   0.05250   0.06697
 Alpha virt. eigenvalues --    0.07002   0.07406   0.08199   0.08683   0.09689
 Alpha virt. eigenvalues --    0.11375   0.11451   0.12211   0.13006   0.13977

 Mulliken charges:
               1
     1  C   -0.478213
     2  C    0.163438
     3  C   -0.567194
     4  C    0.237498
     5  O   -0.563498
     6  O   -0.592095
     7  H    0.182906
     8  H    0.200820
     9  H    0.163072
    10  H    0.166171
    11  H    0.210515
    12  H    0.127872
    13  H    0.377412
    14  H    0.371296
 Sum of Mulliken charges =  -0.00000

 Dipole moment (field-independent basis, Debye):
    X=             -0.0291    Y=              0.1657    Z=             -2.3633  Tot=              2.3693
 Quadrupole moment (field-independent basis, Debye-Ang):
   XX=            -34.6883   YY=            -35.5244   ZZ=            -37.7101
   XY=              1.5611   XZ=              3.1154   YZ=             -0.1605

 Normal termination of Gaussian 09 at Tue Aug 30 10:13:07 2022.
