 Gaussian 09, Revision E.01,
 Gaussian 09:  ES64L-G09RevE.01 30-Nov-2015

 -----
 #P G4
 -----

 --------
 Frag_920
 --------
 Symbolic Z-matrix:
 Charge =  0 Multiplicity = 1

 SCF Done:  E(RB3LYP) =  -303.837214178     A.U. after   13 cycles
 SCF Done:  E(RB3LYP) =  -303.848458900     A.U. after   12 cycles
 SCF Done:  E(RB3LYP) =  -303.849981625     A.U. after   11 cycles
 SCF Done:  E(RB3LYP) =  -303.851742177     A.U. after   12 cycles
 SCF Done:  E(RB3LYP) =  -303.852769413     A.U. after   11 cycles
 SCF Done:  E(RB3LYP) =  -303.853740476     A.U. after   13 cycles
 SCF Done:  E(RB3LYP) =  -303.854757999     A.U. after   11 cycles
 SCF Done:  E(RB3LYP) =  -303.854954227     A.U. after   10 cycles
 SCF Done:  E(RB3LYP) =  -303.855177470     A.U. after   11 cycles
 SCF Done:  E(RB3LYP) =  -303.855287304     A.U. after   11 cycles
 SCF Done:  E(RB3LYP) =  -303.855425050     A.U. after    9 cycles
 SCF Done:  E(RB3LYP) =  -303.855427495     A.U. after    8 cycles
 SCF Done:  E(RB3LYP) =  -303.855427614     A.U. after    7 cycles
 Optimization completed.
    -- Stationary point found.
 Normal termination of Gaussian 09 at Fri Aug 26 12:35:06 2022.

 ----------------------------------------------------------
 #P Geom=AllCheck Guess=TCheck SCRF=Check B3LYP/GTBas3 Freq
 ----------------------------------------------------------

 Structure from the checkpoint file:  "G4.Frag_920.chk"
 --------
 Frag_920
 --------
 Charge =  0 Multiplicity = 1

 SCF Done:  E(RB3LYP) =  -303.855427614     A.U. after    1 cycles

  Exact polarizability:  55.420   1.982  60.280   1.159   7.655  40.332
 Approx polarizability:  72.442   3.214  95.175   2.181  14.227  60.508

                      1                      2                      3
                      A                      A                      A
 Frequencies --     83.6921               229.2715               251.4112
 Red. masses --      3.9332                 1.1551                 2.8041
 Frc consts  --      0.0162                 0.0358                 0.1044
 IR Inten    --      0.5293                33.8043                11.1020

                      4                      5                      6
                      A                      A                      A
 Frequencies --    309.6032               335.2392               376.4418
 Red. masses --      2.0464                 1.3039                 1.6704
 Frc consts  --      0.1156                 0.0863                 0.1395
 IR Inten    --     13.2066                23.0728                40.1225

                      7                      8                      9
                      A                      A                      A
 Frequencies --    437.9912               507.4408               558.0882
 Red. masses --      1.7813                 2.1436                 3.7152
 Frc consts  --      0.2013                 0.3252                 0.6818
 IR Inten    --     54.3697                27.9803                29.7854

                     10                     11                     12
                      A                      A                      A
 Frequencies --    642.3311               704.1139               789.8199
 Red. masses --      1.9880                 1.2883                 1.5233
 Frc consts  --      0.4833                 0.3763                 0.5599
 IR Inten    --     74.9870                56.7498                77.3138

                     13                     14                     15
                      A                      A                      A
 Frequencies --    833.0649               849.6295               933.3668
 Red. masses --      2.1400                 1.5180                 1.7616
 Frc consts  --      0.8750                 0.6456                 0.9042
 IR Inten    --     72.1082                24.7975               175.6931

                     16                     17                     18
                      A                      A                      A
 Frequencies --    985.2865               999.8730              1120.3794
 Red. masses --      1.5882                 2.6577                 1.6113
 Frc consts  --      0.9084                 1.5655                 1.1916
 IR Inten    --      9.3691                38.0889                21.2636

                     19                     20                     21
                      A                      A                      A
 Frequencies --   1151.2317              1221.2433              1300.4436
 Red. masses --      2.1576                 1.4219                 1.2080
 Frc consts  --      1.6848                 1.2495                 1.2036
 IR Inten    --     47.3641                65.8467                57.8059

                     22                     23                     24
                      A                      A                      A
 Frequencies --   1333.1055              1410.7139              1432.2263
 Red. masses --      2.2704                 1.2706                 1.2096
 Frc consts  --      2.3772                 1.4898                 1.4620
 IR Inten    --     13.0514                10.3888                 7.2713

                     25                     26                     27
                      A                      A                      A
 Frequencies --   1454.7505              1647.4750              1652.8482
 Red. masses --      1.5880                 1.1389                 1.1066
 Frc consts  --      1.9800                 1.8213                 1.7812
 IR Inten    --     36.8739                39.4469                32.3784

                     28                     29                     30
                      A                      A                      A
 Frequencies --   1727.4021              2914.4427              3157.8893
 Red. masses --      5.3152                 1.0815                 1.0646
 Frc consts  --      9.3444                 5.4121                 6.2549
 IR Inten    --     66.7344                89.6427                12.2159

                     31                     32                     33
                      A                      A                      A
 Frequencies --   3268.6711              3477.9594              3521.8870
 Red. masses --      1.1097                 1.0506                 1.0486
 Frc consts  --      6.9858                 7.4877                 7.6634
 IR Inten    --      2.4423                 0.5344                 2.6721

                     34                     35                     36
                      A                      A                      A
 Frequencies --   3563.8534              3619.9577              3801.4356
 Red. masses --      1.0902                 1.0945                 1.0649
 Frc consts  --      8.1582                 8.4503                 9.0670
 IR Inten    --      2.0254                 5.0857                32.6118

 - Thermochemistry -
 -------------------
 Temperature   298.150 Kelvin.  Pressure   1.00000 Atm.
 Atom     1 has atomic number  6 and mass  12.00000

 Molecular mass:    88.06366 amu.
 Principal axes and moments of inertia in atomic units:
                           1         2         3
     Eigenvalues --   363.44204 587.10189 801.57162
           X            0.99964   0.02626  -0.00587
           Y           -0.02597   0.99870   0.04377
           Z            0.00701  -0.04360   0.99902
 This molecule is an asymmetric top.
 Rotational symmetry number  1.
 Rotational temperatures (Kelvin)      0.23832     0.14753     0.10805
 Rotational constants (GHZ):           4.96569     3.07398     2.25150
 Zero-point vibrational energy     314645.3 (Joules/Mol)
                                   75.20202 (Kcal/Mol)
 Warning -- explicit consideration of   9 degrees of freedom as
           vibrations may cause significant error
 Vibrational temperatures:    120.41   329.87   361.72   445.45   482.33
          (Kelvin)            541.62   630.17   730.09   802.96   924.17
                             1013.06  1136.37  1198.59  1222.43  1342.90
                             1417.61  1438.59  1611.97  1656.36  1757.09
                             1871.05  1918.04  2029.70  2060.65  2093.06
                             2370.35  2378.08  2485.34  4193.23  4543.49
                             4702.88  5004.00  5067.20  5127.58  5208.31
                             5469.41

 Zero-point correction=                           0.119842 (Hartree/Particle)
 Thermal correction to Energy=                    0.126933
 Thermal correction to Enthalpy=                  0.127877
 Thermal correction to Gibbs Free Energy=         0.089455
 Sum of electronic and zero-point Energies=           -303.735586
 Sum of electronic and thermal Energies=              -303.728494
 Sum of electronic and thermal Enthalpies=            -303.727550
 Sum of electronic and thermal Free Energies=         -303.765972

                     E (Thermal)             CV                S
                      KCal/Mol        Cal/Mol-Kelvin    Cal/Mol-Kelvin
 Total                   79.652             26.212             80.867
 Electronic               0.000              0.000              0.000
 Translational            0.889              2.981             39.339
 Rotational               0.889              2.981             26.639
 Vibrational             77.874             20.250             14.888
 Vibration     1          0.601              1.960              3.802
 Vibration     2          0.652              1.796              1.885
 Vibration     3          0.663              1.760              1.721
 Vibration     4          0.699              1.655              1.364
 Vibration     5          0.716              1.605              1.235
 Vibration     6          0.747              1.520              1.053
 Vibration     7          0.798              1.387              0.833
 Vibration     8          0.863              1.234              0.640
 Vibration     9          0.914              1.122              0.528

 Optimization completed.
    -- Stationary point found.
 Normal termination of Gaussian 09 at Fri Aug 26 12:35:38 2022.

 -----------------------------------------------------------------
 #P Geom=AllCheck Guess=TCheck SCRF=Check CCSD(T,E4T,FrzG4)/GTBas1
 -----------------------------------------------------------------

 Structure from the checkpoint file:  "G4.Frag_920.chk"
 --------
 Frag_920
 --------
 Charge =  0 Multiplicity = 1

 SCF Done:  E(RHF) =  -301.977052402     A.U. after   12 cycles
 E2 =    -0.8911157745D+00 EUMP2 =    -0.30286816817642D+03
 CCSD(T)
 CCSD(T)= -0.30294483035D+03
 SDQ=-302.9165877\CCSD=-302.9172088\CCSD(T)=-302.9448304\RMSD=9.787e-09
 Normal termination of Gaussian 09 at Fri Aug 26 12:37:37 2022.

 ---------------------------------------------------------
 #P Geom=AllCheck Guess=TCheck SCRF=Check MP4=FrzG4/GTBas2
 ---------------------------------------------------------

 Structure from the checkpoint file:  "G4.Frag_920.chk"
 --------
 Frag_920
 --------
 Charge =  0 Multiplicity = 1

 SCF Done:  E(RHF) =  -301.990349064     A.U. after   12 cycles
 E2 =    -0.9069243480D+00 EUMP2 =    -0.30289727341238D+03
 Normal termination of Gaussian 09 at Fri Aug 26 12:38:13 2022.

 ---------------------------------------------------------
 #P Geom=AllCheck Guess=TCheck SCRF=Check MP4=FrzG4/GTBas3
 ---------------------------------------------------------

 Structure from the checkpoint file:  "G4.Frag_920.chk"
 --------
 Frag_920
 --------
 Charge =  0 Multiplicity = 1

 SCF Done:  E(RHF) =  -302.023101370     A.U. after   11 cycles
 E2 =    -0.1093481183D+01 EUMP2 =    -0.30311658255306D+03
 Normal termination of Gaussian 09 at Fri Aug 26 12:41:39 2022.

 -----------------------------------------------------------
 #P Geom=AllCheck Guess=TCheck SCRF=Check MP2=Full/GTLargeXP
 -----------------------------------------------------------

 Structure from the checkpoint file:  "G4.Frag_920.chk"
 --------
 Frag_920
 --------
 Charge =  0 Multiplicity = 1

 SCF Done:  E(RHF) =  -302.105699030     A.U. after   12 cycles
 E2 =    -0.1432014666D+01 EUMP2 =    -0.30353771369623D+03
 Normal termination of Gaussian 09 at Fri Aug 26 12:43:37 2022.
 SCF Done:  E(RHF) =  -302.129732973     A.U. after    8 cycles
 Normal termination of Gaussian 09 at Fri Aug 26 12:45:22 2022.

                         Standard orientation:
 ---------------------------------------------------------------------
 Center     Atomic      Atomic             Coordinates (Angstroms)
 Number     Number       Type             X           Y           Z
 ---------------------------------------------------------------------
      1          6           0        1.141070    1.323706    0.461496
      2          6           0        0.771572    0.150704   -0.056651
      3          7           0        1.630023   -0.944947   -0.253295
      4          6           0       -0.676419   -0.202112   -0.357051
      5          7           0       -1.291672   -1.078005    0.643369
      6          8           0       -1.431613    0.977906   -0.451936
      7          1           0        2.176214    1.537330    0.707626
      8          1           0        0.402479    2.087652    0.654974
      9          1           0        1.467535   -1.433459   -1.126186
     10          1           0        2.609293   -0.704385   -0.171358
     11          1           0       -0.707063   -0.763645   -1.310450
     12          1           0       -1.059129   -0.718960    1.567371
     13          1           0       -0.877056   -2.004073    0.587451
     14          1           0       -2.345167    0.703167   -0.311221
 ---------------------------------------------------------------------

 SCF Done:  E(RHF) =  -302.134913131     A.U. after    8 cycles

 The electronic state is 1-A.
 Alpha  occ. eigenvalues --  -20.55640 -15.56573 -15.55174 -11.31959 -11.26833
 Alpha  occ. eigenvalues --  -11.19994  -1.37915  -1.22176  -1.16998  -1.00631
 Alpha  occ. eigenvalues --   -0.89954  -0.75616  -0.71739  -0.69688  -0.67325
 Alpha  occ. eigenvalues --   -0.62002  -0.60072  -0.58635  -0.53800  -0.52150
 Alpha  occ. eigenvalues --   -0.50119  -0.45410  -0.41612  -0.32439
 Alpha virt. eigenvalues --    0.03476   0.04414   0.04914   0.05531   0.06769
 Alpha virt. eigenvalues --    0.07283   0.07909   0.08367   0.08678   0.10315
 Alpha virt. eigenvalues --    0.11577   0.11941   0.12856   0.13290   0.13742

 Mulliken charges:
               1
     1  C   -0.487564
     2  C    0.207210
     3  N   -0.742117
     4  C    0.207476
     5  N   -0.704085
     6  O   -0.601197
     7  H    0.157445
     8  H    0.219469
     9  H    0.308992
    10  H    0.310169
    11  H    0.137675
    12  H    0.299438
    13  H    0.296960
    14  H    0.390128
 Sum of Mulliken charges =  -0.00000

 Dipole moment (field-independent basis, Debye):
    X=              1.1109    Y=             -1.7897    Z=             -0.4547  Tot=              2.1550
 Quadrupole moment (field-independent basis, Debye-Ang):
   XX=            -33.6845   YY=            -38.7598   ZZ=            -36.5390
   XY=             -1.0272   XZ=             -1.2966   YZ=              3.5604

 Normal termination of Gaussian 09 at Fri Aug 26 12:52:26 2022.
