 Gaussian 09, Revision E.01,
 Gaussian 09:  ES64L-G09RevE.01 30-Nov-2015

 -----
 #P G4
 -----

 ---------
 Frag_1047
 ---------
 Symbolic Z-matrix:
 Charge =  0 Multiplicity = 1

 SCF Done:  E(RB3LYP) =  -323.282450683     A.U. after   13 cycles
 SCF Done:  E(RB3LYP) =  -323.291276283     A.U. after   11 cycles
 SCF Done:  E(RB3LYP) =  -323.293747390     A.U. after   12 cycles
 SCF Done:  E(RB3LYP) =  -323.295294784     A.U. after   12 cycles
 SCF Done:  E(RB3LYP) =  -323.296107692     A.U. after   11 cycles
 SCF Done:  E(RB3LYP) =  -323.296924200     A.U. after   11 cycles
 SCF Done:  E(RB3LYP) =  -323.297359942     A.U. after   11 cycles
 SCF Done:  E(RB3LYP) =  -323.297634312     A.U. after   11 cycles
 SCF Done:  E(RB3LYP) =  -323.297661157     A.U. after    9 cycles
 SCF Done:  E(RB3LYP) =  -323.297672396     A.U. after    9 cycles
 SCF Done:  E(RB3LYP) =  -323.297702122     A.U. after    7 cycles
 SCF Done:  E(RB3LYP) =  -323.297702345     A.U. after    7 cycles
 SCF Done:  E(RB3LYP) =  -323.297702369     A.U. after    6 cycles
 Optimization completed.
    -- Stationary point found.
 Normal termination of Gaussian 09 at Mon Aug 22 06:57:40 2022.

 ----------------------------------------------------------
 #P Geom=AllCheck Guess=TCheck SCRF=Check B3LYP/GTBas3 Freq
 ----------------------------------------------------------

 Structure from the checkpoint file:  "G4.Frag_1047.chk"
 ---------
 Frag_1047
 ---------
 Charge =  0 Multiplicity = 1

 SCF Done:  E(RB3LYP) =  -323.297702369     A.U. after    1 cycles

  Exact polarizability:  72.776  -5.292  71.419  -0.532   0.249  53.371
 Approx polarizability:  96.585 -11.831 108.312  -1.706   0.542  78.760

                      1                      2                      3
                      A                      A                      A
 Frequencies --     76.6473               150.1180               177.3934
 Red. masses --      2.6311                 1.1123                 1.0778
 Frc consts  --      0.0091                 0.0148                 0.0200
 IR Inten    --      0.0661                20.5043                 0.5077

                      4                      5                      6
                      A                      A                      A
 Frequencies --    248.0323               263.6849               290.6286
 Red. masses --      1.1477                 2.4233                 3.0504
 Frc consts  --      0.0416                 0.0993                 0.1518
 IR Inten    --      5.7515                 9.3470                 2.4115

                      7                      8                      9
                      A                      A                      A
 Frequencies --    337.3073               396.5814               411.5053
 Red. masses --      1.1588                 2.6254                 2.9173
 Frc consts  --      0.0777                 0.2433                 0.2911
 IR Inten    --     57.8755                15.0127                 3.8055

                     10                     11                     12
                      A                      A                      A
 Frequencies --    445.2118               517.8858               532.7926
 Red. masses --      2.4708                 2.3708                 3.6193
 Frc consts  --      0.2885                 0.3746                 0.6053
 IR Inten    --     10.0454                24.3465                19.2081

                     13                     14                     15
                      A                      A                      A
 Frequencies --    586.1280               713.0654               761.9722
 Red. masses --      2.3690                 3.1785                 1.2060
 Frc consts  --      0.4795                 0.9522                 0.4126
 IR Inten    --      7.1751                 5.2501                17.3851

                     16                     17                     18
                      A                      A                      A
 Frequencies --    817.4210               857.1236               884.1463
 Red. masses --      1.4701                 1.6053                 1.8514
 Frc consts  --      0.5788                 0.6948                 0.8527
 IR Inten    --    131.9365               196.7128                81.8229

                     19                     20                     21
                      A                      A                      A
 Frequencies --    939.8360               962.1563               985.9382
 Red. masses --      1.7326                 1.3992                 1.9868
 Frc consts  --      0.9017                 0.7632                 1.1379
 IR Inten    --      8.9606                23.3499                13.6285

                     22                     23                     24
                      A                      A                      A
 Frequencies --   1003.7510              1047.7172              1077.4809
 Red. masses --      1.4974                 1.6431                 1.4888
 Frc consts  --      0.8888                 1.0627                 1.0183
 IR Inten    --     18.8956                20.2700                 2.0874

                     25                     26                     27
                      A                      A                      A
 Frequencies --   1154.6122              1167.6035              1275.0631
 Red. masses --      1.1801                 2.4010                 2.5865
 Frc consts  --      0.9269                 1.9286                 2.4776
 IR Inten    --      1.9102                73.9115                 7.2906

                     28                     29                     30
                      A                      A                      A
 Frequencies --   1293.3994              1404.8461              1410.4280
 Red. masses --      1.8411                 1.2158                 1.9409
 Frc consts  --      1.8147                 1.4138                 2.2749
 IR Inten    --     32.6474                 4.2363                10.1066

                     31                     32                     33
                      A                      A                      A
 Frequencies --   1447.2858              1471.2996              1495.2116
 Red. masses --      1.2632                 1.0590                 1.0585
 Frc consts  --      1.5590                 1.3506                 1.3942
 IR Inten    --     12.0870                 6.2249                16.4034

                     34                     35                     36
                      A                      A                      A
 Frequencies --   1621.2304              1637.4908              1667.6982
 Red. masses --      1.0994                 1.0968                 1.1043
 Frc consts  --      1.7025                 1.7327                 1.8095
 IR Inten    --     22.9996                39.0220                23.0181

                     37                     38                     39
                      A                      A                      A
 Frequencies --   1721.5490              3042.2121              3102.5004
 Red. masses --      5.4988                 1.0350                 1.0984
 Frc consts  --      9.6018                 5.6435                 6.2290
 IR Inten    --      7.3685                20.6316                13.2220

                     40                     41                     42
                      A                      A                      A
 Frequencies --   3122.0043              3152.1091              3243.4060
 Red. masses --      1.1028                 1.0628                 1.1119
 Frc consts  --      6.3331                 6.2218                 6.8916
 IR Inten    --     17.9563                12.8132                 6.6147

                     43                     44                     45
                      A                      A                      A
 Frequencies --   3466.3933              3470.3179              3490.9373
 Red. masses --      1.0498                 1.0495                 1.0485
 Frc consts  --      7.4324                 7.4471                 7.5285
 IR Inten    --      0.6750                 1.8329                 0.9646

                     46                     47                     48
                      A                      A                      A
 Frequencies --   3552.9542              3555.8247              3584.3860
 Red. masses --      1.0927                 1.0903                 1.0930
 Frc consts  --      8.1266                 8.1221                 8.2735
 IR Inten    --      0.4316                 0.7239                 2.2794

 - Thermochemistry -
 -------------------
 Temperature   298.150 Kelvin.  Pressure   1.00000 Atm.
 Atom     1 has atomic number  6 and mass  12.00000

 Molecular mass:   101.09530 amu.
 Principal axes and moments of inertia in atomic units:
                           1         2         3
     Eigenvalues --   546.43524 756.90910 936.08316
           X            0.99965   0.02580   0.00514
           Y           -0.02583   0.99965   0.00561
           Z           -0.00499  -0.00574   0.99997
 This molecule is an asymmetric top.
 Rotational symmetry number  1.
 Warning -- assumption of classical behavior for rotation
           may cause significant error
 Rotational temperatures (Kelvin)      0.15851     0.11443     0.09253
 Rotational constants (GHZ):           3.30275     2.38436     1.92797
 Zero-point vibrational energy     418904.0 (Joules/Mol)
                                  100.12047 (Kcal/Mol)
 Warning -- explicit consideration of  13 degrees of freedom as
           vibrations may cause significant error
 Vibrational temperatures:    110.28   215.99   255.23   356.86   379.38
          (Kelvin)            418.15   485.31   570.59   592.06   640.56
                              745.12   766.57   843.31  1025.94  1096.31
                             1176.09  1233.21  1272.09  1352.21  1384.33
                             1418.54  1444.17  1507.43  1550.25  1661.23
                             1679.92  1834.53  1860.91  2021.26  2029.29
                             2082.32  2116.87  2151.27  2332.59  2355.98
                             2399.44  2476.92  4377.06  4463.80  4491.86
                             4535.18  4666.53  4987.36  4993.01  5022.67
                             5111.90  5116.03  5157.13

 Zero-point correction=                           0.159552 (Hartree/Particle)
 Thermal correction to Energy=                    0.168347
 Thermal correction to Enthalpy=                  0.169291
 Thermal correction to Gibbs Free Energy=         0.127234
 Sum of electronic and zero-point Energies=           -323.138150
 Sum of electronic and thermal Energies=              -323.129356
 Sum of electronic and thermal Enthalpies=            -323.128412
 Sum of electronic and thermal Free Energies=         -323.170468

                     E (Thermal)             CV                S
                      KCal/Mol        Cal/Mol-Kelvin    Cal/Mol-Kelvin
 Total                  105.639             33.129             88.515
 Electronic               0.000              0.000              0.000
 Translational            0.889              2.981             39.751
 Rotational               0.889              2.981             27.451
 Vibrational            103.862             27.167             21.314
 Vibration     1          0.599              1.965              3.975
 Vibration     2          0.618              1.903              2.671
 Vibration     3          0.628              1.870              2.356
 Vibration     4          0.662              1.766              1.745
 Vibration     5          0.670              1.739              1.637
 Vibration     6          0.687              1.691              1.470
 Vibration     7          0.718              1.601              1.225
 Vibration     8          0.763              1.477              0.975
 Vibration     9          0.775              1.445              0.921
 Vibration    10          0.805              1.371              0.810
 Vibration    11          0.873              1.210              0.615
 Vibration    12          0.888              1.177              0.581
 Vibration    13          0.943              1.061              0.474

 Optimization completed.
    -- Stationary point found.
 Normal termination of Gaussian 09 at Mon Aug 22 07:03:09 2022.

 -----------------------------------------------------------------
 #P Geom=AllCheck Guess=TCheck SCRF=Check CCSD(T,E4T,FrzG4)/GTBas1
 -----------------------------------------------------------------

 Structure from the checkpoint file:  "G4.Frag_1047.chk"
 ---------
 Frag_1047
 ---------
 Charge =  0 Multiplicity = 1

 SCF Done:  E(RHF) =  -321.176482522     A.U. after   12 cycles
 E2 =    -0.1013509057D+01 EUMP2 =    -0.32218999157906D+03
 CCSD(T)
 CCSD(T)= -0.32228869858D+03
 143\CCSD(T)=-322.2886986\RMSD=6.402e-09\PG=C01 [X(C4H11N3)]\\@
 Normal termination of Gaussian 09 at Mon Aug 22 07:19:32 2022.

 ---------------------------------------------------------
 #P Geom=AllCheck Guess=TCheck SCRF=Check MP4=FrzG4/GTBas2
 ---------------------------------------------------------

 Structure from the checkpoint file:  "G4.Frag_1047.chk"
 ---------
 Frag_1047
 ---------
 Charge =  0 Multiplicity = 1

 SCF Done:  E(RHF) =  -321.189508325     A.U. after   13 cycles
 E2 =    -0.1030072998D+01 EUMP2 =    -0.32221958132225D+03
 Normal termination of Gaussian 09 at Mon Aug 22 07:40:39 2022.

 ---------------------------------------------------------
 #P Geom=AllCheck Guess=TCheck SCRF=Check MP4=FrzG4/GTBas3
 ---------------------------------------------------------

 Structure from the checkpoint file:  "G4.Frag_1047.chk"
 ---------
 Frag_1047
 ---------
 Charge =  0 Multiplicity = 1

 SCF Done:  E(RHF) =  -321.226370536     A.U. after   11 cycles
 E2 =    -0.1242334377D+01 EUMP2 =    -0.32246870491303D+03
 Normal termination of Gaussian 09 at Mon Aug 22 12:58:24 2022.

 -----------------------------------------------------------
 #P Geom=AllCheck Guess=TCheck SCRF=Check MP2=Full/GTLargeXP
 -----------------------------------------------------------

 Structure from the checkpoint file:  "G4.Frag_1047.chk"
 ---------
 Frag_1047
 ---------
 Charge =  0 Multiplicity = 1

 SCF Done:  E(RHF) =  -321.306773408     A.U. after   12 cycles
 E2 =    -0.1627646482D+01 EUMP2 =    -0.32293441988999D+03
 Normal termination of Gaussian 09 at Mon Aug 22 13:11:43 2022.
 SCF Done:  E(RHF) =  -321.331456145     A.U. after    9 cycles
 Normal termination of Gaussian 09 at Mon Aug 22 13:23:11 2022.

                         Standard orientation:
 ---------------------------------------------------------------------
 Center     Atomic      Atomic             Coordinates (Angstroms)
 Number     Number       Type             X           Y           Z
 ---------------------------------------------------------------------
      1          6           0        1.476622   -1.401152    0.002115
      2          6           0        0.930829   -0.186571   -0.012608
      3          6           0        1.760314    1.070621    0.018010
      4          6           0       -0.590442    0.023407    0.002411
      5          7           0       -0.913888    1.058109   -0.994610
      6          7           0       -1.278222   -1.266863   -0.190479
      7          7           0       -0.956927    0.577559    1.307454
      8          1           0        0.875796   -2.301373    0.024492
      9          1           0        2.555045   -1.525420    0.018515
     10          1           0        2.819809    0.834264    0.145769
     11          1           0        1.432386    1.710964    0.842301
     12          1           0        1.640498    1.658790   -0.897190
     13          1           0       -1.925676    1.121981   -1.088060
     14          1           0       -0.567269    0.760870   -1.902506
     15          1           0       -2.281933   -1.105205   -0.163876
     16          1           0       -1.065158   -1.642449   -1.111638
     17          1           0       -1.850167    1.057996    1.251386
     18          1           0       -1.054007   -0.189884    1.964676
 ---------------------------------------------------------------------

 SCF Done:  E(RHF) =  -321.336801712     A.U. after    8 cycles

 The electronic state is 1-A.
 Alpha  occ. eigenvalues --  -15.54724 -15.54475 -15.53906 -11.32431 -11.23107
 Alpha  occ. eigenvalues --  -11.20715 -11.20325  -1.26482  -1.13291  -1.12772
 Alpha  occ. eigenvalues --   -1.06043  -0.92013  -0.85523  -0.72358  -0.68133
 Alpha  occ. eigenvalues --   -0.67605  -0.64135  -0.63077  -0.59437  -0.56725
 Alpha  occ. eigenvalues --   -0.55096  -0.54527  -0.50737  -0.47721  -0.46962
 Alpha  occ. eigenvalues --   -0.40498  -0.38540  -0.35179
 Alpha virt. eigenvalues --    0.03088   0.04157   0.04750   0.04955   0.06337
 Alpha virt. eigenvalues --    0.06858   0.07211   0.07670   0.08209   0.09696
 Alpha virt. eigenvalues --    0.10631   0.11085   0.11204   0.11578   0.11832

 Mulliken charges:
               1
     1  C   -0.501225
     2  C    0.131770
     3  C   -0.580933
     4  C    0.521504
     5  N   -0.735569
     6  N   -0.758537
     7  N   -0.751201
     8  H    0.210814
     9  H    0.183601
    10  H    0.157751
    11  H    0.204608
    12  H    0.170187
    13  H    0.272775
    14  H    0.299251
    15  H    0.279445
    16  H    0.294840
    17  H    0.283398
    18  H    0.317520
 Sum of Mulliken charges =  -0.00000

 Dipole moment (field-independent basis, Debye):
    X=             -2.1405    Y=             -0.7329    Z=             -1.5466  Tot=              2.7406
 Quadrupole moment (field-independent basis, Debye-Ang):
   XX=            -37.5942   YY=            -49.6250   ZZ=            -43.2578
   XY=             -0.8923   XZ=              0.6624   YZ=              0.5635

 Normal termination of Gaussian 09 at Mon Aug 22 18:30:22 2022.
