 Gaussian 09, Revision E.01,
 Gaussian 09:  ES64L-G09RevE.01 30-Nov-2015

 -----
 #P G4
 -----

 --------
 Frag_631
 --------
 Symbolic Z-matrix:
 Charge =  0 Multiplicity = 1

 SCF Done:  E(RB3LYP) =  -403.591672476     A.U. after   12 cycles
 SCF Done:  E(RB3LYP) =  -403.598862990     A.U. after   11 cycles
 SCF Done:  E(RB3LYP) =  -403.599532788     A.U. after   10 cycles
 SCF Done:  E(RB3LYP) =  -403.599745051     A.U. after   10 cycles
 SCF Done:  E(RB3LYP) =  -403.599872959     A.U. after   10 cycles
 SCF Done:  E(RB3LYP) =  -403.599947946     A.U. after    9 cycles
 SCF Done:  E(RB3LYP) =  -403.600030526     A.U. after   10 cycles
 SCF Done:  E(RB3LYP) =  -403.600082123     A.U. after   10 cycles
 SCF Done:  E(RB3LYP) =  -403.600150240     A.U. after   10 cycles
 SCF Done:  E(RB3LYP) =  -403.600167602     A.U. after    9 cycles
 SCF Done:  E(RB3LYP) =  -403.600170103     A.U. after    7 cycles
 SCF Done:  E(RB3LYP) =  -403.600170373     A.U. after    6 cycles
 SCF Done:  E(RB3LYP) =  -403.600170535     A.U. after    6 cycles
 Optimization completed.
    -- Stationary point found.
 Normal termination of Gaussian 09 at Fri Aug 26 12:15:23 2022.

 ----------------------------------------------------------
 #P Geom=AllCheck Guess=TCheck SCRF=Check B3LYP/GTBas3 Freq
 ----------------------------------------------------------

 Structure from the checkpoint file:  "G4.Frag_631.chk"
 --------
 Frag_631
 --------
 Charge =  0 Multiplicity = 1

 SCF Done:  E(RB3LYP) =  -403.600170535     A.U. after    1 cycles

  Exact polarizability:  73.276  -0.274  68.604  -0.309  -0.344  67.128
 Approx polarizability:  99.042   1.432  97.801  -1.925  -0.326  97.033

                      1                      2                      3
                      A                      A                      A
 Frequencies --     62.5447               113.6306               207.1072
 Red. masses --      2.1261                 1.3263                 1.0998
 Frc consts  --      0.0049                 0.0101                 0.0278
 IR Inten    --      5.3455                18.1905                 0.4847

                      4                      5                      6
                      A                      A                      A
 Frequencies --    238.7557               246.1387               264.1355
 Red. masses --      1.4866                 1.1478                 1.2506
 Frc consts  --      0.0499                 0.0410                 0.0514
 IR Inten    --      0.8732                30.4961                26.9972

                      7                      8                      9
                      A                      A                      A
 Frequencies --    273.1099               284.1063               332.0327
 Red. masses --      2.0410                 1.7594                 2.6707
 Frc consts  --      0.0897                 0.0837                 0.1735
 IR Inten    --      7.8473                12.0734                14.1927

                     10                     11                     12
                      A                      A                      A
 Frequencies --    358.0345               358.8307               394.1471
 Red. masses --      2.4973                 2.3324                 1.4973
 Frc consts  --      0.1886                 0.1769                 0.1370
 IR Inten    --      0.8623                 1.9975                45.6182

                     13                     14                     15
                      A                      A                      A
 Frequencies --    423.8005               465.9149               539.1175
 Red. masses --      2.6616                 1.9069                 2.6461
 Frc consts  --      0.2816                 0.2439                 0.4531
 IR Inten    --      6.6443                49.6057                 6.5989

                     16                     17                     18
                      A                      A                      A
 Frequencies --    541.2916               561.2074               704.8360
 Red. masses --      3.4586                 4.0771                 3.4834
 Frc consts  --      0.5971                 0.7566                 1.0196
 IR Inten    --     18.9001                15.2790                 7.6013

                     19                     20                     21
                      A                      A                      A
 Frequencies --    844.4174               887.3277               941.4017
 Red. masses --      2.5863                 1.6992                 1.6227
 Frc consts  --      1.0866                 0.7882                 0.8473
 IR Inten    --      0.3758               117.4379                 0.9961

                     22                     23                     24
                      A                      A                      A
 Frequencies --    944.3719               960.9733               965.6388
 Red. masses --      1.6789                 1.9697                 1.4339
 Frc consts  --      0.8822                 1.0717                 0.7878
 IR Inten    --      2.7433                57.8507                21.1678

                     25                     26                     27
                      A                      A                      A
 Frequencies --   1008.4562              1038.5937              1061.7612
 Red. masses --      2.3707                 1.4117                 1.6674
 Frc consts  --      1.4205                 0.8972                 1.1075
 IR Inten    --    102.7196                 3.8868                59.9399

                     28                     29                     30
                      A                      A                      A
 Frequencies --   1158.1175              1199.1728              1244.2224
 Red. masses --      2.1930                 1.5002                 2.5292
 Frc consts  --      1.7330                 1.2710                 2.3069
 IR Inten    --     37.9116                99.0694                 7.3630

                     31                     32                     33
                      A                      A                      A
 Frequencies --   1255.1950              1275.3156              1348.8402
 Red. masses --      2.5363                 2.6001                 1.6109
 Frc consts  --      2.3544                 2.4916                 1.7268
 IR Inten    --      3.2256                18.3443               111.8394

                     34                     35                     36
                      A                      A                      A
 Frequencies --   1392.2086              1394.8868              1407.9314
 Red. masses --      1.2519                 1.2443                 1.4899
 Frc consts  --      1.4296                 1.4264                 1.7401
 IR Inten    --      7.6409                 8.8776                20.4160

                     37                     38                     39
                      A                      A                      A
 Frequencies --   1441.8366              1477.0879              1491.0558
 Red. masses --      1.4651                 1.0492                 1.0479
 Frc consts  --      1.7945                 1.3488                 1.3727
 IR Inten    --     37.5436                 0.1074                 0.0336

                     40                     41                     42
                      A                      A                      A
 Frequencies --   1494.8474              1501.4458              1509.2857
 Red. masses --      1.0478                 1.0511                 1.0538
 Frc consts  --      1.3795                 1.3961                 1.4144
 IR Inten    --      0.4225                 3.4060                 3.0774

                     43                     44                     45
                      A                      A                      A
 Frequencies --   1528.8861              1654.2710              3030.1546
 Red. masses --      1.0733                 1.1023                 1.0370
 Frc consts  --      1.4781                 1.7773                 5.6099
 IR Inten    --     15.9879                50.2615                27.8343

                     46                     47                     48
                      A                      A                      A
 Frequencies --   3036.2907              3045.4966              3088.1645
 Red. masses --      1.0359                 1.0377                 1.0989
 Frc consts  --      5.6267                 5.6708                 6.1748
 IR Inten    --     21.3396                21.4519                28.7741

                     49                     50                     51
                      A                      A                      A
 Frequencies --   3099.3750              3113.5518              3119.5240
 Red. masses --      1.1008                 1.0985                 1.1009
 Frc consts  --      6.2301                 6.2744                 6.3120
 IR Inten    --     22.2094                25.0956                25.2214

                     52                     53                     54
                      A                      A                      A
 Frequencies --   3123.2856              3134.0856              3495.5848
 Red. masses --      1.1003                 1.1014                 1.0514
 Frc consts  --      6.3241                 6.3739                 7.5695
 IR Inten    --     17.6541                19.8299                 0.5016

                     55                     56                     57
                      A                      A                      A
 Frequencies --   3579.8444              3811.3960              3823.4174
 Red. masses --      1.0891                 1.0655                 1.0649
 Frc consts  --      8.2236                 9.1197                 9.1720
 IR Inten    --      2.4340                41.0556                36.7012

 - Thermochemistry -
 -------------------
 Temperature   298.150 Kelvin.  Pressure   1.00000 Atm.
 Atom     1 has atomic number  6 and mass  12.00000

 Molecular mass:   119.09463 amu.
 Principal axes and moments of inertia in atomic units:
                           1         2         3
     Eigenvalues --   730.937981019.140871033.33438
           X            0.99971  -0.02097   0.01177
           Y            0.02311   0.97320  -0.22879
           Z           -0.00665   0.22900   0.97340
 This molecule is an asymmetric top.
 Rotational symmetry number  1.
 Warning -- assumption of classical behavior for rotation
           may cause significant error
 Rotational temperatures (Kelvin)      0.11850     0.08499     0.08382
 Rotational constants (GHZ):           2.46908     1.77085     1.74652
 Zero-point vibrational energy     486260.8 (Joules/Mol)
                                  116.21913 (Kcal/Mol)
 Warning -- explicit consideration of  17 degrees of freedom as
           vibrations may cause significant error
 Vibrational temperatures:     89.99   163.49   297.98   343.52   354.14
          (Kelvin)            380.03   392.94   408.77   477.72   515.13
                              516.28   567.09   609.75   670.35   775.67
                              778.80   807.45  1014.10  1214.93  1276.67
                             1354.47  1358.74  1382.62  1389.34  1450.94
                             1494.30  1527.64  1666.27  1725.34  1790.16
                             1805.94  1834.89  1940.68  2003.08  2006.93
                             2025.70  2074.48  2125.20  2145.29  2150.75
                             2160.24  2171.52  2199.72  2380.12  4359.71
                             4368.54  4381.78  4443.17  4459.30  4479.70
                             4488.29  4493.71  4509.24  5029.36  5150.59
                             5483.74  5501.04

 Zero-point correction=                           0.185207 (Hartree/Particle)
 Thermal correction to Energy=                    0.195630
 Thermal correction to Enthalpy=                  0.196574
 Thermal correction to Gibbs Free Energy=         0.151076
 Sum of electronic and zero-point Energies=           -403.414964
 Sum of electronic and thermal Energies=              -403.404541
 Sum of electronic and thermal Enthalpies=            -403.403597
 Sum of electronic and thermal Free Energies=         -403.449094

                     E (Thermal)             CV                S
                      KCal/Mol        Cal/Mol-Kelvin    Cal/Mol-Kelvin
 Total                  122.760             39.452             95.758
 Electronic               0.000              0.000              0.000
 Translational            0.889              2.981             40.239
 Rotational               0.889              2.981             28.134
 Vibrational            120.982             33.490             27.385
 Vibration     1          0.597              1.972              4.375
 Vibration     2          0.607              1.938              3.206
 Vibration     3          0.641              1.830              2.069
 Vibration     4          0.657              1.781              1.812
 Vibration     5          0.661              1.769              1.758
 Vibration     6          0.671              1.739              1.634
 Vibration     7          0.676              1.723              1.576
 Vibration     8          0.683              1.703              1.509
 Vibration     9          0.714              1.612              1.250
 Vibration    10          0.733              1.559              1.131
 Vibration    11          0.734              1.557              1.127
 Vibration    12          0.761              1.483              0.984
 Vibration    13          0.786              1.418              0.879
 Vibration    14          0.823              1.326              0.749
 Vibration    15          0.894              1.164              0.567
 Vibration    16          0.896              1.159              0.563
 Vibration    17          0.917              1.115              0.521

 Optimization completed.
    -- Stationary point found.
 Normal termination of Gaussian 09 at Fri Aug 26 12:16:45 2022.

 -----------------------------------------------------------------
 #P Geom=AllCheck Guess=TCheck SCRF=Check CCSD(T,E4T,FrzG4)/GTBas1
 -----------------------------------------------------------------

 Structure from the checkpoint file:  "G4.Frag_631.chk"
 --------
 Frag_631
 --------
 Charge =  0 Multiplicity = 1

 SCF Done:  E(RHF) =  -401.076380667     A.U. after   12 cycles
 E2 =    -0.1189113297D+01 EUMP2 =    -0.40226549396375D+03
 CCSD(T)
 CCSD(T)= -0.40237166888D+03
 Normal termination of Gaussian 09 at Fri Aug 26 12:25:55 2022.

 ---------------------------------------------------------
 #P Geom=AllCheck Guess=TCheck SCRF=Check MP4=FrzG4/GTBas2
 ---------------------------------------------------------

 Structure from the checkpoint file:  "G4.Frag_631.chk"
 --------
 Frag_631
 --------
 Charge =  0 Multiplicity = 1

 SCF Done:  E(RHF) =  -401.087459705     A.U. after   11 cycles
 E2 =    -0.1209588247D+01 EUMP2 =    -0.40229704795241D+03
 Normal termination of Gaussian 09 at Fri Aug 26 12:29:16 2022.

 ---------------------------------------------------------
 #P Geom=AllCheck Guess=TCheck SCRF=Check MP4=FrzG4/GTBas3
 ---------------------------------------------------------

 Structure from the checkpoint file:  "G4.Frag_631.chk"
 --------
 Frag_631
 --------
 Charge =  0 Multiplicity = 1

 SCF Done:  E(RHF) =  -401.133372063     A.U. after   10 cycles
 E2 =    -0.1480441766D+01 EUMP2 =    -0.40261381382857D+03
 Normal termination of Gaussian 09 at Fri Aug 26 12:56:30 2022.

 -----------------------------------------------------------
 #P Geom=AllCheck Guess=TCheck SCRF=Check MP2=Full/GTLargeXP
 -----------------------------------------------------------

 Structure from the checkpoint file:  "G4.Frag_631.chk"
 --------
 Frag_631
 --------
 Charge =  0 Multiplicity = 1

 SCF Done:  E(RHF) =  -401.235386648     A.U. after   11 cycles
 E2 =    -0.1933243989D+01 EUMP2 =    -0.40316863063690D+03
 Normal termination of Gaussian 09 at Fri Aug 26 13:04:26 2022.
 SCF Done:  E(RHF) =  -401.267162858     A.U. after    8 cycles
 Normal termination of Gaussian 09 at Fri Aug 26 13:07:10 2022.

                         Standard orientation:
 ---------------------------------------------------------------------
 Center     Atomic      Atomic             Coordinates (Angstroms)
 Number     Number       Type             X           Y           Z
 ---------------------------------------------------------------------
      1          6           0        1.338886    0.521027   -1.329707
      2          6           0        0.777058    0.011114    0.012305
      3          6           0        1.265147    0.912258    1.161021
      4          6           0        1.271128   -1.427941    0.250468
      5          6           0       -0.783929   -0.002560   -0.026469
      6          7           0       -1.324367    1.339403   -0.172419
      7          8           0       -1.337438   -0.540198    1.162465
      8          8           0       -1.184171   -0.882163   -1.058243
      9          1           0        2.426832    0.399324   -1.348358
     10          1           0        0.919916   -0.038935   -2.169468
     11          1           0        1.139806    1.587221   -1.488119
     12          1           0        2.359639    0.922358    1.189776
     13          1           0        0.915701    1.941329    1.045982
     14          1           0        0.914742    0.539287    2.128691
     15          1           0        0.843897   -1.838321    1.168718
     16          1           0        2.361889   -1.437559    0.344626
     17          1           0        0.989386   -2.081326   -0.577794
     18          1           0       -0.892557    1.806067   -0.963091
     19          1           0       -2.313280    1.256673   -0.395213
     20          1           0       -1.470010    0.206433    1.756515
     21          1           0       -1.962260   -1.342873   -0.724808
 ---------------------------------------------------------------------

 SCF Done:  E(RHF) =  -401.274174411     A.U. after    8 cycles

 The electronic state is 1-A.
 Alpha  occ. eigenvalues --  -20.56498 -20.55616 -15.55118 -11.36618 -11.23642
 Alpha  occ. eigenvalues --  -11.21201 -11.20877 -11.20011  -1.42516  -1.33279
 Alpha  occ. eigenvalues --   -1.17971  -1.08677  -0.93036  -0.92357  -0.87872
 Alpha  occ. eigenvalues --   -0.75566  -0.71678  -0.70316  -0.67480  -0.63277
 Alpha  occ. eigenvalues --   -0.59205  -0.58236  -0.57069  -0.55529  -0.53693
 Alpha  occ. eigenvalues --   -0.53100  -0.51331  -0.50882  -0.50792  -0.46057
 Alpha  occ. eigenvalues --   -0.45925  -0.43675  -0.42027
 Alpha virt. eigenvalues --    0.03163   0.03936   0.04287   0.04468   0.06298
 Alpha virt. eigenvalues --    0.06429   0.06613   0.07192   0.07473   0.09522
 Alpha virt. eigenvalues --    0.09596   0.09939   0.10189   0.11381   0.11853

 Mulliken charges:
               1
     1  C   -0.636720
     2  C    0.443766
     3  C   -0.628025
     4  C   -0.641431
     5  C    0.558104
     6  N   -0.773555
     7  O   -0.650672
     8  O   -0.641645
     9  H    0.174893
    10  H    0.198928
    11  H    0.152162
    12  H    0.171561
    13  H    0.188408
    14  H    0.162599
    15  H    0.190967
    16  H    0.164073
    17  H    0.185441
    18  H    0.301279
    19  H    0.289412
    20  H    0.398576
    21  H    0.391878
 Sum of Mulliken charges =  -0.00000

 Dipole moment (field-independent basis, Debye):
    X=             -0.6368    Y=              1.1465    Z=             -0.0210  Tot=              1.3117
 Quadrupole moment (field-independent basis, Debye-Ang):
   XX=            -46.6813   YY=            -52.6406   ZZ=            -52.0533
   XY=             -0.4248   XZ=              0.3161   YZ=             -1.0329

 Normal termination of Gaussian 09 at Fri Aug 26 13:28:22 2022.
