 Gaussian 09, Revision E.01,
 Gaussian 09:  ES64L-G09RevE.01 30-Nov-2015

 -----
 #P G4
 -----

 --------
 Frag_899
 --------
 Symbolic Z-matrix:
 Charge =  0 Multiplicity = 1

 SCF Done:  E(RB3LYP) =  -232.471991269     A.U. after   13 cycles
 SCF Done:  E(RB3LYP) =  -232.475364510     A.U. after   12 cycles
 SCF Done:  E(RB3LYP) =  -232.472140922     A.U. after   13 cycles
 SCF Done:  E(RB3LYP) =  -232.475707866     A.U. after   10 cycles
 SCF Done:  E(RB3LYP) =  -232.475868383     A.U. after   10 cycles
 SCF Done:  E(RB3LYP) =  -232.475875369     A.U. after    9 cycles
 SCF Done:  E(RB3LYP) =  -232.475876386     A.U. after    8 cycles
 SCF Done:  E(RB3LYP) =  -232.475880855     A.U. after   10 cycles
 SCF Done:  E(RB3LYP) =  -232.475874700     A.U. after   11 cycles
 SCF Done:  E(RB3LYP) =  -232.472108570     A.U. after   12 cycles
 SCF Done:  E(RB3LYP) =  -232.478524717     A.U. after    9 cycles
 SCF Done:  E(RB3LYP) =  -232.478526025     A.U. after    7 cycles
 SCF Done:  E(RB3LYP) =  -232.478526214     A.U. after    7 cycles
 Optimization completed.
    -- Stationary point found.
 Normal termination of Gaussian 09 at Sat Aug 20 20:30:10 2022.

 ----------------------------------------------------------
 #P Geom=AllCheck Guess=TCheck SCRF=Check B3LYP/GTBas3 Freq
 ----------------------------------------------------------

 Structure from the checkpoint file:  "G4.Frag_899.chk"
 --------
 Frag_899
 --------
 Charge =  0 Multiplicity = 1

 SCF Done:  E(RB3LYP) =  -232.478526214     A.U. after    1 cycles

  Exact polarizability:  50.837   1.016  48.835   1.444   1.898  39.203
 Approx polarizability:  72.503   4.680  64.926   5.842   3.938  59.133

                      1                      2                      3
                      A                      A                      A
 Frequencies --     93.9268               188.9261               219.5864
 Red. masses --      2.6496                 1.0579                 1.1229
 Frc consts  --      0.0138                 0.0222                 0.0319
 IR Inten    --      4.1164                 0.0724                 1.0670

                      4                      5                      6
                      A                      A                      A
 Frequencies --    268.0545               335.7536               398.3594
 Red. masses --      3.0403                 2.1868                 2.0588
 Frc consts  --      0.1287                 0.1452                 0.1925
 IR Inten    --      6.6965                 0.4148                 0.9242

                      7                      8                      9
                      A                      A                      A
 Frequencies --    636.7161               795.0315               913.2905
 Red. masses --      3.3914                 3.1896                 1.3433
 Frc consts  --      0.8101                 1.1878                 0.6601
 IR Inten    --      3.9037                11.9778                10.1544

                     10                     11                     12
                      A                      A                      A
 Frequencies --    927.0429               942.3015               973.3499
 Red. masses --      1.5920                 1.3076                 1.4961
 Frc consts  --      0.8061                 0.6841                 0.8351
 IR Inten    --      7.8199                 9.5343                 1.4107

                     13                     14                     15
                      A                      A                      A
 Frequencies --   1130.0082              1157.1106              1200.5663
 Red. masses --      1.8894                 2.0704                 1.7420
 Frc consts  --      1.4215                 1.6333                 1.4793
 IR Inten    --      4.6335                 2.3289                 0.6081

                     16                     17                     18
                      A                      A                      A
 Frequencies --   1304.4874              1350.7802              1399.8748
 Red. masses --      1.3905                 1.7072                 1.2333
 Frc consts  --      1.3941                 1.8352                 1.4239
 IR Inten    --      0.3645                 2.0190                 2.9092

                     19                     20                     21
                      A                      A                      A
 Frequencies --   1409.4700              1432.8197              1482.9110
 Red. masses --      1.1903                 1.2278                 1.0418
 Frc consts  --      1.3932                 1.4851                 1.3498
 IR Inten    --      1.3452                 7.7967                 0.3788

                     22                     23                     24
                      A                      A                      A
 Frequencies --   1489.4234              1501.9052              1507.2595
 Red. masses --      1.0495                 1.0436                 1.0628
 Frc consts  --      1.3717                 1.3870                 1.4226
 IR Inten    --      2.5668                 8.3931                 7.6582

                     25                     26                     27
                      A                      A                      A
 Frequencies --   1831.8866              2847.2415              2981.4501
 Red. masses --     10.5520                 1.0819                 1.0807
 Frc consts  --     20.8632                 5.1674                 5.6599
 IR Inten    --    151.5627               127.5655                18.5671

                     28                     29                     30
                      A                      A                      A
 Frequencies --   3033.5237              3045.4630              3101.4826
 Red. masses --      1.0348                 1.0356                 1.1017
 Frc consts  --      5.6106                 5.6591                 6.2438
 IR Inten    --     23.0466                14.8576                24.8881

                     31                     32                     33
                      A                      A                      A
 Frequencies --   3111.1188              3115.0903              3125.4717
 Red. masses --      1.1019                 1.1016                 1.1012
 Frc consts  --      6.2840                 6.2982                 6.3378
 IR Inten    --      2.9712                38.8374                17.8776

 - Thermochemistry -
 -------------------
 Temperature   298.150 Kelvin.  Pressure   1.00000 Atm.
 Atom     1 has atomic number  6 and mass  12.00000

 Molecular mass:    72.05751 amu.
 Principal axes and moments of inertia in atomic units:
                           1         2         3
     Eigenvalues --   241.48987 442.23608 610.32773
           X            0.99975   0.01638  -0.01510
           Y           -0.01627   0.99984   0.00776
           Z            0.01522  -0.00751   0.99986
 This molecule is an asymmetric top.
 Rotational symmetry number  1.
 Rotational temperatures (Kelvin)      0.35866     0.19585     0.14191
 Rotational constants (GHZ):           7.47336     4.08095     2.95700
 Zero-point vibrational energy     294590.5 (Joules/Mol)
                                   70.40882 (Kcal/Mol)
 Warning -- explicit consideration of   6 degrees of freedom as
           vibrations may cause significant error
 Vibrational temperatures:    135.14   271.82   315.94   385.67   483.07
          (Kelvin)            573.15   916.09  1143.87  1314.02  1333.81
                             1355.76  1400.43  1625.83  1664.82  1727.34
                             1876.86  1943.47  2014.11  2027.91  2061.51
                             2133.58  2142.95  2160.90  2168.61  2635.67
                             4096.54  4289.64  4364.56  4381.74  4462.34
                             4476.20  4481.91  4496.85

 Zero-point correction=                           0.112204 (Hartree/Particle)
 Thermal correction to Energy=                    0.118570
 Thermal correction to Enthalpy=                  0.119514
 Thermal correction to Gibbs Free Energy=         0.082745
 Sum of electronic and zero-point Energies=           -232.366323
 Sum of electronic and thermal Energies=              -232.359956
 Sum of electronic and thermal Enthalpies=            -232.359012
 Sum of electronic and thermal Free Energies=         -232.395781

                     E (Thermal)             CV                S
                      KCal/Mol        Cal/Mol-Kelvin    Cal/Mol-Kelvin
 Total                   74.404             21.400             77.387
 Electronic               0.000              0.000              0.000
 Translational            0.889              2.981             38.741
 Rotational               0.889              2.981             25.680
 Vibrational             72.626             15.439             12.966
 Vibration     1          0.603              1.954              3.577
 Vibration     2          0.633              1.855              2.238
 Vibration     3          0.647              1.811              1.963
 Vibration     4          0.673              1.732              1.609
 Vibration     5          0.717              1.604              1.232
 Vibration     6          0.765              1.474              0.969

 Optimization completed.
    -- Stationary point found.
 Normal termination of Gaussian 09 at Sat Aug 20 20:31:50 2022.

 -----------------------------------------------------------------
 #P Geom=AllCheck Guess=TCheck SCRF=Check CCSD(T,E4T,FrzG4)/GTBas1
 -----------------------------------------------------------------

 Structure from the checkpoint file:  "G4.Frag_899.chk"
 --------
 Frag_899
 --------
 Charge =  0 Multiplicity = 1

 SCF Done:  E(RHF) =  -230.985672231     A.U. after   14 cycles
 E2 =    -0.6951553616D+00 EUMP2 =    -0.23168082759278D+03
 CCSD(T)
 CCSD(T)= -0.23175116787D+03
 MP4SDTQ=-231.7521909\MP4SDQ=-231.7285157\CCSD=-231.7280274\CCSD(T)=-23
 Normal termination of Gaussian 09 at Sat Aug 20 20:34:00 2022.

 ---------------------------------------------------------
 #P Geom=AllCheck Guess=TCheck SCRF=Check MP4=FrzG4/GTBas2
 ---------------------------------------------------------

 Structure from the checkpoint file:  "G4.Frag_899.chk"
 --------
 Frag_899
 --------
 Charge =  0 Multiplicity = 1

 SCF Done:  E(RHF) =  -230.990900743     A.U. after   11 cycles
 E2 =    -0.7032760912D+00 EUMP2 =    -0.23169417683376D+03
 Normal termination of Gaussian 09 at Sat Aug 20 20:36:14 2022.

 ---------------------------------------------------------
 #P Geom=AllCheck Guess=TCheck SCRF=Check MP4=FrzG4/GTBas3
 ---------------------------------------------------------

 Structure from the checkpoint file:  "G4.Frag_899.chk"
 --------
 Frag_899
 --------
 Charge =  0 Multiplicity = 1

 SCF Done:  E(RHF) =  -231.012609221     A.U. after   12 cycles
 E2 =    -0.8613519666D+00 EUMP2 =    -0.23187396118739D+03
 Normal termination of Gaussian 09 at Sat Aug 20 21:21:08 2022.

 -----------------------------------------------------------
 #P Geom=AllCheck Guess=TCheck SCRF=Check MP2=Full/GTLargeXP
 -----------------------------------------------------------

 Structure from the checkpoint file:  "G4.Frag_899.chk"
 --------
 Frag_899
 --------
 Charge =  0 Multiplicity = 1

 SCF Done:  E(RHF) =  -231.067928958     A.U. after   12 cycles
 E2 =    -0.1133473190D+01 EUMP2 =    -0.23220140214776D+03
 Normal termination of Gaussian 09 at Sat Aug 20 21:24:01 2022.
 SCF Done:  E(RHF) =  -231.086441052     A.U. after    9 cycles
 Normal termination of Gaussian 09 at Sat Aug 20 21:27:51 2022.

                         Standard orientation:
 ---------------------------------------------------------------------
 Center     Atomic      Atomic             Coordinates (Angstroms)
 Number     Number       Type             X           Y           Z
 ---------------------------------------------------------------------
      1          6           0       -1.512946   -0.852449    0.253374
      2          6           0       -0.426671    0.012499   -0.413520
      3          6           0       -0.456729    1.471151    0.041422
      4          6           0        0.931171   -0.627714   -0.195737
      5          8           0        1.895497   -0.074838    0.267185
      6          1           0       -2.508740   -0.478091    0.000229
      7          1           0       -1.412290   -0.832156    1.343761
      8          1           0       -1.453840   -1.896319   -0.072472
      9          1           0       -0.593312   -0.039249   -1.502080
     10          1           0       -1.421665    1.929606   -0.194057
     11          1           0        0.333062    2.050431   -0.442889
     12          1           0       -0.297763    1.542814    1.121714
     13          1           0        0.981617   -1.699255   -0.504923
 ---------------------------------------------------------------------

 SCF Done:  E(RHF) =  -231.090284811     A.U. after    7 cycles

 The electronic state is 1-A.
 Alpha  occ. eigenvalues --  -20.55489 -11.32857 -11.24913 -11.23452 -11.21925
 Alpha  occ. eigenvalues --   -1.39489  -1.08992  -0.94470  -0.88651  -0.75981
 Alpha  occ. eigenvalues --   -0.68004  -0.64320  -0.62408  -0.56695  -0.55093
 Alpha  occ. eigenvalues --   -0.53473  -0.52523  -0.49474  -0.48277  -0.41526
 Alpha virt. eigenvalues --    0.03388   0.04207   0.04364   0.04784   0.06822
 Alpha virt. eigenvalues --    0.07167   0.07437   0.07548   0.07905   0.09905
 Alpha virt. eigenvalues --    0.10810   0.10949   0.11286   0.13128   0.15110

 Mulliken charges:
               1
     1  C   -0.530409
     2  C    0.031160
     3  C   -0.537988
     4  C    0.205845
     5  O   -0.513782
     6  H    0.171718
     7  H    0.171737
     8  H    0.162606
     9  H    0.160977
    10  H    0.164338
    11  H    0.182128
    12  H    0.171540
    13  H    0.160129
 Sum of Mulliken charges =  -0.00000

 Dipole moment (field-independent basis, Debye):
    X=             -2.8382    Y=             -0.9297    Z=             -1.0940  Tot=              3.1806
 Quadrupole moment (field-independent basis, Debye-Ang):
   XX=            -38.2557   YY=            -30.6196   ZZ=            -31.2371
   XY=             -0.7743   XZ=             -1.5378   YZ=              0.2896

 Normal termination of Gaussian 09 at Sat Aug 20 22:58:18 2022.
