 Gaussian 09, Revision E.01,
 Gaussian 09:  ES64L-G09RevE.01 30-Nov-2015

 -----
 #P G4
 -----

 --------
 Frag_555
 --------
 Symbolic Z-matrix:
 Charge =  0 Multiplicity = 1

 SCF Done:  E(RB3LYP) =  -228.641272456     A.U. after   13 cycles
 SCF Done:  E(RB3LYP) =  -228.655586608     A.U. after   12 cycles
 SCF Done:  E(RB3LYP) =  -228.655976995     A.U. after   10 cycles
 SCF Done:  E(RB3LYP) =  -228.656015102     A.U. after   10 cycles
 SCF Done:  E(RB3LYP) =  -228.656051547     A.U. after   10 cycles
 SCF Done:  E(RB3LYP) =  -228.656079991     A.U. after   10 cycles
 SCF Done:  E(RB3LYP) =  -228.656105452     A.U. after   10 cycles
 SCF Done:  E(RB3LYP) =  -228.656119638     A.U. after   10 cycles
 SCF Done:  E(RB3LYP) =  -228.656105276     A.U. after    9 cycles
 SCF Done:  E(RB3LYP) =  -228.636681616     A.U. after   13 cycles
 SCF Done:  E(RB3LYP) =  -228.657081281     A.U. after   11 cycles
 SCF Done:  E(RB3LYP) =  -228.657082284     A.U. after    7 cycles
 SCF Done:  E(RB3LYP) =  -228.657082436     A.U. after    7 cycles
 Optimization completed.
    -- Stationary point found.
 Normal termination of Gaussian 09 at Fri Aug 26 10:37:47 2022.

 ----------------------------------------------------------
 #P Geom=AllCheck Guess=TCheck SCRF=Check B3LYP/GTBas3 Freq
 ----------------------------------------------------------

 Structure from the checkpoint file:  "G4.Frag_555.chk"
 --------
 Frag_555
 --------
 Charge =  0 Multiplicity = 1

 SCF Done:  E(RB3LYP) =  -228.657082436     A.U. after    1 cycles

  Exact polarizability:  50.980  -2.175  53.378   3.172  -1.754  36.263
 Approx polarizability:  67.138  -7.650  82.221   6.524  -4.248  52.522

                      1                      2                      3
                      A                      A                      A
 Frequencies --     45.8870               218.6828               250.1288
 Red. masses --      2.4387                 1.0839                 2.9688
 Frc consts  --      0.0030                 0.0305                 0.1094
 IR Inten    --      1.5694                 0.5057                 2.0302

                      4                      5                      6
                      A                      A                      A
 Frequencies --    390.4825               446.2540               521.2294
 Red. masses --      1.2055                 1.9190                 2.5733
 Frc consts  --      0.1083                 0.2252                 0.4119
 IR Inten    --     65.0547                11.4787                15.8738

                      7                      8                      9
                      A                      A                      A
 Frequencies --    569.6672               704.6499               797.3127
 Red. masses --      1.2896                 3.8676                 1.2043
 Frc consts  --      0.2466                 1.1314                 0.4511
 IR Inten    --    164.9076                39.3233                 1.1058

                     10                     11                     12
                      A                      A                      A
 Frequencies --    810.7627               847.2366               995.8813
 Red. masses --      2.4194                 1.1410                 2.3358
 Frc consts  --      0.9370                 0.4825                 1.3649
 IR Inten    --      4.4421                30.3970                 2.9889

                     13                     14                     15
                      A                      A                      A
 Frequencies --   1057.4310              1087.6500              1146.5873
 Red. masses --      1.5049                 1.8383                 1.4270
 Frc consts  --      0.9914                 1.2813                 1.1053
 IR Inten    --     11.7252                 4.0478                74.9088

                     16                     17                     18
                      A                      A                      A
 Frequencies --   1168.6628              1272.3445              1338.4547
 Red. masses --      1.4932                 1.2126                 1.4070
 Frc consts  --      1.2016                 1.1566                 1.4851
 IR Inten    --     44.4500                 2.7591                 5.9196

                     19                     20                     21
                      A                      A                      A
 Frequencies --   1401.3296              1438.6947              1484.8057
 Red. masses --      1.3285                 2.1080                 1.0647
 Frc consts  --      1.5371                 2.5707                 1.3829
 IR Inten    --     10.8849                44.5931                 2.4249

                     22                     23                     24
                      A                      A                      A
 Frequencies --   1495.2223              1510.2218              1627.6237
 Red. masses --      1.0435                 1.0840                 1.2383
 Frc consts  --      1.3745                 1.4566                 1.9327
 IR Inten    --      5.2057                 9.8607                53.5021

                     25                     26                     27
                      A                      A                      A
 Frequencies --   1724.4868              3018.6167              3043.4150
 Red. masses --      5.7047                 1.0672                 1.0346
 Frc consts  --      9.9954                 5.7297                 5.6459
 IR Inten    --    186.6892                25.1964                23.6277

                     28                     29                     30
                      A                      A                      A
 Frequencies --   3081.6684              3113.5154              3123.4006
 Red. masses --      1.0948                 1.1024                 1.1019
 Frc consts  --      6.1254                 6.2962                 6.3335
 IR Inten    --     10.8593                26.9111                29.5924

                     31                     32                     33
                      A                      A                      A
 Frequencies --   3494.1675              3570.0129              3685.8195
 Red. masses --      1.0748                 1.0462                 1.0994
 Frc consts  --      7.7313                 7.8561                 8.8000
 IR Inten    --      0.3983                16.4479                16.8519

 - Thermochemistry -
 -------------------
 Temperature   298.150 Kelvin.  Pressure   1.00000 Atm.
 Atom     1 has atomic number  6 and mass  12.00000

 Molecular mass:    72.06875 amu.
 Principal axes and moments of inertia in atomic units:
                           1         2         3
     Eigenvalues --   225.44310 469.30303 597.96934
           X            0.99959   0.02700  -0.00950
           Y           -0.02704   0.99963  -0.00422
           Z            0.00938   0.00447   0.99995
 This molecule is an asymmetric top.
 Rotational symmetry number  1.
 Rotational temperatures (Kelvin)      0.38419     0.18456     0.14485
 Rotational constants (GHZ):           8.00531     3.84558     3.01812
 Zero-point vibrational energy     301951.2 (Joules/Mol)
                                   72.16808 (Kcal/Mol)
 Warning -- explicit consideration of   7 degrees of freedom as
           vibrations may cause significant error
 Vibrational temperatures:     66.02   314.64   359.88   561.82   642.06
          (Kelvin)            749.93   819.62  1013.83  1147.15  1166.51
                             1218.98  1432.85  1521.41  1564.88  1649.68
                             1681.44  1830.62  1925.74  2016.20  2069.96
                             2136.30  2151.29  2172.87  2341.78  2481.15
                             4343.11  4378.79  4433.83  4479.65  4493.87
                             5027.32  5136.45  5303.07

 Zero-point correction=                           0.115007 (Hartree/Particle)
 Thermal correction to Energy=                    0.121193
 Thermal correction to Enthalpy=                  0.122137
 Thermal correction to Gibbs Free Energy=         0.085388
 Sum of electronic and zero-point Energies=           -228.542075
 Sum of electronic and thermal Energies=              -228.535889
 Sum of electronic and thermal Enthalpies=            -228.534945
 Sum of electronic and thermal Free Energies=         -228.571694

                     E (Thermal)             CV                S
                      KCal/Mol        Cal/Mol-Kelvin    Cal/Mol-Kelvin
 Total                   76.050             21.620             77.346
 Electronic               0.000              0.000              0.000
 Translational            0.889              2.981             38.742
 Rotational               0.889              2.981             25.651
 Vibrational             74.272             15.658             12.953
 Vibration     1          0.595              1.979              4.987
 Vibration     2          0.646              1.813              1.970
 Vibration     3          0.663              1.763              1.730
 Vibration     4          0.758              1.491              0.998
 Vibration     5          0.806              1.369              0.807
 Vibration     6          0.876              1.203              0.607
 Vibration     7          0.926              1.097              0.505

 Optimization completed.
    -- Stationary point found.
 Normal termination of Gaussian 09 at Fri Aug 26 10:38:10 2022.

 -----------------------------------------------------------------
 #P Geom=AllCheck Guess=TCheck SCRF=Check CCSD(T,E4T,FrzG4)/GTBas1
 -----------------------------------------------------------------

 Structure from the checkpoint file:  "G4.Frag_555.chk"
 --------
 Frag_555
 --------
 Charge =  0 Multiplicity = 1

 SCF Done:  E(RHF) =  -227.151124369     A.U. after   12 cycles
 E2 =    -0.7130540239D+00 EUMP2 =    -0.22786417839338D+03
 CCSD(T)
 CCSD(T)= -0.22793498644D+03
 44\MP4SDTQ=-227.9345334\MP4SDQ=-227.910742\CCSD=-227.9113329\CCSD(T)=-
 Normal termination of Gaussian 09 at Fri Aug 26 10:39:13 2022.

 ---------------------------------------------------------
 #P Geom=AllCheck Guess=TCheck SCRF=Check MP4=FrzG4/GTBas2
 ---------------------------------------------------------

 Structure from the checkpoint file:  "G4.Frag_555.chk"
 --------
 Frag_555
 --------
 Charge =  0 Multiplicity = 1

 SCF Done:  E(RHF) =  -227.159154536     A.U. after   13 cycles
 E2 =    -0.7234045793D+00 EUMP2 =    -0.22788255911492D+03
 Normal termination of Gaussian 09 at Fri Aug 26 10:39:31 2022.

 ---------------------------------------------------------
 #P Geom=AllCheck Guess=TCheck SCRF=Check MP4=FrzG4/GTBas3
 ---------------------------------------------------------

 Structure from the checkpoint file:  "G4.Frag_555.chk"
 --------
 Frag_555
 --------
 Charge =  0 Multiplicity = 1

 SCF Done:  E(RHF) =  -227.184655153     A.U. after   11 cycles
 E2 =    -0.8731353860D+00 EUMP2 =    -0.22805779053887D+03
 Normal termination of Gaussian 09 at Fri Aug 26 10:41:01 2022.

 -----------------------------------------------------------
 #P Geom=AllCheck Guess=TCheck SCRF=Check MP2=Full/GTLargeXP
 -----------------------------------------------------------

 Structure from the checkpoint file:  "G4.Frag_555.chk"
 --------
 Frag_555
 --------
 Charge =  0 Multiplicity = 1

 SCF Done:  E(RHF) =  -227.241537000     A.U. after   12 cycles
 E2 =    -0.1146572117D+01 EUMP2 =    -0.22838810911698D+03
 Normal termination of Gaussian 09 at Fri Aug 26 10:42:00 2022.
 SCF Done:  E(RHF) =  -227.259327478     A.U. after    8 cycles
 Normal termination of Gaussian 09 at Fri Aug 26 10:43:07 2022.

                         Standard orientation:
 ---------------------------------------------------------------------
 Center     Atomic      Atomic             Coordinates (Angstroms)
 Number     Number       Type             X           Y           Z
 ---------------------------------------------------------------------
      1          6           0        1.868263   -0.084869   -0.414293
      2          6           0        0.793901    0.305652    0.614239
      3          6           0       -0.619980    0.112651    0.092341
      4          7           0       -1.432999    1.034428   -0.258700
      5          7           0       -0.987651   -1.212239   -0.071157
      6          1           0        1.774868   -1.135078   -0.703186
      7          1           0        1.771737    0.518864   -1.321626
      8          1           0        2.871161    0.071244   -0.005958
      9          1           0        0.913486    1.353507    0.904525
     10          1           0        0.929433   -0.289878    1.527313
     11          1           0       -0.997295    1.948892   -0.153789
     12          1           0       -0.602543   -1.880958    0.577115
     13          1           0       -1.969402   -1.342516   -0.269116
 ---------------------------------------------------------------------

 SCF Done:  E(RHF) =  -227.263111228     A.U. after    8 cycles

 The electronic state is 1-A.
 Alpha  occ. eigenvalues --  -15.56405 -15.51642 -11.30965 -11.24350 -11.22774
 Alpha  occ. eigenvalues --   -1.25569  -1.13372  -1.04353  -0.88327  -0.77931
 Alpha  occ. eigenvalues --   -0.70821  -0.63856  -0.61788  -0.59432  -0.56018
 Alpha  occ. eigenvalues --   -0.53135  -0.50835  -0.48542  -0.41021  -0.36601
 Alpha virt. eigenvalues --    0.03463   0.04209   0.04538   0.05284   0.07242
 Alpha virt. eigenvalues --    0.07506   0.07764   0.07926   0.08204   0.10487
 Alpha virt. eigenvalues --    0.12264   0.12537   0.12988   0.14121   0.14356

 Mulliken charges:
               1
     1  C   -0.485194
     2  C   -0.314580
     3  C    0.419253
     4  N   -0.713618
     5  N   -0.681685
     6  H    0.171003
     7  H    0.172622
     8  H    0.165620
     9  H    0.175250
    10  H    0.169849
    11  H    0.269775
    12  H    0.311308
    13  H    0.340397
 Sum of Mulliken charges =  -0.00000

 Dipole moment (field-independent basis, Debye):
    X=              2.2582    Y=             -1.3479    Z=              1.6923  Tot=              3.1273
 Quadrupole moment (field-independent basis, Debye-Ang):
   XX=            -35.4014   YY=            -28.6344   ZZ=            -33.3939
   XY=              4.5655   XZ=             -0.8583   YZ=             -1.1249

 Normal termination of Gaussian 09 at Fri Aug 26 10:47:40 2022.
