 Gaussian 09, Revision E.01,
 Gaussian 09:  ES64L-G09RevE.01 30-Nov-2015

 -----
 #P G4
 -----

 ---------
 Frag_1121
 ---------
 Symbolic Z-matrix:
 Charge =  0 Multiplicity = 1

 SCF Done:  E(RB3LYP) =  -343.570133900     A.U. after   13 cycles
 SCF Done:  E(RB3LYP) =  -343.585197751     A.U. after   11 cycles
 SCF Done:  E(RB3LYP) =  -343.587075844     A.U. after   11 cycles
 SCF Done:  E(RB3LYP) =  -343.589570804     A.U. after   12 cycles
 SCF Done:  E(RB3LYP) =  -343.590306493     A.U. after   11 cycles
 SCF Done:  E(RB3LYP) =  -343.590745451     A.U. after   11 cycles
 SCF Done:  E(RB3LYP) =  -343.590791709     A.U. after   11 cycles
 SCF Done:  E(RB3LYP) =  -343.590802781     A.U. after    9 cycles
 SCF Done:  E(RB3LYP) =  -343.590806496     A.U. after    8 cycles
 SCF Done:  E(RB3LYP) =  -343.590807105     A.U. after    8 cycles
 SCF Done:  E(RB3LYP) =  -343.590807671     A.U. after    7 cycles
 SCF Done:  E(RB3LYP) =  -343.590807848     A.U. after    7 cycles
 SCF Done:  E(RB3LYP) =  -343.590807917     A.U. after    6 cycles
 Optimization completed.
    -- Stationary point found.
 Normal termination of Gaussian 09 at Fri Aug 26 09:25:11 2022.

 ----------------------------------------------------------
 #P Geom=AllCheck Guess=TCheck SCRF=Check B3LYP/GTBas3 Freq
 ----------------------------------------------------------

 Structure from the checkpoint file:  "G4.Frag_1121.chk"
 ---------
 Frag_1121
 ---------
 Charge =  0 Multiplicity = 1

 SCF Done:  E(RB3LYP) =  -343.590807917     A.U. after    1 cycles

  Exact polarizability:  52.430  -5.226  45.214   1.682  -4.794  35.627
 Approx polarizability:  73.959 -12.409  68.100   4.319  -8.496  53.502

                      1                      2                      3
                      A                      A                      A
 Frequencies --     76.0130               215.4326               257.6177
 Red. masses --      4.7383                 1.3103                 2.4385
 Frc consts  --      0.0161                 0.0358                 0.0954
 IR Inten    --      0.9571                43.8190                31.9804

                      4                      5                      6
                      A                      A                      A
 Frequencies --    269.1534               357.9993               404.1316
 Red. masses --      3.4033                 1.7141                 1.8939
 Frc consts  --      0.1453                 0.1294                 0.1822
 IR Inten    --     12.4684                85.2834                80.0811

                      7                      8                      9
                      A                      A                      A
 Frequencies --    419.1630               535.8984               655.3940
 Red. masses --      1.1234                 3.3329                 3.7362
 Frc consts  --      0.1163                 0.5639                 0.9455
 IR Inten    --     59.6090                43.9671                21.9756

                     10                     11                     12
                      A                      A                      A
 Frequencies --    688.3779               734.2103               836.4724
 Red. masses --      3.0413                 1.2917                 1.4349
 Frc consts  --      0.8491                 0.4102                 0.5915
 IR Inten    --      2.0124                 0.3154                45.6998

                     13                     14                     15
                      A                      A                      A
 Frequencies --    858.2158               978.8993              1048.2981
 Red. masses --      3.3180                 1.8816                 4.2900
 Frc consts  --      1.4399                 1.0623                 2.7776
 IR Inten    --     36.4119                15.1602                79.8598

                     16                     17                     18
                      A                      A                      A
 Frequencies --   1087.8909              1170.6299              1241.7875
 Red. masses --      3.5947                 1.4783                 1.1465
 Frc consts  --      2.5066                 1.1936                 1.0416
 IR Inten    --    222.0873                90.8255               121.4966

                     19                     20                     21
                      A                      A                      A
 Frequencies --   1344.5456              1365.9494              1399.1922
 Red. masses --      1.2175                 1.6609                 2.2378
 Frc consts  --      1.2968                 1.8258                 2.5812
 IR Inten    --     36.2848                13.5039                29.7053

                     22                     23                     24
                      A                      A                      A
 Frequencies --   1439.2223              1472.3181              1727.1506
 Red. masses --      1.1895                 1.2699                 6.0674
 Frc consts  --      1.4517                 1.6219                10.6639
 IR Inten    --     57.2150                75.9709                92.5475

                     25                     26                     27
                      A                      A                      A
 Frequencies --   3028.0106              3155.1447              3248.2735
 Red. masses --      1.0860                 1.0640                 1.1123
 Frc consts  --      5.8670                 6.2405                 6.9147
 IR Inten    --     44.9968                 3.9680                 5.6415

                     28                     29                     30
                      A                      A                      A
 Frequencies --   3784.0658              3810.6888              3815.2993
 Red. masses --      1.0647                 1.0656                 1.0657
 Frc consts  --      8.9828                 9.1172                 9.1403
 IR Inten    --     34.5604                19.0810                37.7499

 - Thermochemistry -
 -------------------
 Temperature   298.150 Kelvin.  Pressure   1.00000 Atm.
 Atom     1 has atomic number  6 and mass  12.00000

 Molecular mass:    90.03169 amu.
 Principal axes and moments of inertia in atomic units:
                           1         2         3
     Eigenvalues --   343.93429 635.56124 697.54092
           X            0.99977  -0.01908   0.00942
           Y            0.01990   0.99519  -0.09588
           Z           -0.00755   0.09604   0.99535
 This molecule is an asymmetric top.
 Rotational symmetry number  1.
 Rotational temperatures (Kelvin)      0.25183     0.13628     0.12417
 Rotational constants (GHZ):           5.24734     2.83960     2.58729
 Zero-point vibrational energy     247779.2 (Joules/Mol)
                                   59.22065 (Kcal/Mol)
 Warning -- explicit consideration of   8 degrees of freedom as
           vibrations may cause significant error
 Vibrational temperatures:    109.37   309.96   370.65   387.25   515.08
          (Kelvin)            581.45   603.08   771.04   942.96   990.42
                             1056.36  1203.50  1234.78  1408.42  1508.27
                             1565.23  1684.27  1786.65  1934.50  1965.29
                             2013.12  2070.72  2118.33  2484.98  4356.63
                             4539.54  4673.54  5444.42  5482.72  5489.36

 Zero-point correction=                           0.094374 (Hartree/Particle)
 Thermal correction to Energy=                    0.101259
 Thermal correction to Enthalpy=                  0.102203
 Thermal correction to Gibbs Free Energy=         0.063973
 Sum of electronic and zero-point Energies=           -343.496434
 Sum of electronic and thermal Energies=              -343.489549
 Sum of electronic and thermal Enthalpies=            -343.488605
 Sum of electronic and thermal Free Energies=         -343.526835

                     E (Thermal)             CV                S
                      KCal/Mol        Cal/Mol-Kelvin    Cal/Mol-Kelvin
 Total                   63.541             24.513             80.462
 Electronic               0.000              0.000              0.000
 Translational            0.889              2.981             39.405
 Rotational               0.889              2.981             26.525
 Vibrational             61.763             18.551             14.532
 Vibration     1          0.599              1.965              3.991
 Vibration     2          0.645              1.818              1.997
 Vibration     3          0.667              1.750              1.678
 Vibration     4          0.674              1.730              1.602
 Vibration     5          0.733              1.559              1.131
 Vibration     6          0.769              1.461              0.948
 Vibration     7          0.782              1.429              0.895
 Vibration     8          0.891              1.171              0.574

 Optimization completed.
    -- Stationary point found.
 Normal termination of Gaussian 09 at Fri Aug 26 09:25:38 2022.

 -----------------------------------------------------------------
 #P Geom=AllCheck Guess=TCheck SCRF=Check CCSD(T,E4T,FrzG4)/GTBas1
 -----------------------------------------------------------------

 Structure from the checkpoint file:  "G4.Frag_1121.chk"
 ---------
 Frag_1121
 ---------
 Charge =  0 Multiplicity = 1

 SCF Done:  E(RHF) =  -341.634463868     A.U. after   12 cycles
 E2 =    -0.9175236503D+00 EUMP2 =    -0.34255198751843D+03
 CCSD(T)
 CCSD(T)= -0.34261662049D+03
 D=-342.5898911\CCSD(T)=-342.6166205\RMSD=3.945e-09\PG=C01 [X(C3H6O3)]\
 Normal termination of Gaussian 09 at Fri Aug 26 09:27:13 2022.

 ---------------------------------------------------------
 #P Geom=AllCheck Guess=TCheck SCRF=Check MP4=FrzG4/GTBas2
 ---------------------------------------------------------

 Structure from the checkpoint file:  "G4.Frag_1121.chk"
 ---------
 Frag_1121
 ---------
 Charge =  0 Multiplicity = 1

 SCF Done:  E(RHF) =  -341.648487327     A.U. after   12 cycles
 E2 =    -0.9344115143D+00 EUMP2 =    -0.34258289884141D+03
 Normal termination of Gaussian 09 at Fri Aug 26 09:27:51 2022.

 ---------------------------------------------------------
 #P Geom=AllCheck Guess=TCheck SCRF=Check MP4=FrzG4/GTBas3
 ---------------------------------------------------------

 Structure from the checkpoint file:  "G4.Frag_1121.chk"
 ---------
 Frag_1121
 ---------
 Charge =  0 Multiplicity = 1

 SCF Done:  E(RHF) =  -341.684124811     A.U. after   11 cycles
 E2 =    -0.1133468914D+01 EUMP2 =    -0.34281759372510D+03
 Normal termination of Gaussian 09 at Fri Aug 26 09:30:39 2022.

 -----------------------------------------------------------
 #P Geom=AllCheck Guess=TCheck SCRF=Check MP2=Full/GTLargeXP
 -----------------------------------------------------------

 Structure from the checkpoint file:  "G4.Frag_1121.chk"
 ---------
 Frag_1121
 ---------
 Charge =  0 Multiplicity = 1

 SCF Done:  E(RHF) =  -341.782724792     A.U. after   12 cycles
 E2 =    -0.1483349210D+01 EUMP2 =    -0.34326607400179D+03
 Normal termination of Gaussian 09 at Fri Aug 26 09:32:19 2022.
 SCF Done:  E(RHF) =  -341.811092837     A.U. after    8 cycles
 Normal termination of Gaussian 09 at Fri Aug 26 09:33:45 2022.

                         Standard orientation:
 ---------------------------------------------------------------------
 Center     Atomic      Atomic             Coordinates (Angstroms)
 Number     Number       Type             X           Y           Z
 ---------------------------------------------------------------------
      1          6           0        1.809115   -0.765866    0.411439
      2          6           0        0.770437   -0.013596    0.053583
      3          8           0        0.840754    1.181561   -0.598536
      4          6           0       -0.677861   -0.389805    0.305331
      5          8           0       -1.321355   -0.722283   -0.915533
      6          8           0       -1.387706    0.648996    0.891594
      7          1           0        1.651351   -1.695031    0.942979
      8          1           0        2.834918   -0.480458    0.201093
      9          1           0        1.763674    1.433429   -0.712234
     10          1           0       -0.716757   -1.227666    1.013747
     11          1           0       -0.736200   -1.303081   -1.414583
     12          1           0       -1.260674    1.422216    0.326684
 ---------------------------------------------------------------------

 SCF Done:  E(RHF) =  -341.817251171     A.U. after    8 cycles

 The electronic state is 1-A.
 Alpha  occ. eigenvalues --  -20.60558 -20.56589 -20.56437 -11.34848 -11.31472
 Alpha  occ. eigenvalues --  -11.23185  -1.43625  -1.40390  -1.33755  -1.05773
 Alpha  occ. eigenvalues --   -0.92271  -0.83294  -0.73305  -0.71196  -0.69562
 Alpha  occ. eigenvalues --   -0.64130  -0.61562  -0.60971  -0.56484  -0.55174
 Alpha  occ. eigenvalues --   -0.53657  -0.49317  -0.45790  -0.36815
 Alpha virt. eigenvalues --    0.03017   0.04349   0.05128   0.05651   0.06906
 Alpha virt. eigenvalues --    0.07047   0.07597   0.08103   0.09056   0.09924
 Alpha virt. eigenvalues --    0.13451   0.13904   0.14537   0.15195   0.15453

 Mulliken charges:
               1
     1  C   -0.481909
     2  C    0.237105
     3  O   -0.571899
     4  C    0.287973
     5  O   -0.560673
     6  O   -0.559797
     7  H    0.188961
     8  H    0.159684
     9  H    0.391194
    10  H    0.153687
    11  H    0.369887
    12  H    0.385788
 Sum of Mulliken charges =  -0.00000

 Dipole moment (field-independent basis, Debye):
    X=              3.6591    Y=             -0.4779    Z=             -0.8121  Tot=              3.7785
 Quadrupole moment (field-independent basis, Debye-Ang):
   XX=            -36.3597   YY=            -31.1122   ZZ=            -38.0690
   XY=              1.3091   XZ=             -0.9685   YZ=             -1.2652

 Normal termination of Gaussian 09 at Fri Aug 26 09:39:48 2022.
