 Gaussian 09, Revision E.01,
 Gaussian 09:  ES64L-G09RevE.01 30-Nov-2015

 -----
 #P G4
 -----

 --------
 Frag_645
 --------
 Symbolic Z-matrix:
 Charge =  0 Multiplicity = 1

 SCF Done:  E(RB3LYP) =  -358.463069639     A.U. after   15 cycles
 SCF Done:  E(RB3LYP) =  -358.492587779     A.U. after   13 cycles
 SCF Done:  E(RB3LYP) =  -358.498338990     A.U. after   12 cycles
 SCF Done:  E(RB3LYP) =  -358.498691867     A.U. after   10 cycles
 SCF Done:  E(RB3LYP) =  -358.498733866     A.U. after    9 cycles
 SCF Done:  E(RB3LYP) =  -358.498736305     A.U. after    8 cycles
 SCF Done:  E(RB3LYP) =  -358.498735083     A.U. after    9 cycles
 SCF Done:  E(RB3LYP) =  -358.498737829     A.U. after    8 cycles
 Optimization completed.
    -- Stationary point found.
 Normal termination of Gaussian 09 at Mon Aug 22 00:09:43 2022.

 ----------------------------------------------------------
 #P Geom=AllCheck Guess=TCheck SCRF=Check B3LYP/GTBas3 Freq
 ----------------------------------------------------------

 Structure from the checkpoint file:  "G4.Frag_645.chk"
 --------
 Frag_645
 --------
 Charge =  0 Multiplicity = 1

 SCF Done:  E(RB3LYP) =  -358.498737829     A.U. after    1 cycles

  Exact polarizability:  40.650  -2.431  46.878  -0.000   0.000  20.685
 Approx polarizability:  54.564  -1.383  86.005  -0.000  -0.000  31.358

                      1                      2                      3
                      A                      A                      A
 Frequencies --    121.9883               273.0590               370.5709
 Red. masses --      9.8835                 4.6541                 1.2451
 Frc consts  --      0.0867                 0.2045                 0.1007
 IR Inten    --      5.5576                42.1567               120.6971

                      4                      5                      6
                      A                      A                      A
 Frequencies --    405.2216               474.7773               545.3198
 Red. masses --      4.7897                 4.0944                 6.2962
 Frc consts  --      0.4634                 0.5438                 1.1031
 IR Inten    --      7.6251               102.9362                 1.8114

                      7                      8                      9
                      A                      A                      A
 Frequencies --    630.9629               668.4291               776.2226
 Red. masses --      4.3963                 1.1608                 1.0946
 Frc consts  --      1.0312                 0.3056                 0.3886
 IR Inten    --     12.2642                 2.1290                88.6576

                     10                     11                     12
                      A                      A                      A
 Frequencies --    804.1906               838.3178              1100.9945
 Red. masses --      5.8110                 8.9689                 1.9179
 Frc consts  --      2.2142                 3.7137                 1.3698
 IR Inten    --      8.4530                 0.2124                 3.0064

                     13                     14                     15
                      A                      A                      A
 Frequencies --   1219.9094              1351.6961              1447.4876
 Red. masses --      3.1501                 2.0621                 2.2727
 Frc consts  --      2.7620                 2.2199                 2.8056
 IR Inten    --     11.3368               307.0827               235.3032

                     16                     17                     18
                      A                      A                      A
 Frequencies --   1599.2305              1802.3379              1873.7743
 Red. masses --      1.3956                 9.8713                 9.3884
 Frc consts  --      2.1029                18.8928                19.4212
 IR Inten    --     80.0640               271.1046               215.8049

                     19                     20                     21
                      A                      A                      A
 Frequencies --   3565.9019              3592.5553              3731.7122
 Red. masses --      1.0640                 1.0441                 1.1058
 Frc consts  --      7.9713                 7.9397                 9.0727
 IR Inten    --    131.8331                69.3074                83.9401

 - Thermochemistry -
 -------------------
 Temperature   298.150 Kelvin.  Pressure   1.00000 Atm.
 Atom     1 has atomic number  7 and mass  14.00307

 Molecular mass:    89.01129 amu.
 Principal axes and moments of inertia in atomic units:
                           1         2         3
     Eigenvalues --   315.69185 474.47118 790.16302
           X            0.99244  -0.12273  -0.00000
           Y            0.12273   0.99244   0.00000
           Z            0.00000  -0.00000   1.00000
 This molecule is an asymmetric top.
 Rotational symmetry number  1.
 Rotational temperatures (Kelvin)      0.27436     0.18255     0.10962
 Rotational constants (GHZ):           5.71678     3.80369     2.28401
 Zero-point vibrational energy     162660.2 (Joules/Mol)
                                   38.87672 (Kcal/Mol)
 Warning -- explicit consideration of   6 degrees of freedom as
           vibrations may cause significant error
 Vibrational temperatures:    175.51   392.87   533.17   583.02   683.10
          (Kelvin)            784.59   907.81   961.72  1116.81  1157.05
                             1206.15  1584.08  1755.18  1944.79  2082.61
                             2300.93  2593.16  2695.94  5130.53  5168.88
                             5369.09

 Zero-point correction=                           0.061954 (Hartree/Particle)
 Thermal correction to Energy=                    0.067576
 Thermal correction to Enthalpy=                  0.068520
 Thermal correction to Gibbs Free Energy=         0.032841
 Sum of electronic and zero-point Energies=           -358.436784
 Sum of electronic and thermal Energies=              -358.431162
 Sum of electronic and thermal Enthalpies=            -358.430218
 Sum of electronic and thermal Free Energies=         -358.465897

                     E (Thermal)             CV                S
                      KCal/Mol        Cal/Mol-Kelvin    Cal/Mol-Kelvin
 Total                   42.405             19.628             75.094
 Electronic               0.000              0.000              0.000
 Translational            0.889              2.981             39.371
 Rotational               0.889              2.981             26.273
 Vibrational             40.627             13.666              9.450
 Vibration     1          0.609              1.931              3.069
 Vibration     2          0.676              1.723              1.577
 Vibration     3          0.743              1.533              1.077
 Vibration     4          0.770              1.459              0.944
 Vibration     5          0.831              1.306              0.724
 Vibration     6          0.900              1.150              0.554

 Optimization completed.
    -- Stationary point found.
 Normal termination of Gaussian 09 at Mon Aug 22 00:11:09 2022.

 -----------------------------------------------------------------
 #P Geom=AllCheck Guess=TCheck SCRF=Check CCSD(T,E4T,FrzG4)/GTBas1
 -----------------------------------------------------------------

 Structure from the checkpoint file:  "G4.Frag_645.chk"
 --------
 Frag_645
 --------
 Charge =  0 Multiplicity = 1

 SCF Done:  E(RHF) =  -356.545655872     A.U. after   13 cycles
 E2 =    -0.9435822306D+00 EUMP2 =    -0.35748923810248D+03
 CCSD(T)
 CCSD(T)= -0.35753642465D+03
 8301\CCSD=-357.5048698\CCSD(T)=-357.5364246\RMSD=6.930e-09\PG=C01 [X(C
 Normal termination of Gaussian 09 at Mon Aug 22 00:15:09 2022.

 ---------------------------------------------------------
 #P Geom=AllCheck Guess=TCheck SCRF=Check MP4=FrzG4/GTBas2
 ---------------------------------------------------------

 Structure from the checkpoint file:  "G4.Frag_645.chk"
 --------
 Frag_645
 --------
 Charge =  0 Multiplicity = 1

 SCF Done:  E(RHF) =  -356.556901622     A.U. after   12 cycles
 E2 =    -0.9580423721D+00 EUMP2 =    -0.35751494399441D+03
 Normal termination of Gaussian 09 at Mon Aug 22 00:20:16 2022.

 ---------------------------------------------------------
 #P Geom=AllCheck Guess=TCheck SCRF=Check MP4=FrzG4/GTBas3
 ---------------------------------------------------------

 Structure from the checkpoint file:  "G4.Frag_645.chk"
 --------
 Frag_645
 --------
 Charge =  0 Multiplicity = 1

 SCF Done:  E(RHF) =  -356.589614988     A.U. after   12 cycles
 E2 =    -0.1145174571D+01 EUMP2 =    -0.35773478955917D+03
 Normal termination of Gaussian 09 at Mon Aug 22 01:40:14 2022.

 -----------------------------------------------------------
 #P Geom=AllCheck Guess=TCheck SCRF=Check MP2=Full/GTLargeXP
 -----------------------------------------------------------

 Structure from the checkpoint file:  "G4.Frag_645.chk"
 --------
 Frag_645
 --------
 Charge =  0 Multiplicity = 1

 SCF Done:  E(RHF) =  -356.690379702     A.U. after   13 cycles
 E2 =    -0.1494389418D+01 EUMP2 =    -0.35818476912034D+03
 Normal termination of Gaussian 09 at Mon Aug 22 01:43:32 2022.
 SCF Done:  E(RHF) =  -356.718647505     A.U. after    9 cycles
 Normal termination of Gaussian 09 at Mon Aug 22 01:47:05 2022.

                         Standard orientation:
 ---------------------------------------------------------------------
 Center     Atomic      Atomic             Coordinates (Angstroms)
 Number     Number       Type             X           Y           Z
 ---------------------------------------------------------------------
      1          7           0       -1.552903    0.863055    0.000011
      2          6           0       -0.723914   -0.190177   -0.000054
      3          8           0       -1.026529   -1.373573    0.000016
      4          6           0        0.767124    0.211398   -0.000035
      5          8           0        1.148709    1.351743    0.000013
      6          8           0        1.549938   -0.860978    0.000021
      7          1           0       -2.550357    0.730791    0.000070
      8          1           0       -1.151689    1.787779    0.000008
      9          1           0        0.936158   -1.624818   -0.000020
 ---------------------------------------------------------------------

 SCF Done:  E(RHF) =  -356.724610246     A.U. after    8 cycles

 The electronic state is 1-A.
 Alpha  occ. eigenvalues --  -20.62677 -20.57647 -20.57079 -15.62220 -11.41278
 Alpha  occ. eigenvalues --  -11.39883  -1.49250  -1.42331  -1.39537  -1.25695
 Alpha  occ. eigenvalues --   -0.94373  -0.83488  -0.80503  -0.74090  -0.69572
 Alpha  occ. eigenvalues --   -0.66800  -0.66487  -0.60011  -0.59695  -0.54361
 Alpha  occ. eigenvalues --   -0.50474  -0.45498  -0.45366
 Alpha virt. eigenvalues --    0.03122   0.05063   0.05236   0.05553   0.07346
 Alpha virt. eigenvalues --    0.07405   0.07571   0.07771   0.09516   0.11145
 Alpha virt. eigenvalues --    0.11544   0.13209   0.15073   0.15775   0.15782

 Mulliken charges:
               1
     1  N   -0.672498
     2  C    0.563502
     3  O   -0.640433
     4  C    0.619127
     5  O   -0.544338
     6  O   -0.507170
     7  H    0.373853
     8  H    0.377720
     9  H    0.430239
 Sum of Mulliken charges =  -0.00000

 Dipole moment (field-independent basis, Debye):
    X=             -2.9639    Y=              0.8851    Z=             -0.0002  Tot=              3.0932
 Quadrupole moment (field-independent basis, Debye-Ang):
   XX=            -34.2438   YY=            -35.6021   ZZ=            -33.7477
   XY=             -8.3976   XZ=             -0.0004   YZ=              0.0002

 Normal termination of Gaussian 09 at Mon Aug 22 03:26:57 2022.
