 Gaussian 09, Revision E.01,
 Gaussian 09:  ES64L-G09RevE.01 30-Nov-2015

 -----
 #P G4
 -----

 --------
 Frag_583
 --------
 Symbolic Z-matrix:
 Charge =  0 Multiplicity = 1

 SCF Done:  E(RB3LYP) =  -285.627517173     A.U. after   12 cycles
 SCF Done:  E(RB3LYP) =  -285.634024274     A.U. after   11 cycles
 SCF Done:  E(RB3LYP) =  -285.634620661     A.U. after   10 cycles
 SCF Done:  E(RB3LYP) =  -285.634966720     A.U. after   10 cycles
 SCF Done:  E(RB3LYP) =  -285.635081994     A.U. after   10 cycles
 SCF Done:  E(RB3LYP) =  -285.635139972     A.U. after    9 cycles
 SCF Done:  E(RB3LYP) =  -285.635155960     A.U. after    9 cycles
 SCF Done:  E(RB3LYP) =  -285.635156938     A.U. after    7 cycles
 Optimization completed.
    -- Stationary point found.
 Normal termination of Gaussian 09 at Fri Aug 26 14:53:01 2022.

 ----------------------------------------------------------
 #P Geom=AllCheck Guess=TCheck SCRF=Check B3LYP/GTBas3 Freq
 ----------------------------------------------------------

 Structure from the checkpoint file:  "G4.Frag_583.chk"
 --------
 Frag_583
 --------
 Charge =  0 Multiplicity = 1

 SCF Done:  E(RB3LYP) =  -285.635156938     A.U. after    1 cycles

  Exact polarizability:  45.814  -0.602  37.125  -0.155  -0.814  34.157
 Approx polarizability:  54.999   0.088  52.911  -0.625   0.451  49.406

                      1                      2                      3
                      A                      A                      A
 Frequencies --    124.8177               185.2221               242.6635
 Red. masses --      2.0547                 1.3156                 1.0987
 Frc consts  --      0.0189                 0.0266                 0.0381
 IR Inten    --      3.7531                 2.3418                21.5493

                      4                      5                      6
                      A                      A                      A
 Frequencies --    296.3371               392.4324               498.8397
 Red. masses --      3.1166                 1.5123                 2.2981
 Frc consts  --      0.1613                 0.1372                 0.3369
 IR Inten    --      2.3996                45.8144                48.4600

                      7                      8                      9
                      A                      A                      A
 Frequencies --    574.7049               612.7379               851.0275
 Red. masses --      3.0815                 3.1232                 1.4326
 Frc consts  --      0.5997                 0.6909                 0.6113
 IR Inten    --     41.1154                23.4484               108.1993

                     10                     11                     12
                      A                      A                      A
 Frequencies --    937.2500              1012.5073              1106.7468
 Red. masses --      2.3856                 3.7931                 4.7744
 Frc consts  --      1.2347                 2.2911                 3.4456
 IR Inten    --     73.3968               166.9143                68.4505

                     13                     14                     15
                      A                      A                      A
 Frequencies --   1158.5895              1182.1835              1200.8301
 Red. masses --      3.3975                 1.2809                 1.3321
 Frc consts  --      2.6870                 1.0547                 1.1317
 IR Inten    --    180.9246                 7.3257                10.9782

                     16                     17                     18
                      A                      A                      A
 Frequencies --   1277.6060              1308.9958              1407.5823
 Red. masses --      1.5522                 1.4894                 1.3078
 Frc consts  --      1.4927                 1.5036                 1.5266
 IR Inten    --     68.0326                 4.8159                62.0846

                     19                     20                     21
                      A                      A                      A
 Frequencies --   1450.3417              1483.1910              1485.9306
 Red. masses --      1.2269                 1.1423                 1.0840
 Frc consts  --      1.5205                 1.4805                 1.4101
 IR Inten    --     67.7587                 9.1464                11.5413

                     22                     23                     24
                      A                      A                      A
 Frequencies --   1515.9639              1632.8282              2935.5864
 Red. masses --      1.0601                 1.1186                 1.0818
 Frc consts  --      1.4354                 1.7572                 5.4925
 IR Inten    --      4.7467                50.5504                77.5649

                     25                     26                     27
                      A                      A                      A
 Frequencies --   2990.3212              3064.8956              3126.2427
 Red. masses --      1.0447                 1.0910                 1.1006
 Frc consts  --      5.5042                 6.0382                 6.3377
 IR Inten    --     61.8290                39.1385                23.9834

                     28                     29                     30
                      A                      A                      A
 Frequencies --   3516.9568              3605.9014              3761.6152
 Red. masses --      1.0487                 1.0935                 1.0642
 Frc consts  --      7.6423                 8.3775                 8.8718
 IR Inten    --      2.8973                 5.0258                27.0369

 - Thermochemistry -
 -------------------
 Temperature   298.150 Kelvin.  Pressure   1.00000 Atm.
 Atom     1 has atomic number  6 and mass  12.00000

 Molecular mass:    77.04768 amu.
 Principal axes and moments of inertia in atomic units:
                           1         2         3
     Eigenvalues --   204.28823 448.25205 598.02324
           X            0.99947  -0.03265  -0.00107
           Y            0.03259   0.99883  -0.03567
           Z            0.00223   0.03562   0.99936
 This molecule is an asymmetric top.
 Rotational symmetry number  1.
 Rotational temperatures (Kelvin)      0.42398     0.19323     0.14483
 Rotational constants (GHZ):           8.83429     4.02618     3.01784
 Zero-point vibrational energy     268806.0 (Joules/Mol)
                                   64.24617 (Kcal/Mol)
 Warning -- explicit consideration of   8 degrees of freedom as
           vibrations may cause significant error
 Vibrational temperatures:    179.58   266.49   349.14   426.36   564.62
          (Kelvin)            717.72   826.87   881.59  1224.44  1348.49
                             1456.77  1592.36  1666.95  1700.90  1727.72
                             1838.19  1883.35  2025.19  2086.72  2133.98
                             2137.92  2181.13  2349.27  4223.65  4302.40
                             4409.70  4497.96  5060.11  5188.08  5412.12

 Zero-point correction=                           0.102383 (Hartree/Particle)
 Thermal correction to Energy=                    0.108559
 Thermal correction to Enthalpy=                  0.109503
 Thermal correction to Gibbs Free Energy=         0.073274
 Sum of electronic and zero-point Energies=           -285.532774
 Sum of electronic and thermal Energies=              -285.526598
 Sum of electronic and thermal Enthalpies=            -285.525654
 Sum of electronic and thermal Free Energies=         -285.561883

                     E (Thermal)             CV                S
                      KCal/Mol        Cal/Mol-Kelvin    Cal/Mol-Kelvin
 Total                   68.122             21.121             76.249
 Electronic               0.000              0.000              0.000
 Translational            0.889              2.981             38.941
 Rotational               0.889              2.981             25.507
 Vibrational             66.344             15.159             11.801
 Vibration     1          0.610              1.928              3.024
 Vibration     2          0.631              1.860              2.275
 Vibration     3          0.659              1.775              1.783
 Vibration     4          0.690              1.681              1.438
 Vibration     5          0.760              1.486              0.991
 Vibration     6          0.854              1.253              0.661
 Vibration     7          0.931              1.086              0.495
 Vibration     8          0.972              1.005              0.428

 Normal termination of Gaussian 09 at Fri Aug 26 14:53:22 2022.

 -----------------------------------------------------------------
 #P Geom=AllCheck Guess=TCheck SCRF=Check CCSD(T,E4T,FrzG4)/GTBas1
 -----------------------------------------------------------------

 Structure from the checkpoint file:  "G4.Frag_583.chk"
 --------
 Frag_583
 --------
 Charge =  0 Multiplicity = 1

 SCF Done:  E(RHF) =  -283.963386202     A.U. after   12 cycles
 E2 =    -0.7808180381D+00 EUMP2 =    -0.28474420424049D+03
 CCSD(T)
 CCSD(T)= -0.28480454674D+03
 -284.7840918\CCSD(T)=-284.8045467\RMSD=3.564e-09\PG=C01 [X(C2H7N1O2)]\
 Normal termination of Gaussian 09 at Fri Aug 26 14:54:19 2022.

 ---------------------------------------------------------
 #P Geom=AllCheck Guess=TCheck SCRF=Check MP4=FrzG4/GTBas2
 ---------------------------------------------------------

 Structure from the checkpoint file:  "G4.Frag_583.chk"
 --------
 Frag_583
 --------
 Charge =  0 Multiplicity = 1

 SCF Done:  E(RHF) =  -283.974363181     A.U. after   11 cycles
 E2 =    -0.7955014699D+00 EUMP2 =    -0.28476986465075D+03
 Normal termination of Gaussian 09 at Fri Aug 26 14:54:36 2022.

 ---------------------------------------------------------
 #P Geom=AllCheck Guess=TCheck SCRF=Check MP4=FrzG4/GTBas3
 ---------------------------------------------------------

 Structure from the checkpoint file:  "G4.Frag_583.chk"
 --------
 Frag_583
 --------
 Charge =  0 Multiplicity = 1

 SCF Done:  E(RHF) =  -284.002627922     A.U. after   10 cycles
 E2 =    -0.9718836615D+00 EUMP2 =    -0.28497451158333D+03
 Normal termination of Gaussian 09 at Fri Aug 26 14:56:06 2022.

 -----------------------------------------------------------
 #P Geom=AllCheck Guess=TCheck SCRF=Check MP2=Full/GTLargeXP
 -----------------------------------------------------------

 Structure from the checkpoint file:  "G4.Frag_583.chk"
 --------
 Frag_583
 --------
 Charge =  0 Multiplicity = 1

 SCF Done:  E(RHF) =  -284.084025015     A.U. after   11 cycles
 E2 =    -0.1265267253D+01 EUMP2 =    -0.28534929226803D+03
 Normal termination of Gaussian 09 at Fri Aug 26 14:56:54 2022.
 SCF Done:  E(RHF) =  -284.106970087     A.U. after    8 cycles
 Normal termination of Gaussian 09 at Fri Aug 26 14:57:51 2022.

                         Standard orientation:
 ---------------------------------------------------------------------
 Center     Atomic      Atomic             Coordinates (Angstroms)
 Number     Number       Type             X           Y           Z
 ---------------------------------------------------------------------
      1          6           0       -1.906757   -0.068946    0.068313
      2          8           0       -0.653815   -0.607381   -0.308990
      3          6           0        0.434046    0.020733    0.313007
      4          7           0        1.591545   -0.729936   -0.110723
      5          8           0        0.585191    1.362371   -0.052929
      6          1           0       -1.978586    0.995126   -0.184565
      7          1           0       -2.087281   -0.185308    1.147993
      8          1           0       -2.669623   -0.625982   -0.479554
      9          1           0        0.262128    0.054947    1.404749
     10          1           0        1.405829   -1.723347   -0.022909
     11          1           0        2.386299   -0.497761    0.474873
     12          1           0        0.925678    1.341237   -0.958101
 ---------------------------------------------------------------------

 SCF Done:  E(RHF) =  -284.112131991     A.U. after    8 cycles

 The electronic state is 1-A.
 Alpha  occ. eigenvalues --  -20.56182 -20.56169 -15.55231 -11.36285 -11.27121
 Alpha  occ. eigenvalues --   -1.42585  -1.34568  -1.17802  -0.94551  -0.85782
 Alpha  occ. eigenvalues --   -0.72508  -0.69602  -0.67677  -0.64578  -0.58864
 Alpha  occ. eigenvalues --   -0.58226  -0.55122  -0.50428  -0.48029  -0.44694
 Alpha  occ. eigenvalues --   -0.42082
 Alpha virt. eigenvalues --    0.04073   0.04298   0.05300   0.05570   0.07337
 Alpha virt. eigenvalues --    0.07720   0.08263   0.10615   0.11126   0.11615
 Alpha virt. eigenvalues --    0.13050   0.14630   0.15109   0.17164   0.17295

 Mulliken charges:
               1
     1  C   -0.359712
     2  O   -0.350221
     3  C    0.352816
     4  N   -0.691838
     5  O   -0.594551
     6  H    0.188307
     7  H    0.147334
     8  H    0.182104
     9  H    0.135545
    10  H    0.308877
    11  H    0.301803
    12  H    0.379539
 Sum of Mulliken charges =  -0.00000

 Dipole moment (field-independent basis, Debye):
    X=             -0.0082    Y=             -0.7330    Z=              1.1380  Tot=              1.3537
 Quadrupole moment (field-independent basis, Debye-Ang):
   XX=            -26.6354   YY=            -32.5599   ZZ=            -30.2534
   XY=             -1.4124   XZ=              1.1941   YZ=             -3.2870

 Normal termination of Gaussian 09 at Fri Aug 26 15:04:20 2022.
