 Gaussian 09, Revision E.01,
 Gaussian 09:  ES64L-G09RevE.01 30-Nov-2015

 -----
 #P G4
 -----

 --------
 Frag_603
 --------
 Symbolic Z-matrix:
 Charge =  0 Multiplicity = 1

 SCF Done:  E(RB3LYP) =  -327.145755821     A.U. after   14 cycles
 SCF Done:  E(RB3LYP) =  -327.151913651     A.U. after   12 cycles
 SCF Done:  E(RB3LYP) =  -327.152781341     A.U. after   13 cycles
 SCF Done:  E(RB3LYP) =  -327.153736882     A.U. after   12 cycles
 SCF Done:  E(RB3LYP) =  -327.154371925     A.U. after   11 cycles
 SCF Done:  E(RB3LYP) =  -327.154640347     A.U. after   12 cycles
 SCF Done:  E(RB3LYP) =  -327.154773905     A.U. after   11 cycles
 SCF Done:  E(RB3LYP) =  -327.154920088     A.U. after   11 cycles
 SCF Done:  E(RB3LYP) =  -327.155359730     A.U. after   13 cycles
 SCF Done:  E(RB3LYP) =  -327.155470696     A.U. after   11 cycles
 SCF Done:  E(RB3LYP) =  -327.156168167     A.U. after   11 cycles
 SCF Done:  E(RB3LYP) =  -327.156172211     A.U. after    8 cycles
 SCF Done:  E(RB3LYP) =  -327.156172666     A.U. after    7 cycles
 Optimization completed.
    -- Stationary point found.
 Normal termination of Gaussian 09 at Sun Aug 21 07:54:29 2022.

 ----------------------------------------------------------
 #P Geom=AllCheck Guess=TCheck SCRF=Check B3LYP/GTBas3 Freq
 ----------------------------------------------------------

 Structure from the checkpoint file:  "G4.Frag_603.chk"
 --------
 Frag_603
 --------
 Charge =  0 Multiplicity = 1

 SCF Done:  E(RB3LYP) =  -327.156172666     A.U. after    1 cycles

  Exact polarizability:  69.025  -0.962  66.576   0.413   0.213  55.894
 Approx polarizability:  92.971   3.179 102.041   0.587   2.343  79.782

                      1                      2                      3
                      A                      A                      A
 Frequencies --     68.6544               158.4774               221.3008
 Red. masses --      3.9447                 1.0271                 1.7031
 Frc consts  --      0.0110                 0.0152                 0.0491
 IR Inten    --      3.5715                 0.2807                 0.5642

                      4                      5                      6
                      A                      A                      A
 Frequencies --    243.9561               262.6716               274.8528
 Red. masses --      1.1861                 1.4609                 1.1044
 Frc consts  --      0.0416                 0.0594                 0.0492
 IR Inten    --     18.2961                16.4496                 1.2825

                      7                      8                      9
                      A                      A                      A
 Frequencies --    278.6876               343.1641               382.8275
 Red. masses --      1.8459                 2.4155                 3.7626
 Frc consts  --      0.0845                 0.1676                 0.3249
 IR Inten    --      4.8500                 1.7626                 0.9658

                     10                     11                     12
                      A                      A                      A
 Frequencies --    417.3067               460.6371               567.4123
 Red. masses --      2.5679                 2.5564                 3.9035
 Frc consts  --      0.2635                 0.3196                 0.7405
 IR Inten    --      5.8057                 3.9701                12.4794

                     13                     14                     15
                      A                      A                      A
 Frequencies --    609.9318               676.6812               843.3155
 Red. masses --      2.3436                 3.2846                 2.6131
 Frc consts  --      0.5137                 0.8861                 1.0949
 IR Inten    --      2.0013                 6.1407                22.3213

                     16                     17                     18
                      A                      A                      A
 Frequencies --    891.3954               925.6307               969.6388
 Red. masses --      1.4506                 1.6522                 1.7660
 Frc consts  --      0.6791                 0.8341                 0.9783
 IR Inten    --    130.0432                 0.3506                14.5368

                     19                     20                     21
                      A                      A                      A
 Frequencies --    983.0962               997.5574              1050.5801
 Red. masses --      1.5257                 1.4743                 1.6625
 Frc consts  --      0.8688                 0.8644                 1.0811
 IR Inten    --      1.2727                 2.5859                 5.5609

                     22                     23                     24
                      A                      A                      A
 Frequencies --   1108.8684              1166.0670              1190.8696
 Red. masses --      1.5208                 2.7654                 2.2517
 Frc consts  --      1.1018                 2.2154                 1.8814
 IR Inten    --     11.0685                17.4686                59.0014

                     25                     26                     27
                      A                      A                      A
 Frequencies --   1269.5443              1350.7792              1383.4241
 Red. masses --      3.2449                 1.7769                 1.3452
 Frc consts  --      3.0814                 1.9102                 1.5169
 IR Inten    --     14.9928                 0.1609                29.0894

                     28                     29                     30
                      A                      A                      A
 Frequencies --   1390.2000              1414.1410              1460.6660
 Red. masses --      1.2210                 1.2292                 1.0509
 Frc consts  --      1.3903                 1.4483                 1.3210
 IR Inten    --      3.7999                 4.2639                 9.7876

                     31                     32                     33
                      A                      A                      A
 Frequencies --   1474.8505              1481.7378              1488.7095
 Red. masses --      1.0536                 1.0471                 1.0501
 Frc consts  --      1.3503                 1.3545                 1.3712
 IR Inten    --      6.7134                 0.9713                 1.8242

                     34                     35                     36
                      A                      A                      A
 Frequencies --   1501.8857              1507.9917              1628.7873
 Red. masses --      1.0544                 1.0766                 1.1128
 Frc consts  --      1.4013                 1.4425                 1.7394
 IR Inten    --      5.1384                10.4176                58.5773

                     37                     38                     39
                      A                      A                      A
 Frequencies --   1801.5406              3025.1165              3038.8793
 Red. masses --      9.5148                 1.0343                 1.0351
 Frc consts  --     18.1943                 5.5766                 5.6320
 IR Inten    --    128.2571                18.1128                14.4146

                     40                     41                     42
                      A                      A                      A
 Frequencies --   3046.4151              3092.1016              3106.1367
 Red. masses --      1.0373                 1.1014                 1.1004
 Frc consts  --      5.6719                 6.2042                 6.2551
 IR Inten    --      4.6864                16.3395                35.8606

                     43                     44                     45
                      A                      A                      A
 Frequencies --   3109.1157              3110.9594              3123.1378
 Red. masses --      1.1003                 1.0983                 1.1025
 Frc consts  --      6.2666                 6.2630                 6.3360
 IR Inten    --     15.4193                10.9757                23.7868

                     46                     47                     48
                      A                      A                      A
 Frequencies --   3154.3790              3489.3369              3575.2281
 Red. masses --      1.1029                 1.0484                 1.0927
 Frc consts  --      6.4659                 7.5206                 8.2296
 IR Inten    --      9.8522                10.1700                 7.2244

 - Thermochemistry -
 -------------------
 Temperature   298.150 Kelvin.  Pressure   1.00000 Atm.
 Atom     1 has atomic number  6 and mass  12.00000

 Molecular mass:   101.08406 amu.
 Principal axes and moments of inertia in atomic units:
                           1         2         3
     Eigenvalues --   559.10030 773.37394 930.60948
           X            0.99654  -0.08169   0.01511
           Y            0.08222   0.99586  -0.03867
           Z           -0.01189   0.03978   0.99914
 This molecule is an asymmetric top.
 Rotational symmetry number  1.
 Warning -- assumption of classical behavior for rotation
           may cause significant error
 Rotational temperatures (Kelvin)      0.15492     0.11199     0.09307
 Rotational constants (GHZ):           3.22794     2.33359     1.93931
 Zero-point vibrational energy     413421.3 (Joules/Mol)
                                   98.81006 (Kcal/Mol)
 Warning -- explicit consideration of  13 degrees of freedom as
           vibrations may cause significant error
 Vibrational temperatures:     98.78   228.01   318.40   351.00   377.93
          (Kelvin)            395.45   400.97   493.74   550.80   600.41
                              662.75   816.38   877.55   973.59  1213.34
                             1282.52  1331.77  1395.09  1414.45  1435.26
                             1511.55  1595.41  1677.71  1713.39  1826.59
                             1943.47  1990.44  2000.19  2034.63  2101.57
                             2121.98  2131.89  2141.92  2160.88  2169.66
                             2343.46  2592.01  4352.46  4372.26  4383.11
                             4448.84  4469.03  4473.32  4475.97  4493.49
                             4538.44  5020.37  5143.95

 Zero-point correction=                           0.157464 (Hartree/Particle)
 Thermal correction to Energy=                    0.166273
 Thermal correction to Enthalpy=                  0.167217
 Thermal correction to Gibbs Free Energy=         0.125023
 Sum of electronic and zero-point Energies=           -326.998709
 Sum of electronic and thermal Energies=              -326.989900
 Sum of electronic and thermal Enthalpies=            -326.988955
 Sum of electronic and thermal Free Energies=         -327.031150

                     E (Thermal)             CV                S
                      KCal/Mol        Cal/Mol-Kelvin    Cal/Mol-Kelvin
 Total                  104.338             32.374             88.806
 Electronic               0.000              0.000              0.000
 Translational            0.889              2.981             39.750
 Rotational               0.889              2.981             27.489
 Vibrational            102.560             26.412             21.567
 Vibration     1          0.598              1.969              4.192
 Vibration     2          0.621              1.893              2.568
 Vibration     3          0.648              1.809              1.948
 Vibration     4          0.659              1.773              1.774
 Vibration     5          0.670              1.741              1.644
 Vibration     6          0.677              1.720              1.565
 Vibration     7          0.679              1.713              1.542
 Vibration     8          0.722              1.589              1.197
 Vibration     9          0.752              1.507              1.028
 Vibration    10          0.780              1.433              0.901
 Vibration    11          0.818              1.337              0.764
 Vibration    12          0.923              1.102              0.509
 Vibration    13          0.969              1.011              0.433

 Optimization completed.
    -- Stationary point found.
 Normal termination of Gaussian 09 at Sun Aug 21 07:59:57 2022.

 -----------------------------------------------------------------
 #P Geom=AllCheck Guess=TCheck SCRF=Check CCSD(T,E4T,FrzG4)/GTBas1
 -----------------------------------------------------------------

 Structure from the checkpoint file:  "G4.Frag_603.chk"
 --------
 Frag_603
 --------
 Charge =  0 Multiplicity = 1

 SCF Done:  E(RHF) =  -325.049128680     A.U. after   14 cycles
 E2 =    -0.9951483890D+00 EUMP2 =    -0.32604427706907D+03
 CCSD(T)
 CCSD(T)= -0.32614043440D+03
 .1071476\CCSD(T)=-326.1404344\RMSD=4.006e-09\PG=C01 [X(C5H11N1O1)]\\@
 Normal termination of Gaussian 09 at Sun Aug 21 08:16:59 2022.

 ---------------------------------------------------------
 #P Geom=AllCheck Guess=TCheck SCRF=Check MP4=FrzG4/GTBas2
 ---------------------------------------------------------

 Structure from the checkpoint file:  "G4.Frag_603.chk"
 --------
 Frag_603
 --------
 Charge =  0 Multiplicity = 1

 SCF Done:  E(RHF) =  -325.058044216     A.U. after   13 cycles
 E2 =    -0.1009232541D+01 EUMP2 =    -0.32606727675751D+03
 Normal termination of Gaussian 09 at Sun Aug 21 08:38:15 2022.

 ---------------------------------------------------------
 #P Geom=AllCheck Guess=TCheck SCRF=Check MP4=FrzG4/GTBas3
 ---------------------------------------------------------

 Structure from the checkpoint file:  "G4.Frag_603.chk"
 --------
 Frag_603
 --------
 Charge =  0 Multiplicity = 1

 SCF Done:  E(RHF) =  -325.090486580     A.U. after   11 cycles
 E2 =    -0.1228605436D+01 EUMP2 =    -0.32631909201640D+03
 Normal termination of Gaussian 09 at Sun Aug 21 13:57:00 2022.

 -----------------------------------------------------------
 #P Geom=AllCheck Guess=TCheck SCRF=Check MP2=Full/GTLargeXP
 -----------------------------------------------------------

 Structure from the checkpoint file:  "G4.Frag_603.chk"
 --------
 Frag_603
 --------
 Charge =  0 Multiplicity = 1

 SCF Done:  E(RHF) =  -325.169234878     A.U. after   13 cycles
 E2 =    -0.1612231141D+01 EUMP2 =    -0.32678146601842D+03
 Normal termination of Gaussian 09 at Sun Aug 21 14:10:45 2022.
 SCF Done:  E(RHF) =  -325.194457468     A.U. after    9 cycles
 Normal termination of Gaussian 09 at Sun Aug 21 14:22:18 2022.

                         Standard orientation:
 ---------------------------------------------------------------------
 Center     Atomic      Atomic             Coordinates (Angstroms)
 Number     Number       Type             X           Y           Z
 ---------------------------------------------------------------------
      1          6           0        1.890137   -0.880646   -0.042291
      2          6           0        0.911251    0.275138    0.042827
      3          8           0        1.302289    1.420322    0.085360
      4          6           0       -0.602359   -0.034141    0.034667
      5          6           0       -0.942100   -1.277959    0.874634
      6          6           0       -0.990448   -0.273982   -1.448504
      7          7           0       -1.284945    1.124570    0.613113
      8          1           0        1.597901   -1.610274   -0.802785
      9          1           0        1.917841   -1.411426    0.915857
     10          1           0        2.885092   -0.490995   -0.260101
     11          1           0       -0.630922   -1.136351    1.912931
     12          1           0       -2.026770   -1.427309    0.873950
     13          1           0       -0.480970   -2.188473    0.481147
     14          1           0       -0.476158   -1.135585   -1.887458
     15          1           0       -2.067111   -0.466951   -1.513203
     16          1           0       -0.762775    0.609338   -2.052801
     17          1           0       -0.761066    1.959968    0.366518
     18          1           0       -2.217649    1.213033    0.223265
 ---------------------------------------------------------------------

 SCF Done:  E(RHF) =  -325.199831373     A.U. after    8 cycles

 The electronic state is 1-A.
 Alpha  occ. eigenvalues --  -20.54647 -15.53370 -11.33140 -11.27789 -11.23698
 Alpha  occ. eigenvalues --  -11.23125 -11.22345  -1.39363  -1.19253  -1.04776
 Alpha  occ. eigenvalues --   -0.99191  -0.94679  -0.85001  -0.71775  -0.69286
 Alpha  occ. eigenvalues --   -0.64733  -0.62222  -0.60095  -0.59693  -0.58784
 Alpha  occ. eigenvalues --   -0.56249  -0.54464  -0.53834  -0.51431  -0.50301
 Alpha  occ. eigenvalues --   -0.48861  -0.40990  -0.39181
 Alpha virt. eigenvalues --    0.02952   0.03769   0.04136   0.05166   0.06086
 Alpha virt. eigenvalues --    0.06756   0.06872   0.07298   0.07378   0.09301
 Alpha virt. eigenvalues --    0.09462   0.09548   0.09954   0.10930   0.11203

 Mulliken charges:
               1
     1  C   -0.601572
     2  C    0.460492
     3  O   -0.567665
     4  C    0.381602
     5  C   -0.581951
     6  C   -0.596183
     7  N   -0.773187
     8  H    0.187106
     9  H    0.201445
    10  H    0.217318
    11  H    0.179409
    12  H    0.175087
    13  H    0.167980
    14  H    0.168163
    15  H    0.173178
    16  H    0.191271
    17  H    0.332564
    18  H    0.284944
 Sum of Mulliken charges =  -0.00000

 Dipole moment (field-independent basis, Debye):
    X=             -0.9599    Y=             -2.8868    Z=             -1.5128  Tot=              3.3976
 Quadrupole moment (field-independent basis, Debye-Ang):
   XX=            -43.5781   YY=            -46.9201   ZZ=            -46.2758
   XY=             -4.7536   XZ=              2.0346   YZ=             -1.9126

 Normal termination of Gaussian 09 at Sun Aug 21 19:30:39 2022.
