 Gaussian 09, Revision E.01,
 Gaussian 09:  ES64L-G09RevE.01 30-Nov-2015

 -----
 #P G4
 -----

 --------
 Frag_800
 --------
 Symbolic Z-matrix:
 Charge =  0 Multiplicity = 1

 SCF Done:  E(RB3LYP) =  -283.967811831     A.U. after   13 cycles
 SCF Done:  E(RB3LYP) =  -283.980183796     A.U. after   12 cycles
 SCF Done:  E(RB3LYP) =  -283.981553000     A.U. after   12 cycles
 SCF Done:  E(RB3LYP) =  -283.982160578     A.U. after   12 cycles
 SCF Done:  E(RB3LYP) =  -283.982321552     A.U. after    9 cycles
 SCF Done:  E(RB3LYP) =  -283.982444071     A.U. after   11 cycles
 SCF Done:  E(RB3LYP) =  -283.983141400     A.U. after   11 cycles
 SCF Done:  E(RB3LYP) =  -283.983284591     A.U. after   11 cycles
 SCF Done:  E(RB3LYP) =  -283.984242558     A.U. after   11 cycles
 SCF Done:  E(RB3LYP) =  -283.985115969     A.U. after   11 cycles
 SCF Done:  E(RB3LYP) =  -283.985327465     A.U. after    8 cycles
 SCF Done:  E(RB3LYP) =  -283.985328104     A.U. after    7 cycles
 SCF Done:  E(RB3LYP) =  -283.985328222     A.U. after    6 cycles
 Optimization completed.
    -- Stationary point found.
 Normal termination of Gaussian 09 at Fri Aug 26 03:46:24 2022.

 ----------------------------------------------------------
 #P Geom=AllCheck Guess=TCheck SCRF=Check B3LYP/GTBas3 Freq
 ----------------------------------------------------------

 Structure from the checkpoint file:  "G4.Frag_800.chk"
 --------
 Frag_800
 --------
 Charge =  0 Multiplicity = 1

 SCF Done:  E(RB3LYP) =  -283.985328222     A.U. after    1 cycles

  Exact polarizability:  59.326   1.184  63.153   1.196   6.836  44.221
 Approx polarizability:  77.880   2.677  98.964   1.318  14.191  66.525

                      1                      2                      3
                      A                      A                      A
 Frequencies --     93.7314               240.7756               279.7242
 Red. masses --      3.6294                 2.5056                 1.1539
 Frc consts  --      0.0188                 0.0856                 0.0532
 IR Inten    --      0.2168                 0.7886                33.2523

                      4                      5                      6
                      A                      A                      A
 Frequencies --    311.4957               323.1168               351.7966
 Red. masses --      1.5601                 1.5613                 1.1931
 Frc consts  --      0.0892                 0.0960                 0.0870
 IR Inten    --     26.2522                21.8039                23.6263

                      7                      8                      9
                      A                      A                      A
 Frequencies --    419.6886               488.6160               550.3384
 Red. masses --      2.3979                 2.2737                 3.3671
 Frc consts  --      0.2488                 0.3198                 0.6009
 IR Inten    --      5.0184                 9.0666                18.9148

                     10                     11                     12
                      A                      A                      A
 Frequencies --    631.3063               698.7709               784.0871
 Red. masses --      1.7750                 1.4467                 1.4811
 Frc consts  --      0.4168                 0.4162                 0.5365
 IR Inten    --    120.4194                54.0020                56.7239

                     13                     14                     15
                      A                      A                      A
 Frequencies --    801.7231               846.1352               897.1133
 Red. masses --      1.9356                 1.3854                 1.5010
 Frc consts  --      0.7330                 0.5844                 0.7118
 IR Inten    --     49.6983                46.9879                96.6936

                     16                     17                     18
                      A                      A                      A
 Frequencies --    945.2846               988.2441               998.3299
 Red. masses --      2.0094                 1.5670                 2.0243
 Frc consts  --      1.0579                 0.9017                 1.1887
 IR Inten    --    179.4206                 9.6646                19.6658

                     19                     20                     21
                      A                      A                      A
 Frequencies --   1120.9279              1149.0842              1198.0325
 Red. masses --      1.5051                 1.7174                 1.3407
 Frc consts  --      1.1142                 1.3361                 1.1338
 IR Inten    --      5.6059                31.1647                 5.0453

                     22                     23                     24
                      A                      A                      A
 Frequencies --   1299.4490              1323.2118              1410.1828
 Red. masses --      1.4233                 2.1460                 1.3202
 Frc consts  --      1.4160                 2.2138                 1.5468
 IR Inten    --      8.8120                40.1752                11.8924

                     25                     26                     27
                      A                      A                      A
 Frequencies --   1422.2173              1439.0045              1630.0974
 Red. masses --      1.6822                 1.2218                 1.1139
 Frc consts  --      2.0048                 1.4907                 1.7438
 IR Inten    --     10.6302                13.8766                49.2157

                     28                     29                     30
                      A                      A                      A
 Frequencies --   1643.5473              1648.0765              1720.4369
 Red. masses --      1.1431                 1.0995                 4.9284
 Frc consts  --      1.8194                 1.7595                 8.5948
 IR Inten    --     45.8179                24.7492                70.4636

                     31                     32                     33
                      A                      A                      A
 Frequencies --   2877.7784              3153.7921              3260.2470
 Red. masses --      1.0802                 1.0639                 1.1100
 Frc consts  --      5.2708                 6.2349                 6.9512
 IR Inten    --    106.7726                13.2778                 3.0298

                     34                     35                     36
                      A                      A                      A
 Frequencies --   3473.9641              3508.8941              3527.8691
 Red. masses --      1.0499                 1.0486                 1.0479
 Frc consts  --      7.4652                 7.6066                 7.6843
 IR Inten    --      0.1114                 0.7534                 2.6966

                     37                     38                     39
                      A                      A                      A
 Frequencies --   3558.0777              3598.3789              3627.4773
 Red. masses --      1.0905                 1.0936                 1.0955
 Frc consts  --      8.1341                 8.3427                 8.4931
 IR Inten    --      1.0842                 1.8844                 5.1764

 - Thermochemistry -
 -------------------
 Temperature   298.150 Kelvin.  Pressure   1.00000 Atm.
 Atom     1 has atomic number  6 and mass  12.00000

 Molecular mass:    87.07965 amu.
 Principal axes and moments of inertia in atomic units:
                           1         2         3
     Eigenvalues --   369.08436 599.24036 808.83844
           X            0.99996  -0.00724   0.00601
           Y            0.00713   0.99982   0.01755
           Z           -0.00613  -0.01750   0.99983
 This molecule is an asymmetric top.
 Rotational symmetry number  1.
 Rotational temperatures (Kelvin)      0.23467     0.14454     0.10708
 Rotational constants (GHZ):           4.88978     3.01172     2.23128
 Zero-point vibrational energy     348358.7 (Joules/Mol)
                                   83.25972 (Kcal/Mol)
 Warning -- explicit consideration of   9 degrees of freedom as
           vibrations may cause significant error
 Vibrational temperatures:    134.86   346.42   402.46   448.17   464.89
          (Kelvin)            506.16   603.84   703.01   791.81   908.31
                             1005.37  1128.13  1153.50  1217.40  1290.74
                             1360.05  1421.86  1436.37  1612.76  1653.27
                             1723.70  1869.61  1903.80  2028.94  2046.25
                             2070.40  2345.34  2364.70  2371.21  2475.32
                             4140.48  4537.60  4690.76  4998.25  5048.51
                             5075.81  5119.27  5177.26  5219.12

 Zero-point correction=                           0.132683 (Hartree/Particle)
 Thermal correction to Energy=                    0.139850
 Thermal correction to Enthalpy=                  0.140794
 Thermal correction to Gibbs Free Energy=         0.102373
 Sum of electronic and zero-point Energies=           -283.852645
 Sum of electronic and thermal Energies=              -283.845479
 Sum of electronic and thermal Enthalpies=            -283.844535
 Sum of electronic and thermal Free Energies=         -283.882955

                     E (Thermal)             CV                S
                      KCal/Mol        Cal/Mol-Kelvin    Cal/Mol-Kelvin
 Total                   87.757             26.972             80.864
 Electronic               0.000              0.000              0.000
 Translational            0.889              2.981             39.306
 Rotational               0.889              2.981             26.684
 Vibrational             85.979             21.011             14.874
 Vibration     1          0.603              1.954              3.581
 Vibration     2          0.658              1.778              1.797
 Vibration     3          0.680              1.711              1.535
 Vibration     4          0.700              1.652              1.354
 Vibration     5          0.708              1.629              1.294
 Vibration     6          0.728              1.572              1.158
 Vibration     7          0.782              1.427              0.893
 Vibration     8          0.845              1.275              0.687
 Vibration     9          0.906              1.139              0.543

 Optimization completed.
    -- Stationary point found.
 Normal termination of Gaussian 09 at Fri Aug 26 03:47:00 2022.

 -----------------------------------------------------------------
 #P Geom=AllCheck Guess=TCheck SCRF=Check CCSD(T,E4T,FrzG4)/GTBas1
 -----------------------------------------------------------------

 Structure from the checkpoint file:  "G4.Frag_800.chk"
 --------
 Frag_800
 --------
 Charge =  0 Multiplicity = 1

 SCF Done:  E(RHF) =  -282.145877144     A.U. after   12 cycles
 E2 =    -0.8777345482D+00 EUMP2 =    -0.28302361169180D+03
 CCSD(T)
 CCSD(T)= -0.28310616553D+03
 0413\CCSD(T)=-283.1061655\RMSD=4.962e-09\PG=C01 [X(C3H9N3)]\\@
 Normal termination of Gaussian 09 at Fri Aug 26 03:49:00 2022.

 ---------------------------------------------------------
 #P Geom=AllCheck Guess=TCheck SCRF=Check MP4=FrzG4/GTBas2
 ---------------------------------------------------------

 Structure from the checkpoint file:  "G4.Frag_800.chk"
 --------
 Frag_800
 --------
 Charge =  0 Multiplicity = 1

 SCF Done:  E(RHF) =  -282.158717030     A.U. after   12 cycles
 E2 =    -0.8929169508D+00 EUMP2 =    -0.28305163398088D+03
 Normal termination of Gaussian 09 at Fri Aug 26 03:49:37 2022.

 ---------------------------------------------------------
 #P Geom=AllCheck Guess=TCheck SCRF=Check MP4=FrzG4/GTBas3
 ---------------------------------------------------------

 Structure from the checkpoint file:  "G4.Frag_800.chk"
 --------
 Frag_800
 --------
 Charge =  0 Multiplicity = 1

 SCF Done:  E(RHF) =  -282.190666284     A.U. after   11 cycles
 E2 =    -0.1073590813D+01 EUMP2 =    -0.28326425709729D+03
 Normal termination of Gaussian 09 at Fri Aug 26 03:53:34 2022.

 -----------------------------------------------------------
 #P Geom=AllCheck Guess=TCheck SCRF=Check MP2=Full/GTLargeXP
 -----------------------------------------------------------

 Structure from the checkpoint file:  "G4.Frag_800.chk"
 --------
 Frag_800
 --------
 Charge =  0 Multiplicity = 1

 SCF Done:  E(RHF) =  -282.264966187     A.U. after   12 cycles
 E2 =    -0.1406401982D+01 EUMP2 =    -0.28367136816904D+03
 Normal termination of Gaussian 09 at Fri Aug 26 03:55:31 2022.
 SCF Done:  E(RHF) =  -282.286876357     A.U. after    8 cycles
 Normal termination of Gaussian 09 at Fri Aug 26 03:57:37 2022.

                         Standard orientation:
 ---------------------------------------------------------------------
 Center     Atomic      Atomic             Coordinates (Angstroms)
 Number     Number       Type             X           Y           Z
 ---------------------------------------------------------------------
      1          6           0        1.116854    1.325921    0.518639
      2          6           0        0.772011    0.164158   -0.045140
      3          7           0        1.671065   -0.878596   -0.316694
      4          6           0       -0.670281   -0.236197   -0.339772
      5          7           0       -1.542519    0.925247   -0.355550
      6          7           0       -1.234204   -1.173161    0.639129
      7          1           0        2.151379    1.566327    0.742747
      8          1           0        0.356108    2.038025    0.805829
      9          1           0        1.499516   -1.351090   -1.195797
     10          1           0        2.643692   -0.612212   -0.241019
     11          1           0       -0.659970   -0.786985   -1.302493
     12          1           0       -1.251267    1.579659   -1.073350
     13          1           0       -2.486450    0.617771   -0.565049
     14          1           0       -0.616411   -1.977413    0.711961
     15          1           0       -1.208493   -0.711807    1.546613
 ---------------------------------------------------------------------

 SCF Done:  E(RHF) =  -282.291587189     A.U. after    8 cycles

 The electronic state is 1-A.
 Alpha  occ. eigenvalues --  -15.56370 -15.54003 -15.53872 -11.29185 -11.26712
 Alpha  occ. eigenvalues --  -11.19798  -1.24254  -1.19737  -1.12346  -0.99803
 Alpha  occ. eigenvalues --   -0.88128  -0.74914  -0.70128  -0.68795  -0.66144
 Alpha  occ. eigenvalues --   -0.60720  -0.58786  -0.55905  -0.55291  -0.52599
 Alpha  occ. eigenvalues --   -0.48574  -0.40759  -0.39650  -0.32174
 Alpha virt. eigenvalues --    0.03443   0.04417   0.04896   0.05603   0.06710
 Alpha virt. eigenvalues --    0.07135   0.07859   0.08232   0.08628   0.10197
 Alpha virt. eigenvalues --    0.11442   0.11770   0.12523   0.12654   0.12911

 Mulliken charges:
               1
     1  C   -0.543401
     2  C    0.228994
     3  N   -0.747814
     4  C    0.161126
     5  N   -0.741317
     6  N   -0.699045
     7  H    0.157181
     8  H    0.222771
     9  H    0.309479
    10  H    0.310411
    11  H    0.130381
    12  H    0.306913
    13  H    0.310774
    14  H    0.295182
    15  H    0.298364
 Sum of Mulliken charges =  -0.00000

 Dipole moment (field-independent basis, Debye):
    X=              1.4478    Y=             -0.3793    Z=             -1.8602  Tot=              2.3875
 Quadrupole moment (field-independent basis, Debye-Ang):
   XX=            -36.6499   YY=            -39.4896   ZZ=            -35.8902
   XY=             -2.5558   XZ=              0.6681   YZ=              0.4562

 Normal termination of Gaussian 09 at Fri Aug 26 04:05:18 2022.
