 Gaussian 09, Revision E.01,
 Gaussian 09:  ES64L-G09RevE.01 30-Nov-2015

 -----
 #P G4
 -----

 ---------
 Frag_1100
 ---------
 Symbolic Z-matrix:
 Charge =  0 Multiplicity = 1

 SCF Done:  E(RB3LYP) =  -356.976252612     A.U. after   12 cycles
 SCF Done:  E(RB3LYP) =  -356.987563962     A.U. after   11 cycles
 SCF Done:  E(RB3LYP) =  -356.988841005     A.U. after   11 cycles
 SCF Done:  E(RB3LYP) =  -356.989180316     A.U. after   11 cycles
 SCF Done:  E(RB3LYP) =  -356.989352524     A.U. after   11 cycles
 SCF Done:  E(RB3LYP) =  -356.989552374     A.U. after   11 cycles
 SCF Done:  E(RB3LYP) =  -356.989807628     A.U. after   11 cycles
 SCF Done:  E(RB3LYP) =  -356.990128401     A.U. after   11 cycles
 SCF Done:  E(RB3LYP) =  -356.990692288     A.U. after   11 cycles
 SCF Done:  E(RB3LYP) =  -356.990945079     A.U. after   10 cycles
 SCF Done:  E(RB3LYP) =  -356.991762918     A.U. after   10 cycles
 SCF Done:  E(RB3LYP) =  -356.991767272     A.U. after    9 cycles
 SCF Done:  E(RB3LYP) =  -356.991767671     A.U. after    7 cycles
 Optimization completed.
    -- Stationary point found.
 Normal termination of Gaussian 09 at Fri Aug 26 10:26:51 2022.

 ----------------------------------------------------------
 #P Geom=AllCheck Guess=TCheck SCRF=Check B3LYP/GTBas3 Freq
 ----------------------------------------------------------

 Structure from the checkpoint file:  "G4.Frag_1100.chk"
 ---------
 Frag_1100
 ---------
 Charge =  0 Multiplicity = 1

 SCF Done:  E(RB3LYP) =  -356.991767671     A.U. after    1 cycles

  Exact polarizability:  47.701   1.324  39.768   2.001  -0.554  39.904
 Approx polarizability:  62.903   1.782  57.682   1.853   1.428  58.040

                      1                      2                      3
                      A                      A                      A
 Frequencies --    140.1920               204.3452               254.1924
 Red. masses --      1.7888                 1.5289                 1.2801
 Frc consts  --      0.0207                 0.0376                 0.0487
 IR Inten    --     11.6270                 9.4629                 5.7731

                      4                      5                      6
                      A                      A                      A
 Frequencies --    297.8839               314.0070               398.8979
 Red. masses --      4.1612                 1.0850                 1.9724
 Frc consts  --      0.2176                 0.0630                 0.1849
 IR Inten    --     14.0413                58.3822                29.6377

                      7                      8                      9
                      A                      A                      A
 Frequencies --    428.2025               501.7860               512.8943
 Red. masses --      2.0797                 1.6698                 3.6379
 Frc consts  --      0.2247                 0.2477                 0.5638
 IR Inten    --     13.2997                62.4478                 1.0946

                     10                     11                     12
                      A                      A                      A
 Frequencies --    571.5437               648.9586               786.2988
 Red. masses --      3.9424                 3.7305                 1.6599
 Frc consts  --      0.7588                 0.9257                 0.6046
 IR Inten    --     13.5779                43.9376               173.6791

                     13                     14                     15
                      A                      A                      A
 Frequencies --    824.8507               834.4156               934.5172
 Red. masses --      4.1877                 1.4768                 2.6228
 Frc consts  --      1.6787                 0.6058                 1.3495
 IR Inten    --     29.7187               115.1813               121.2159

                     16                     17                     18
                      A                      A                      A
 Frequencies --    974.5018              1061.6159              1119.3892
 Red. masses --      6.8755                 2.0692                 1.9476
 Frc consts  --      3.8470                 1.3740                 1.4379
 IR Inten    --      8.1404               140.6711                26.2055

                     19                     20                     21
                      A                      A                      A
 Frequencies --   1262.8451              1277.5230              1342.4952
 Red. masses --      1.4867                 1.9971                 1.6760
 Frc consts  --      1.3969                 1.9204                 1.7797
 IR Inten    --     52.2490               224.3358                59.1703

                     22                     23                     24
                      A                      A                      A
 Frequencies --   1372.8529              1397.3784              1625.3342
 Red. masses --      1.2206                 1.6384                 1.1005
 Frc consts  --      1.3554                 1.8849                 1.7128
 IR Inten    --     13.7413               116.5438                48.5236

                     25                     26                     27
                      A                      A                      A
 Frequencies --   1637.1869              1678.5322              3387.9990
 Red. masses --      1.1405                 1.0656                 1.0464
 Frc consts  --      1.8011                 1.7688                 7.0768
 IR Inten    --     41.0732                25.8695                 7.8853

                     28                     29                     30
                      A                      A                      A
 Frequencies --   3468.6737              3519.2023              3531.9784
 Red. masses --      1.0931                 1.0483                 1.0477
 Frc consts  --      7.7490                 7.6495                 7.7006
 IR Inten    --      0.9740                 6.5171                 4.6583

                     31                     32                     33
                      A                      A                      A
 Frequencies --   3610.8136              3628.3810              3808.3846
 Red. masses --      1.0942                 1.0954                 1.0648
 Frc consts  --      8.4054                 8.4968                 9.0989
 IR Inten    --      8.7301                 8.2040                49.7896

 - Thermochemistry -
 -------------------
 Temperature   298.150 Kelvin.  Pressure   1.00000 Atm.
 Atom     1 has atomic number  7 and mass  14.00307

 Molecular mass:    93.05383 amu.
 Principal axes and moments of inertia in atomic units:
                           1         2         3
     Eigenvalues --   365.90463 589.06758 612.64863
           X            0.99845   0.03871   0.03996
           Y           -0.02578   0.95840  -0.28427
           Z           -0.04930   0.28280   0.95791
 This molecule is an asymmetric top.
 Rotational symmetry number  1.
 Rotational temperatures (Kelvin)      0.23671     0.14704     0.14138
 Rotational constants (GHZ):           4.93227     3.06373     2.94580
 Zero-point vibrational energy     283264.2 (Joules/Mol)
                                   67.70176 (Kcal/Mol)
 Warning -- explicit consideration of  10 degrees of freedom as
           vibrations may cause significant error
 Vibrational temperatures:    201.70   294.01   365.73   428.59   451.79
          (Kelvin)            573.92   616.09   721.96   737.94   822.32
                              933.71  1131.31  1186.77  1200.54  1344.56
                             1402.09  1527.43  1610.55  1816.95  1838.07
                             1931.55  1975.23  2010.51  2338.49  2355.54
                             2415.03  4874.57  4990.64  5063.34  5081.72
                             5195.15  5220.42  5479.41

 Zero-point correction=                           0.107890 (Hartree/Particle)
 Thermal correction to Energy=                    0.115007
 Thermal correction to Enthalpy=                  0.115951
 Thermal correction to Gibbs Free Energy=         0.077787
 Sum of electronic and zero-point Energies=           -356.883878
 Sum of electronic and thermal Energies=              -356.876761
 Sum of electronic and thermal Enthalpies=            -356.875817
 Sum of electronic and thermal Free Energies=         -356.913981

                     E (Thermal)             CV                S
                      KCal/Mol        Cal/Mol-Kelvin    Cal/Mol-Kelvin
 Total                   72.168             26.291             80.323
 Electronic               0.000              0.000              0.000
 Translational            0.889              2.981             39.503
 Rotational               0.889              2.981             26.382
 Vibrational             70.390             20.329             14.437
 Vibration     1          0.615              1.913              2.801
 Vibration     2          0.640              1.834              2.094
 Vibration     3          0.665              1.756              1.701
 Vibration     4          0.691              1.678              1.429
 Vibration     5          0.702              1.647              1.341
 Vibration     6          0.765              1.472              0.967
 Vibration     7          0.790              1.409              0.865
 Vibration     8          0.857              1.246              0.654
 Vibration     9          0.868              1.221              0.627
 Vibration    10          0.928              1.093              0.501

 Optimization completed.
    -- Stationary point found.
 Normal termination of Gaussian 09 at Fri Aug 26 10:27:22 2022.

 -----------------------------------------------------------------
 #P Geom=AllCheck Guess=TCheck SCRF=Check CCSD(T,E4T,FrzG4)/GTBas1
 -----------------------------------------------------------------

 Structure from the checkpoint file:  "G4.Frag_1100.chk"
 ---------
 Frag_1100
 ---------
 Charge =  0 Multiplicity = 1

 SCF Done:  E(RHF) =  -354.937198425     A.U. after   12 cycles
 E2 =    -0.9833378474D+00 EUMP2 =    -0.35592053627252D+03
 CCSD(T)
 CCSD(T)= -0.35598800133D+03
 Normal termination of Gaussian 09 at Fri Aug 26 10:29:25 2022.

 ---------------------------------------------------------
 #P Geom=AllCheck Guess=TCheck SCRF=Check MP4=FrzG4/GTBas2
 ---------------------------------------------------------

 Structure from the checkpoint file:  "G4.Frag_1100.chk"
 ---------
 Frag_1100
 ---------
 Charge =  0 Multiplicity = 1

 SCF Done:  E(RHF) =  -354.952109866     A.U. after   12 cycles
 E2 =    -0.1002558555D+01 EUMP2 =    -0.35595466842081D+03
 Normal termination of Gaussian 09 at Fri Aug 26 10:30:06 2022.

 ---------------------------------------------------------
 #P Geom=AllCheck Guess=TCheck SCRF=Check MP4=FrzG4/GTBas3
 ---------------------------------------------------------

 Structure from the checkpoint file:  "G4.Frag_1100.chk"
 ---------
 Frag_1100
 ---------
 Charge =  0 Multiplicity = 1

 SCF Done:  E(RHF) =  -354.990301897     A.U. after   11 cycles
 E2 =    -0.1209232852D+01 EUMP2 =    -0.35619953474898D+03
 Normal termination of Gaussian 09 at Fri Aug 26 10:33:40 2022.

 -----------------------------------------------------------
 #P Geom=AllCheck Guess=TCheck SCRF=Check MP2=Full/GTLargeXP
 -----------------------------------------------------------

 Structure from the checkpoint file:  "G4.Frag_1100.chk"
 ---------
 Frag_1100
 ---------
 Charge =  0 Multiplicity = 1

 SCF Done:  E(RHF) =  -355.093174188     A.U. after   12 cycles
 E2 =    -0.1566022904D+01 EUMP2 =    -0.35665919709254D+03
 Normal termination of Gaussian 09 at Fri Aug 26 10:35:30 2022.
 SCF Done:  E(RHF) =  -355.121188920     A.U. after    9 cycles
 Normal termination of Gaussian 09 at Fri Aug 26 10:37:14 2022.

                         Standard orientation:
 ---------------------------------------------------------------------
 Center     Atomic      Atomic             Coordinates (Angstroms)
 Number     Number       Type             X           Y           Z
 ---------------------------------------------------------------------
      1          7           0        1.985252   -0.173199   -0.105915
      2          8           0        0.724597   -0.746145   -0.449277
      3          6           0       -0.379728    0.015300    0.017295
      4          7           0       -0.332560    1.337507   -0.572636
      5          7           0       -1.508691   -0.844901   -0.290127
      6          8           0       -0.323564    0.242437    1.399521
      7          1           0        1.964153   -0.096152    0.914133
      8          1           0        1.923452    0.794201   -0.436412
      9          1           0       -0.923745    1.979107   -0.058444
     10          1           0       -0.619517    1.305356   -1.543348
     11          1           0       -1.283162   -1.422118   -1.093301
     12          1           0       -2.330585   -0.291676   -0.503078
     13          1           0       -0.668498   -0.566706    1.795472
 ---------------------------------------------------------------------

 SCF Done:  E(RHF) =  -355.127502604     A.U. after    8 cycles

 The electronic state is 1-A.
 Alpha  occ. eigenvalues --  -20.58486 -20.57391 -15.59289 -15.56098 -15.56080
 Alpha  occ. eigenvalues --  -11.40378  -1.45249  -1.36911  -1.21759  -1.16100
 Alpha  occ. eigenvalues --   -1.07093  -0.85001  -0.75132  -0.71777  -0.70490
 Alpha  occ. eigenvalues --   -0.66561  -0.63592  -0.62615  -0.59404  -0.53817
 Alpha  occ. eigenvalues --   -0.50994  -0.47940  -0.46906  -0.42629  -0.40989
 Alpha virt. eigenvalues --    0.03477   0.04872   0.04933   0.05488   0.08302
 Alpha virt. eigenvalues --    0.09157   0.09294   0.09651   0.09844   0.11856
 Alpha virt. eigenvalues --    0.12864   0.13329   0.13519   0.15290   0.16841

 Mulliken charges:
               1
     1  N   -0.509795
     2  O   -0.302043
     3  C    0.664272
     4  N   -0.764615
     5  N   -0.756933
     6  O   -0.617341
     7  H    0.306297
     8  H    0.315161
     9  H    0.329292
    10  H    0.307094
    11  H    0.327792
    12  H    0.299098
    13  H    0.401721
 Sum of Mulliken charges =  -0.00000

 Dipole moment (field-independent basis, Debye):
    X=             -2.9587    Y=              1.5383    Z=             -0.5032  Tot=              3.3725
 Quadrupole moment (field-independent basis, Debye-Ang):
   XX=            -36.4738   YY=            -37.0230   ZZ=            -33.1756
   XY=              0.8479   XZ=              4.8064   YZ=             -2.6381

 Normal termination of Gaussian 09 at Fri Aug 26 10:44:00 2022.
