 Gaussian 09, Revision E.01,
 Gaussian 09:  ES64L-G09RevE.01 30-Nov-2015

 -----
 #P G4
 -----

 --------
 Frag_565
 --------
 Symbolic Z-matrix:
 Charge =  0 Multiplicity = 1

 SCF Done:  E(RB3LYP) =  -269.123944407     A.U. after   12 cycles
 SCF Done:  E(RB3LYP) =  -269.129916587     A.U. after   11 cycles
 SCF Done:  E(RB3LYP) =  -269.130373242     A.U. after   10 cycles
 SCF Done:  E(RB3LYP) =  -269.130454855     A.U. after   10 cycles
 SCF Done:  E(RB3LYP) =  -269.130467424     A.U. after    9 cycles
 SCF Done:  E(RB3LYP) =  -269.130473983     A.U. after    9 cycles
 SCF Done:  E(RB3LYP) =  -269.130482436     A.U. after   10 cycles
 SCF Done:  E(RB3LYP) =  -269.130489380     A.U. after    9 cycles
 SCF Done:  E(RB3LYP) =  -269.130492399     A.U. after    9 cycles
 SCF Done:  E(RB3LYP) =  -269.130492658     A.U. after    7 cycles
 Optimization completed.
    -- Stationary point found.
 Normal termination of Gaussian 09 at Fri Aug 26 02:12:34 2022.

 ----------------------------------------------------------
 #P Geom=AllCheck Guess=TCheck SCRF=Check B3LYP/GTBas3 Freq
 ----------------------------------------------------------

 Structure from the checkpoint file:  "G4.Frag_565.chk"
 --------
 Frag_565
 --------
 Charge =  0 Multiplicity = 1

 SCF Done:  E(RB3LYP) =  -269.130492658     A.U. after    1 cycles

  Exact polarizability:  67.578   0.376  57.928  -0.138   2.608  56.683
 Approx polarizability:  88.214  -0.037  80.441  -0.659   5.085  82.004

                      1                      2                      3
                      A                      A                      A
 Frequencies --     86.0800               116.0340               222.7648
 Red. masses --      1.4874                 1.4680                 1.0659
 Frc consts  --      0.0065                 0.0116                 0.0312
 IR Inten    --     20.0197                18.3090                 0.9443

                      4                      5                      6
                      A                      A                      A
 Frequencies --    251.7104               277.2275               284.1845
 Red. masses --      1.0897                 1.0838                 2.3957
 Frc consts  --      0.0407                 0.0491                 0.1140
 IR Inten    --      0.2931                 0.3003                 2.0495

                      7                      8                      9
                      A                      A                      A
 Frequencies --    302.4662               344.3084               440.0121
 Red. masses --      2.6242                 2.3296                 2.4533
 Frc consts  --      0.1414                 0.1627                 0.2799
 IR Inten    --      0.4046                 1.5449                 0.7595

                     10                     11                     12
                      A                      A                      A
 Frequencies --    509.6798               539.1480               748.2035
 Red. masses --      3.4244                 2.3095                 3.1213
 Frc consts  --      0.5241                 0.3955                 1.0295
 IR Inten    --     13.1195                 5.6930                 7.6534

                     13                     14                     15
                      A                      A                      A
 Frequencies --    872.3633               921.4113               945.7609
 Red. masses --      2.7424                 1.2546                 1.6402
 Frc consts  --      1.2296                 0.6276                 0.8644
 IR Inten    --      1.9273                 1.0057                 5.8394

                     16                     17                     18
                      A                      A                      A
 Frequencies --    957.4438              1050.1583              1121.7035
 Red. masses --      1.8513                 2.3798                 1.5589
 Frc consts  --      0.9999                 1.5463                 1.1556
 IR Inten    --      7.3509                 9.9510                40.0340

                     19                     20                     21
                      A                      A                      A
 Frequencies --   1135.6383              1158.6421              1173.7855
 Red. masses --      1.4420                 1.6142                 1.7575
 Frc consts  --      1.0957                 1.2768                 1.4267
 IR Inten    --     13.4844                 7.4163                24.6046

                     22                     23                     24
                      A                      A                      A
 Frequencies --   1188.8127              1226.0421              1348.7827
 Red. masses --      1.7865                 1.8830                 1.3773
 Frc consts  --      1.4876                 1.6677                 1.4763
 IR Inten    --     20.2289                 2.2653                 4.8057

                     25                     26                     27
                      A                      A                      A
 Frequencies --   1372.6084              1386.9291              1404.9303
 Red. masses --      1.3937                 1.2856                 1.2501
 Frc consts  --      1.5470                 1.4570                 1.4538
 IR Inten    --      8.9340                14.7170                 3.8778

                     28                     29                     30
                      A                      A                      A
 Frequencies --   1427.7135              1448.1609              1480.2248
 Red. masses --      1.3708                 1.1736                 1.0464
 Frc consts  --      1.6463                 1.4501                 1.3508
 IR Inten    --      7.4464                 0.2749                 6.6292

                     31                     32                     33
                      A                      A                      A
 Frequencies --   1487.8606              1490.5970              1503.7700
 Red. masses --      1.0548                 1.0528                 1.0480
 Frc consts  --      1.3758                 1.3783                 1.3963
 IR Inten    --      1.4954                 1.2372                 7.0127

                     34                     35                     36
                      A                      A                      A
 Frequencies --   1513.1498              1521.0342              1651.3527
 Red. masses --      1.0463                 1.0614                 1.0688
 Frc consts  --      1.4115                 1.4468                 1.7173
 IR Inten    --      2.8894                 3.8554                32.5089

                     37                     38                     39
                      A                      A                      A
 Frequencies --   2971.6953              3005.6717              3035.4835
 Red. masses --      1.0515                 1.0838                 1.0361
 Frc consts  --      5.4712                 5.7689                 5.6249
 IR Inten    --     57.8493                21.7682                13.5262

                     40                     41                     42
                      A                      A                      A
 Frequencies --   3040.2794              3049.4207              3097.0616
 Red. masses --      1.0361                 1.0867                 1.1008
 Frc consts  --      5.6428                 5.9539                 6.2210
 IR Inten    --     24.2940                47.8800                 2.9361

                     43                     44                     45
                      A                      A                      A
 Frequencies --   3104.2367              3119.8541              3125.6093
 Red. masses --      1.0998                 1.1019                 1.0952
 Frc consts  --      6.2443                 6.3192                 6.3038
 IR Inten    --     65.0937                21.9399                15.3571

                     46                     47                     48
                      A                      A                      A
 Frequencies --   3129.1139              3418.7029              3500.7900
 Red. masses --      1.1001                 1.0510                 1.0907
 Frc consts  --      6.3463                 7.2375                 7.8757
 IR Inten    --     17.8546                 2.5154                 0.3051

 - Thermochemistry -
 -------------------
 Temperature   298.150 Kelvin.  Pressure   1.00000 Atm.
 Atom     1 has atomic number  6 and mass  12.00000

 Molecular mass:    88.10005 amu.
 Principal axes and moments of inertia in atomic units:
                           1         2         3
     Eigenvalues --   398.94594 664.38048 752.81395
           X            0.99990   0.01138   0.00808
           Y           -0.01159   0.99959   0.02624
           Z           -0.00778  -0.02633   0.99962
 This molecule is an asymmetric top.
 Rotational symmetry number  1.
 Rotational temperatures (Kelvin)      0.21711     0.13037     0.11505
 Rotational constants (GHZ):           4.52377     2.71643     2.39733
 Zero-point vibrational energy     433697.8 (Joules/Mol)
                                  103.65627 (Kcal/Mol)
 Warning -- explicit consideration of  11 degrees of freedom as
           vibrations may cause significant error
 Vibrational temperatures:    123.85   166.95   320.51   362.15   398.87
          (Kelvin)            408.88   435.18   495.38   633.08   733.31
                              775.71  1076.50  1255.13  1325.70  1360.74
                             1377.55  1510.94  1613.88  1633.93  1667.03
                             1688.81  1710.43  1764.00  1940.59  1974.87
                             1995.48  2021.38  2054.16  2083.58  2129.71
                             2140.70  2144.63  2163.59  2177.08  2188.43
                             2375.93  4275.60  4324.49  4367.38  4374.28
                             4387.43  4455.98  4466.30  4488.77  4497.05
                             4502.09  4918.74  5036.85

 Zero-point correction=                           0.165187 (Hartree/Particle)
 Thermal correction to Energy=                    0.173373
 Thermal correction to Enthalpy=                  0.174317
 Thermal correction to Gibbs Free Energy=         0.133599
 Sum of electronic and zero-point Energies=           -268.965306
 Sum of electronic and thermal Energies=              -268.957120
 Sum of electronic and thermal Enthalpies=            -268.956176
 Sum of electronic and thermal Free Energies=         -268.996894

                     E (Thermal)             CV                S
                      KCal/Mol        Cal/Mol-Kelvin    Cal/Mol-Kelvin
 Total                  108.793             29.323             85.698
 Electronic               0.000              0.000              0.000
 Translational            0.889              2.981             39.340
 Rotational               0.889              2.981             26.792
 Vibrational            107.016             23.361             19.565
 Vibration     1          0.601              1.959              3.747
 Vibration     2          0.608              1.936              3.165
 Vibration     3          0.648              1.806              1.937
 Vibration     4          0.664              1.760              1.719
 Vibration     5          0.678              1.716              1.551
 Vibration     6          0.683              1.703              1.508
 Vibration     7          0.694              1.669              1.403
 Vibration     8          0.723              1.587              1.192
 Vibration     9          0.800              1.383              0.827
 Vibration    10          0.865              1.229              0.634
 Vibration    11          0.894              1.163              0.567

 Normal termination of Gaussian 09 at Fri Aug 26 02:13:18 2022.

 -----------------------------------------------------------------
 #P Geom=AllCheck Guess=TCheck SCRF=Check CCSD(T,E4T,FrzG4)/GTBas1
 -----------------------------------------------------------------

 Structure from the checkpoint file:  "G4.Frag_565.chk"
 --------
 Frag_565
 --------
 Charge =  0 Multiplicity = 1

 SCF Done:  E(RHF) =  -267.293891343     A.U. after   12 cycles
 E2 =    -0.8610066563D+00 EUMP2 =    -0.26815489799969D+03
 CCSD(T)
 CCSD(T)= -0.26825027690D+03
 Normal termination of Gaussian 09 at Fri Aug 26 02:16:06 2022.

 ---------------------------------------------------------
 #P Geom=AllCheck Guess=TCheck SCRF=Check MP4=FrzG4/GTBas2
 ---------------------------------------------------------

 Structure from the checkpoint file:  "G4.Frag_565.chk"
 --------
 Frag_565
 --------
 Charge =  0 Multiplicity = 1

 SCF Done:  E(RHF) =  -267.300260104     A.U. after   12 cycles
 E2 =    -0.8732921955D+00 EUMP2 =    -0.26817355229918D+03
 Normal termination of Gaussian 09 at Fri Aug 26 02:16:58 2022.

 ---------------------------------------------------------
 #P Geom=AllCheck Guess=TCheck SCRF=Check MP4=FrzG4/GTBas3
 ---------------------------------------------------------

 Structure from the checkpoint file:  "G4.Frag_565.chk"
 --------
 Frag_565
 --------
 Charge =  0 Multiplicity = 1

 SCF Done:  E(RHF) =  -267.330472035     A.U. after   11 cycles
 E2 =    -0.1070640020D+01 EUMP2 =    -0.26840111205482D+03
 Normal termination of Gaussian 09 at Fri Aug 26 02:22:36 2022.

 -----------------------------------------------------------
 #P Geom=AllCheck Guess=TCheck SCRF=Check MP2=Full/GTLargeXP
 -----------------------------------------------------------

 Structure from the checkpoint file:  "G4.Frag_565.chk"
 --------
 Frag_565
 --------
 Charge =  0 Multiplicity = 1

 SCF Done:  E(RHF) =  -267.392358499     A.U. after   11 cycles
 E2 =    -0.1399745324D+01 EUMP2 =    -0.26879210382300D+03
 Normal termination of Gaussian 09 at Fri Aug 26 02:25:16 2022.
 SCF Done:  E(RHF) =  -267.413326873     A.U. after    9 cycles
 Normal termination of Gaussian 09 at Fri Aug 26 02:28:24 2022.

                         Standard orientation:
 ---------------------------------------------------------------------
 Center     Atomic      Atomic             Coordinates (Angstroms)
 Number     Number       Type             X           Y           Z
 ---------------------------------------------------------------------
      1          6           0       -1.743727    0.801794   -0.518303
      2          6           0       -0.667792   -0.276634   -0.366860
      3          6           0       -0.944861   -1.210999    0.822457
      4          7           0        0.674077    0.347246   -0.384651
      5          6           0        1.018566    1.053909    0.840900
      6          7           0        1.656643   -0.737126   -0.550474
      7          1           0       -2.717162    0.338535   -0.706280
      8          1           0       -1.505658    1.468716   -1.351231
      9          1           0       -1.844504    1.407471    0.388591
     10          1           0       -0.692026   -0.887478   -1.279683
     11          1           0       -0.117864   -1.912790    0.952284
     12          1           0       -1.862762   -1.782147    0.650127
     13          1           0       -1.077623   -0.650807    1.754249
     14          1           0        1.146973    0.392768    1.713546
     15          1           0        1.958659    1.597576    0.687340
     16          1           0        0.247393    1.793121    1.066489
     17          1           0        2.563559   -0.279926   -0.453345
     18          1           0        1.612859   -0.964302   -1.545375
 ---------------------------------------------------------------------

 SCF Done:  E(RHF) =  -267.417889286     A.U. after    8 cycles

 The electronic state is 1-A.
 Alpha  occ. eigenvalues --  -15.56901 -15.56654 -11.25011 -11.24012 -11.20892
 Alpha  occ. eigenvalues --  -11.20253  -1.27120  -1.08440  -1.01147  -0.92648
 Alpha  occ. eigenvalues --   -0.89236  -0.75894  -0.66285  -0.64618  -0.63205
 Alpha  occ. eigenvalues --   -0.58863  -0.55823  -0.54929  -0.53381  -0.52072
 Alpha  occ. eigenvalues --   -0.49780  -0.48115  -0.47062  -0.45967  -0.33499
 Alpha virt. eigenvalues --    0.03581   0.04239   0.04518   0.04707   0.06485
 Alpha virt. eigenvalues --    0.06980   0.07096   0.07482   0.07803   0.09853
 Alpha virt. eigenvalues --    0.09987   0.10260   0.10679   0.11589   0.12163

 Mulliken charges:
               1
     1  C   -0.572257
     2  C    0.077896
     3  C   -0.564591
     4  N   -0.031818
     5  C   -0.490445
     6  N   -0.674099
     7  H    0.168288
     8  H    0.179402
     9  H    0.156929
    10  H    0.141294
    11  H    0.204066
    12  H    0.163981
    13  H    0.160835
    14  H    0.162262
    15  H    0.155388
    16  H    0.180215
    17  H    0.290163
    18  H    0.292493
 Sum of Mulliken charges =  -0.00000

 Dipole moment (field-independent basis, Debye):
    X=              0.1694    Y=              0.4309    Z=             -0.2053  Tot=              0.5065
 Quadrupole moment (field-independent basis, Debye-Ang):
   XX=            -37.3718   YY=            -42.3378   ZZ=            -39.2286
   XY=              1.4272   XZ=             -0.9188   YZ=              2.8800

 Normal termination of Gaussian 09 at Fri Aug 26 02:38:20 2022.
