 Gaussian 09, Revision E.01,
 Gaussian 09:  ES64L-G09RevE.01 30-Nov-2015

 -----
 #P G4
 -----

 --------
 Frag_638
 --------
 Symbolic Z-matrix:
 Charge =  0 Multiplicity = 1

 SCF Done:  E(RB3LYP) =  -269.157324931     A.U. after   12 cycles
 SCF Done:  E(RB3LYP) =  -269.162790393     A.U. after   11 cycles
 SCF Done:  E(RB3LYP) =  -269.163211089     A.U. after   10 cycles
 SCF Done:  E(RB3LYP) =  -269.163282900     A.U. after    9 cycles
 SCF Done:  E(RB3LYP) =  -269.163303092     A.U. after    9 cycles
 SCF Done:  E(RB3LYP) =  -269.163311424     A.U. after    8 cycles
 SCF Done:  E(RB3LYP) =  -269.163321369     A.U. after    9 cycles
 SCF Done:  E(RB3LYP) =  -269.163327757     A.U. after   10 cycles
 SCF Done:  E(RB3LYP) =  -269.163334152     A.U. after    9 cycles
 SCF Done:  E(RB3LYP) =  -269.163356697     A.U. after   10 cycles
 SCF Done:  E(RB3LYP) =  -269.163778691     A.U. after    7 cycles
 SCF Done:  E(RB3LYP) =  -269.163778471     A.U. after    6 cycles
 SCF Done:  E(RB3LYP) =  -269.163778447     A.U. after    6 cycles
 Optimization completed.
    -- Stationary point found.
 Normal termination of Gaussian 09 at Fri Aug 26 13:07:00 2022.

 ----------------------------------------------------------
 #P Geom=AllCheck Guess=TCheck SCRF=Check B3LYP/GTBas3 Freq
 ----------------------------------------------------------

 Structure from the checkpoint file:  "G4.Frag_638.chk"
 --------
 Frag_638
 --------
 Charge =  0 Multiplicity = 1

 SCF Done:  E(RB3LYP) =  -269.163778447     A.U. after    1 cycles

  Exact polarizability:  66.812  -0.558  57.317   0.166   1.438  55.710
 Approx polarizability:  87.371  -0.637  79.532   0.839   3.143  80.295

                      1                      2                      3
                      A                      A                      A
 Frequencies --     94.1875               137.4268               212.9140
 Red. masses --      2.0704                 1.0537                 1.1372
 Frc consts  --      0.0108                 0.0117                 0.0304
 IR Inten    --      2.2221                35.4257                 0.5977

                      4                      5                      6
                      A                      A                      A
 Frequencies --    231.0250               276.5865               307.4926
 Red. masses --      1.1012                 1.5731                 1.2617
 Frc consts  --      0.0346                 0.0709                 0.0703
 IR Inten    --      1.4366                 2.6902                 0.5744

                      7                      8                      9
                      A                      A                      A
 Frequencies --    356.7685               358.4380               445.9792
 Red. masses --      2.3694                 2.2983                 2.3972
 Frc consts  --      0.1777                 0.1740                 0.2809
 IR Inten    --      1.2947                 0.8547                10.9817

                     10                     11                     12
                      A                      A                      A
 Frequencies --    469.8149               507.8776               653.8762
 Red. masses --      2.3484                 3.0697                 1.5605
 Frc consts  --      0.3054                 0.4665                 0.3931
 IR Inten    --     10.7636                 3.0049                67.7567

                     13                     14                     15
                      A                      A                      A
 Frequencies --    745.5066               844.7465               908.4462
 Red. masses --      2.7827                 1.7119                 1.5896
 Frc consts  --      0.9112                 0.7197                 0.7729
 IR Inten    --      2.8633               119.7141                 0.9558

                     16                     17                     18
                      A                      A                      A
 Frequencies --    939.6726               968.9479              1007.8950
 Red. masses --      1.4575                 1.7016                 1.2934
 Frc consts  --      0.7582                 0.9412                 0.7741
 IR Inten    --     38.2655                 0.9463                 9.8495

                     19                     20                     21
                      A                      A                      A
 Frequencies --   1075.9036              1126.0856              1142.9536
 Red. masses --      1.5675                 2.0572                 2.1312
 Frc consts  --      1.0691                 1.5370                 1.6403
 IR Inten    --      4.9681                18.5781                14.3668

                     22                     23                     24
                      A                      A                      A
 Frequencies --   1157.0876              1221.7855              1258.8951
 Red. masses --      1.3863                 2.4849                 2.5927
 Frc consts  --      1.0935                 2.1855                 2.4210
 IR Inten    --      3.7232                59.0561                26.4518

                     25                     26                     27
                      A                      A                      A
 Frequencies --   1343.3001              1388.7861              1406.1950
 Red. masses --      1.8124                 1.2884                 1.2523
 Frc consts  --      1.9269                 1.4641                 1.4590
 IR Inten    --     21.1286                12.9393                10.8623

                     28                     29                     30
                      A                      A                      A
 Frequencies --   1455.0907              1469.1111              1477.9425
 Red. masses --      1.1457                 1.1793                 1.0544
 Frc consts  --      1.4292                 1.4996                 1.3570
 IR Inten    --      0.1910                 9.8955                 1.5445

                     31                     32                     33
                      A                      A                      A
 Frequencies --   1487.1070              1491.0522              1504.7422
 Red. masses --      1.0717                 1.0582                 1.1023
 Frc consts  --      1.3964                 1.3861                 1.4706
 IR Inten    --      0.2519                 4.9305                 1.3546

                     34                     35                     36
                      A                      A                      A
 Frequencies --   1509.1353              1525.5998              1658.7873
 Red. masses --      1.0886                 1.0516                 1.0950
 Frc consts  --      1.4608                 1.4421                 1.7752
 IR Inten    --     10.1046                 6.5816                23.3656

                     37                     38                     39
                      A                      A                      A
 Frequencies --   2951.3136              3021.9977              3036.1078
 Red. masses --      1.0586                 1.0360                 1.0392
 Frc consts  --      5.4329                 5.5745                 5.6440
 IR Inten    --     80.0640                22.3700                15.7282

                     40                     41                     42
                      A                      A                      A
 Frequencies --   3051.4441              3090.8319              3093.1439
 Red. masses --      1.0736                 1.1002                 1.1006
 Frc consts  --      5.8899                 6.1924                 6.2040
 IR Inten    --     37.2790                11.8426                55.7151

                     43                     44                     45
                      A                      A                      A
 Frequencies --   3100.6863              3108.0173              3132.1748
 Red. masses --      1.0999                 1.0981                 1.1022
 Frc consts  --      6.2302                 6.2497                 6.3708
 IR Inten    --      6.7767                50.0345                19.0785

                     46                     47                     48
                      A                      A                      A
 Frequencies --   3484.2641              3552.6300              3569.6699
 Red. masses --      1.0513                 1.0747                 1.0899
 Frc consts  --      7.5198                 7.9920                 8.1823
 IR Inten    --      0.6805                 0.6906                 0.1947

 - Thermochemistry -
 -------------------
 Temperature   298.150 Kelvin.  Pressure   1.00000 Atm.
 Atom     1 has atomic number  6 and mass  12.00000

 Molecular mass:    88.10005 amu.
 Principal axes and moments of inertia in atomic units:
                           1         2         3
     Eigenvalues --   406.20364 683.79532 687.58626
           X            0.99994  -0.00575  -0.00881
           Y            0.00893   0.90670   0.42169
           Z            0.00556  -0.42174   0.90670
 This molecule is an asymmetric top.
 Rotational symmetry number  1.
 Rotational temperatures (Kelvin)      0.21323     0.12667     0.12597
 Rotational constants (GHZ):           4.44295     2.63930     2.62475
 Zero-point vibrational energy     432805.6 (Joules/Mol)
                                  103.44302 (Kcal/Mol)
 Warning -- explicit consideration of  11 degrees of freedom as
           vibrations may cause significant error
 Vibrational temperatures:    135.51   197.73   306.34   332.39   397.95
          (Kelvin)            442.41   513.31   515.71   641.66   675.96
                              730.72   940.78  1072.62  1215.40  1307.05
                             1351.98  1394.10  1450.13  1547.98  1620.18
                             1644.45  1664.79  1757.87  1811.27  1932.71
                             1998.15  2023.20  2093.55  2113.72  2126.43
                             2139.61  2145.29  2164.99  2171.31  2195.00
                             2386.62  4246.28  4347.98  4368.28  4390.34
                             4447.01  4450.34  4461.19  4471.74  4506.50
                             5013.07  5111.44  5135.95

 Zero-point correction=                           0.164847 (Hartree/Particle)
 Thermal correction to Energy=                    0.173104
 Thermal correction to Enthalpy=                  0.174048
 Thermal correction to Gibbs Free Energy=         0.133435
 Sum of electronic and zero-point Energies=           -268.998932
 Sum of electronic and thermal Energies=              -268.990675
 Sum of electronic and thermal Enthalpies=            -268.989731
 Sum of electronic and thermal Free Energies=         -269.030344

                     E (Thermal)             CV                S
                      KCal/Mol        Cal/Mol-Kelvin    Cal/Mol-Kelvin
 Total                  108.624             30.231             85.477
 Electronic               0.000              0.000              0.000
 Translational            0.889              2.981             39.340
 Rotational               0.889              2.981             26.749
 Vibrational            106.847             24.269             19.388
 Vibration     1          0.603              1.953              3.571
 Vibration     2          0.614              1.916              2.839
 Vibration     3          0.644              1.821              2.019
 Vibration     4          0.653              1.794              1.871
 Vibration     5          0.678              1.717              1.555
 Vibration     6          0.697              1.659              1.376
 Vibration     7          0.732              1.561              1.136
 Vibration     8          0.733              1.558              1.129
 Vibration     9          0.805              1.370              0.808
 Vibration    10          0.827              1.317              0.738
 Vibration    11          0.863              1.233              0.639

 Optimization completed.
    -- Stationary point found.
 Normal termination of Gaussian 09 at Fri Aug 26 13:07:43 2022.

 -----------------------------------------------------------------
 #P Geom=AllCheck Guess=TCheck SCRF=Check CCSD(T,E4T,FrzG4)/GTBas1
 -----------------------------------------------------------------

 Structure from the checkpoint file:  "G4.Frag_638.chk"
 --------
 Frag_638
 --------
 Charge =  0 Multiplicity = 1

 SCF Done:  E(RHF) =  -267.329021480     A.U. after   12 cycles
 E2 =    -0.8595570230D+00 EUMP2 =    -0.26818857850318D+03
 CCSD(T)
 CCSD(T)= -0.26828188048D+03
 5494\CCSD(T)=-268.2818805\RMSD=2.261e-09\PG=C01 [X(C4H12N2)]\\@
 Normal termination of Gaussian 09 at Fri Aug 26 13:10:21 2022.

 ---------------------------------------------------------
 #P Geom=AllCheck Guess=TCheck SCRF=Check MP4=FrzG4/GTBas2
 ---------------------------------------------------------

 Structure from the checkpoint file:  "G4.Frag_638.chk"
 --------
 Frag_638
 --------
 Charge =  0 Multiplicity = 1

 SCF Done:  E(RHF) =  -267.337095632     A.U. after   12 cycles
 E2 =    -0.8724334144D+00 EUMP2 =    -0.26820952904643D+03
 Normal termination of Gaussian 09 at Fri Aug 26 13:11:15 2022.

 ---------------------------------------------------------
 #P Geom=AllCheck Guess=TCheck SCRF=Check MP4=FrzG4/GTBas3
 ---------------------------------------------------------

 Structure from the checkpoint file:  "G4.Frag_638.chk"
 --------
 Frag_638
 --------
 Charge =  0 Multiplicity = 1

 SCF Done:  E(RHF) =  -267.369060966     A.U. after   10 cycles
 E2 =    -0.1068853836D+01 EUMP2 =    -0.26843791480171D+03
 Normal termination of Gaussian 09 at Fri Aug 26 13:16:49 2022.

 -----------------------------------------------------------
 #P Geom=AllCheck Guess=TCheck SCRF=Check MP2=Full/GTLargeXP
 -----------------------------------------------------------

 Structure from the checkpoint file:  "G4.Frag_638.chk"
 --------
 Frag_638
 --------
 Charge =  0 Multiplicity = 1

 SCF Done:  E(RHF) =  -267.432494117     A.U. after   11 cycles
 E2 =    -0.1399074398D+01 EUMP2 =    -0.26883156851540D+03
 Normal termination of Gaussian 09 at Fri Aug 26 13:19:26 2022.
 SCF Done:  E(RHF) =  -267.453307884     A.U. after    8 cycles
 Normal termination of Gaussian 09 at Fri Aug 26 13:22:15 2022.

                         Standard orientation:
 ---------------------------------------------------------------------
 Center     Atomic      Atomic             Coordinates (Angstroms)
 Number     Number       Type             X           Y           Z
 ---------------------------------------------------------------------
      1          6           0        2.101067    0.038773   -0.033937
      2          7           0        0.854427    0.066717   -0.780361
      3          6           0       -0.414581   -0.000919   -0.031821
      4          6           0       -0.370054   -0.973948    1.169064
      5          6           0       -0.773090    1.414392    0.444435
      6          7           0       -1.422564   -0.422440   -1.018467
      7          1           0        2.144402    0.887695    0.657964
      8          1           0        2.287736   -0.875349    0.555629
      9          1           0        2.933200    0.156600   -0.735291
     10          1           0        0.843522   -0.643595   -1.501591
     11          1           0        0.356879   -0.668798    1.928147
     12          1           0       -0.100795   -1.983400    0.835363
     13          1           0       -1.352024   -1.025682    1.650606
     14          1           0        0.025441    1.830005    1.064922
     15          1           0       -1.690961    1.410975    1.043262
     16          1           0       -0.909268    2.065034   -0.422392
     17          1           0       -1.481209   -1.437680   -1.037977
     18          1           0       -2.340021   -0.095533   -0.733301
 ---------------------------------------------------------------------

 SCF Done:  E(RHF) =  -267.457909554     A.U. after    8 cycles

 The electronic state is 1-A.
 Alpha  occ. eigenvalues --  -15.53725 -15.52821 -11.28771 -11.23769 -11.21419
 Alpha  occ. eigenvalues --  -11.20731  -1.23046  -1.13738  -1.00035  -0.93655
 Alpha  occ. eigenvalues --   -0.90130  -0.75792  -0.66220  -0.65932  -0.62004
 Alpha  occ. eigenvalues --   -0.59868  -0.57288  -0.54404  -0.53695  -0.52923
 Alpha  occ. eigenvalues --   -0.50700  -0.49668  -0.47471  -0.40331  -0.35502
 Alpha virt. eigenvalues --    0.03227   0.04166   0.04400   0.05061   0.06687
 Alpha virt. eigenvalues --    0.06954   0.07040   0.07115   0.07564   0.09706
 Alpha virt. eigenvalues --    0.10006   0.10275   0.10799   0.12989   0.13345

 Mulliken charges:
               1
     1  C   -0.458092
     2  N   -0.417036
     3  C    0.398093
     4  C   -0.569024
     5  C   -0.580615
     6  N   -0.760381
     7  H    0.161611
     8  H    0.143356
     9  H    0.180471
    10  H    0.280702
    11  H    0.179984
    12  H    0.163105
    13  H    0.172663
    14  H    0.169796
    15  H    0.157413
    16  H    0.193299
    17  H    0.286252
    18  H    0.298403
 Sum of Mulliken charges =  -0.00000

 Dipole moment (field-independent basis, Debye):
    X=             -0.3817    Y=             -1.3643    Z=              1.5382  Tot=              2.0912
 Quadrupole moment (field-independent basis, Debye-Ang):
   XX=            -36.9900   YY=            -39.1670   ZZ=            -43.8512
   XY=              0.1224   XZ=             -1.0304   YZ=              2.7175

 Normal termination of Gaussian 09 at Fri Aug 26 13:32:13 2022.
