 Gaussian 09, Revision E.01,
 Gaussian 09:  ES64L-G09RevE.01 30-Nov-2015

 -----
 #P G4
 -----

 ---------
 Frag_1126
 ---------
 Symbolic Z-matrix:
 Charge =  0 Multiplicity = 1

 SCF Done:  E(RB3LYP) =  -265.704505810     A.U. after   12 cycles
 SCF Done:  E(RB3LYP) =  -265.712607450     A.U. after   11 cycles
 SCF Done:  E(RB3LYP) =  -265.714195661     A.U. after   11 cycles
 SCF Done:  E(RB3LYP) =  -265.714617243     A.U. after   11 cycles
 SCF Done:  E(RB3LYP) =  -265.714670630     A.U. after   10 cycles
 SCF Done:  E(RB3LYP) =  -265.714683681     A.U. after    8 cycles
 SCF Done:  E(RB3LYP) =  -265.714687707     A.U. after    8 cycles
 SCF Done:  E(RB3LYP) =  -265.714688113     A.U. after    7 cycles
 Optimization completed.
    -- Stationary point found.
 Normal termination of Gaussian 09 at Fri Aug 19 08:51:29 2022.

 ----------------------------------------------------------
 #P Geom=AllCheck Guess=TCheck SCRF=Check B3LYP/GTBas3 Freq
 ----------------------------------------------------------

 Structure from the checkpoint file:  "G4.Frag_1126.chk"
 ---------
 Frag_1126
 ---------
 Charge =  0 Multiplicity = 1

 SCF Done:  E(RB3LYP) =  -265.714688113     A.U. after    1 cycles

  Exact polarizability:  48.895  -0.725  41.768   2.511   0.010  38.992
 Approx polarizability:  65.722  -2.498  55.812   4.013   0.009  57.834

                      1                      2                      3
                      A                      A                      A
 Frequencies --    138.8016               241.6936               266.7673
 Red. masses --      3.3581                 1.0867                 3.4205
 Frc consts  --      0.0381                 0.0374                 0.1434
 IR Inten    --      1.6286                 2.1179                 7.6771

                      4                      5                      6
                      A                      A                      A
 Frequencies --    316.1821               331.0249               387.4378
 Red. masses --      1.0443                 1.1175                 2.6171
 Frc consts  --      0.0615                 0.0721                 0.2315
 IR Inten    --     31.8496                76.5005                 8.1286

                      7                      8                      9
                      A                      A                      A
 Frequencies --    470.1351               518.3266               819.6896
 Red. masses --      2.5771                 2.8177                 2.4538
 Frc consts  --      0.3356                 0.4460                 0.9714
 IR Inten    --     14.0771                 9.9321                50.9372

                     10                     11                     12
                      A                      A                      A
 Frequencies --    871.1983               920.4722               955.5936
 Red. masses --      1.6682                 2.8603                 1.8468
 Frc consts  --      0.7460                 1.4278                 0.9936
 IR Inten    --    144.0117                57.6510                20.3533

                     13                     14                     15
                      A                      A                      A
 Frequencies --   1000.2913              1029.3610              1174.2008
 Red. masses --      1.4245                 1.7240                 2.1101
 Frc consts  --      0.8398                 1.0763                 1.7141
 IR Inten    --     17.8184                44.8641                16.6964

                     16                     17                     18
                      A                      A                      A
 Frequencies --   1181.1636              1269.4578              1332.4783
 Red. masses --      1.9734                 1.6314                 1.1959
 Frc consts  --      1.6222                 1.5490                 1.2510
 IR Inten    --     50.0967                 1.1372                13.6016

                     19                     20                     21
                      A                      A                      A
 Frequencies --   1382.0822              1395.6000              1416.4947
 Red. masses --      1.1940                 1.2108                 1.4878
 Frc consts  --      1.3438                 1.3895                 1.7588
 IR Inten    --     20.8255                17.5823                24.9728

                     22                     23                     24
                      A                      A                      A
 Frequencies --   1478.4490              1489.8830              1500.1896
 Red. masses --      1.0758                 1.0603                 1.0637
 Frc consts  --      1.3855                 1.3868                 1.4104
 IR Inten    --      1.7770                 1.8862                10.2335

                     25                     26                     27
                      A                      A                      A
 Frequencies --   1661.7463              3022.0495              3038.9448
 Red. masses --      1.0959                 1.0504                 1.0786
 Frc consts  --      1.7830                 5.6521                 5.8690
 IR Inten    --     26.7085                 9.4254                36.3780

                     28                     29                     30
                      A                      A                      A
 Frequencies --   3103.5760              3143.6579              3416.5112
 Red. masses --      1.0912                 1.1011                 1.0750
 Frc consts  --      6.1924                 6.4112                 7.3928
 IR Inten    --     28.9769                10.5915                 3.1328

                     31                     32                     33
                      A                      A                      A
 Frequencies --   3482.8766              3564.9748              3807.8604
 Red. masses --      1.0484                 1.0922                 1.0683
 Frc consts  --      7.4928                 8.1786                 9.1267
 IR Inten    --      0.2275                 0.6803                35.8629

 - Thermochemistry -
 -------------------
 Temperature   298.150 Kelvin.  Pressure   1.00000 Atm.
 Atom     1 has atomic number  6 and mass  12.00000

 Molecular mass:    76.06366 amu.
 Principal axes and moments of inertia in atomic units:
                           1         2         3
     Eigenvalues --   225.58674 481.96710 643.04897
           X            0.99972   0.01722   0.01613
           Y           -0.01727   0.99985   0.00287
           Z           -0.01607  -0.00315   0.99987
 This molecule is an asymmetric top.
 Rotational symmetry number  1.
 Rotational temperatures (Kelvin)      0.38395     0.17971     0.13469
 Rotational constants (GHZ):           8.00021     3.74453     2.80654
 Zero-point vibrational energy     299839.0 (Joules/Mol)
                                   71.66325 (Kcal/Mol)
 Warning -- explicit consideration of   8 degrees of freedom as
           vibrations may cause significant error
 Vibrational temperatures:    199.70   347.74   383.82   454.91   476.27
          (Kelvin)            557.44   676.42   745.76  1179.35  1253.46
                             1324.35  1374.88  1439.19  1481.02  1689.41
                             1699.43  1826.46  1917.14  1988.51  2007.95
                             2038.02  2127.16  2143.61  2158.44  2390.88
                             4348.05  4372.36  4465.35  4523.02  4915.59
                             5011.08  5129.20  5478.65

 Zero-point correction=                           0.114203 (Hartree/Particle)
 Thermal correction to Energy=                    0.120619
 Thermal correction to Enthalpy=                  0.121563
 Thermal correction to Gibbs Free Energy=         0.085056
 Sum of electronic and zero-point Energies=           -265.600485
 Sum of electronic and thermal Energies=              -265.594069
 Sum of electronic and thermal Enthalpies=            -265.593125
 Sum of electronic and thermal Free Energies=         -265.629632

                     E (Thermal)             CV                S
                      KCal/Mol        Cal/Mol-Kelvin    Cal/Mol-Kelvin
 Total                   75.689             22.782             76.835
 Electronic               0.000              0.000              0.000
 Translational            0.889              2.981             38.903
 Rotational               0.889              2.981             25.750
 Vibrational             73.912             16.820             12.182
 Vibration     1          0.614              1.915              2.820
 Vibration     2          0.658              1.776              1.790
 Vibration     3          0.672              1.734              1.617
 Vibration     4          0.703              1.643              1.330
 Vibration     5          0.713              1.614              1.255
 Vibration     6          0.756              1.497              1.010
 Vibration     7          0.827              1.316              0.737
 Vibration     8          0.873              1.209              0.614

 Normal termination of Gaussian 09 at Fri Aug 19 08:53:08 2022.

 -----------------------------------------------------------------
 #P Geom=AllCheck Guess=TCheck SCRF=Check CCSD(T,E4T,FrzG4)/GTBas1
 -----------------------------------------------------------------

 Structure from the checkpoint file:  "G4.Frag_1126.chk"
 ---------
 Frag_1126
 ---------
 Charge =  0 Multiplicity = 1

 SCF Done:  E(RHF) =  -264.073460775     A.U. after   12 cycles
 E2 =    -0.7737022536D+00 EUMP2 =    -0.26484716302883D+03
 CCSD(T)
 CCSD(T)= -0.26491586770D+03
 Normal termination of Gaussian 09 at Fri Aug 19 08:55:42 2022.

 ---------------------------------------------------------
 #P Geom=AllCheck Guess=TCheck SCRF=Check MP4=FrzG4/GTBas2
 ---------------------------------------------------------

 Structure from the checkpoint file:  "G4.Frag_1126.chk"
 ---------
 Frag_1126
 ---------
 Charge =  0 Multiplicity = 1

 SCF Done:  E(RHF) =  -264.083775582     A.U. after   12 cycles
 E2 =    -0.7876318521D+00 EUMP2 =    -0.26487140743399D+03
 Normal termination of Gaussian 09 at Fri Aug 19 08:59:15 2022.

 ---------------------------------------------------------
 #P Geom=AllCheck Guess=TCheck SCRF=Check MP4=FrzG4/GTBas3
 ---------------------------------------------------------

 Structure from the checkpoint file:  "G4.Frag_1126.chk"
 ---------
 Frag_1126
 ---------
 Charge =  0 Multiplicity = 1

 SCF Done:  E(RHF) =  -264.112314999     A.U. after   12 cycles
 E2 =    -0.9567355321D+00 EUMP2 =    -0.26506905053079D+03
 Normal termination of Gaussian 09 at Fri Aug 19 09:53:22 2022.

 -----------------------------------------------------------
 #P Geom=AllCheck Guess=TCheck SCRF=Check MP2=Full/GTLargeXP
 -----------------------------------------------------------

 Structure from the checkpoint file:  "G4.Frag_1126.chk"
 ---------
 Frag_1126
 ---------
 Charge =  0 Multiplicity = 1

 SCF Done:  E(RHF) =  -264.184621231     A.U. after   12 cycles
 E2 =    -0.1245793405D+01 EUMP2 =    -0.26543041463559D+03
 Normal termination of Gaussian 09 at Fri Aug 19 09:56:28 2022.
 SCF Done:  E(RHF) =  -264.206231522     A.U. after    9 cycles
 Normal termination of Gaussian 09 at Fri Aug 19 10:00:11 2022.

                         Standard orientation:
 ---------------------------------------------------------------------
 Center     Atomic      Atomic             Coordinates (Angstroms)
 Number     Number       Type             X           Y           Z
 ---------------------------------------------------------------------
      1          6           0        0.613854    1.423212    0.091774
      2          6           0        0.443534   -0.028641   -0.348543
      3          7           0        1.646733   -0.787669   -0.065615
      4          7           0       -0.726996   -0.707063    0.258410
      5          8           0       -1.912244    0.057561   -0.051389
      6          1           0       -0.306381    1.980618   -0.091656
      7          1           0        0.837631    1.473541    1.165732
      8          1           0        1.437500    1.896066   -0.449559
      9          1           0        0.261521   -0.060000   -1.429747
     10          1           0        1.898045   -0.698308    0.915535
     11          1           0        1.474932   -1.774067   -0.239206
     12          1           0       -0.642662   -0.605141    1.272172
     13          1           0       -2.445119   -0.577494   -0.541101
 ---------------------------------------------------------------------

 SCF Done:  E(RHF) =  -264.210936033     A.U. after    8 cycles

 The electronic state is 1-A.
 Alpha  occ. eigenvalues --  -20.58412 -15.60466 -15.54637 -11.28520 -11.21317
 Alpha  occ. eigenvalues --   -1.39663  -1.21043  -1.08038  -0.97505  -0.82330
 Alpha  occ. eigenvalues --   -0.68958  -0.68054  -0.65208  -0.63265  -0.58241
 Alpha  occ. eigenvalues --   -0.54645  -0.52166  -0.50595  -0.48684  -0.41010
 Alpha  occ. eigenvalues --   -0.40430
 Alpha virt. eigenvalues --    0.04098   0.04612   0.05011   0.05604   0.07626
 Alpha virt. eigenvalues --    0.07913   0.08478   0.09094   0.10153   0.12223
 Alpha virt. eigenvalues --    0.12766   0.13171   0.13772   0.15003   0.15123

 Mulliken charges:
               1
     1  C   -0.523679
     2  C    0.129307
     3  N   -0.712507
     4  N   -0.292619
     5  O   -0.550226
     6  H    0.203143
     7  H    0.140806
     8  H    0.182832
     9  H    0.157233
    10  H    0.282794
    11  H    0.306332
    12  H    0.280151
    13  H    0.396435
 Sum of Mulliken charges =  -0.00000

 Dipole moment (field-independent basis, Debye):
    X=             -0.2448    Y=             -0.7399    Z=              0.6788  Tot=              1.0335
 Quadrupole moment (field-independent basis, Debye-Ang):
   XX=            -34.4458   YY=            -31.5465   ZZ=            -28.9711
   XY=              1.6476   XZ=              4.0079   YZ=             -0.1321

 Normal termination of Gaussian 09 at Fri Aug 19 11:39:36 2022.
