 Gaussian 09, Revision E.01,
 Gaussian 09:  ES64L-G09RevE.01 30-Nov-2015

 -----
 #P G4
 -----

 --------
 Frag_734
 --------
 Symbolic Z-matrix:
 Charge =  0 Multiplicity = 1

 SCF Done:  E(RB3LYP) =  -263.338260040     A.U. after   15 cycles
 SCF Done:  E(RB3LYP) =  -263.356321447     A.U. after   13 cycles
 SCF Done:  E(RB3LYP) =  -263.357314827     A.U. after   12 cycles
 SCF Done:  E(RB3LYP) =  -263.357376492     A.U. after    9 cycles
 SCF Done:  E(RB3LYP) =  -263.357382825     A.U. after    8 cycles
 Optimization completed.
    -- Stationary point found.
 Normal termination of Gaussian 09 at Fri Aug 26 09:54:32 2022.

 ----------------------------------------------------------
 #P Geom=AllCheck Guess=TCheck SCRF=Check B3LYP/GTBas3 Freq
 ----------------------------------------------------------

 Structure from the checkpoint file:  "G4.Frag_734.chk"
 --------
 Frag_734
 --------
 Charge =  0 Multiplicity = 1

 SCF Done:  E(RB3LYP) =  -263.357382825     A.U. after    1 cycles

  Exact polarizability:  49.603  -5.432  41.801   0.000   0.000  20.073
 Approx polarizability:  73.685 -12.878  70.243   0.000   0.001  30.494

                      1                      2                      3
                      A                      A                      A
 Frequencies --    146.9245               211.6711               286.3338
 Red. masses --      2.1884                 1.3346                 4.4489
 Frc consts  --      0.0278                 0.0352                 0.2149
 IR Inten    --     10.4960               184.7585                13.0976

                      4                      5                      6
                      A                      A                      A
 Frequencies --    456.0403               507.9526               663.8225
 Red. masses --      3.3002                 1.3223                 4.0342
 Frc consts  --      0.4044                 0.2010                 1.0474
 IR Inten    --      8.8274                 0.8059                12.3019

                      7                      8                      9
                      A                      A                      A
 Frequencies --    665.5565               830.6282               903.8092
 Red. masses --      1.6679                 2.9113                 2.9386
 Frc consts  --      0.4353                 1.1835                 1.4143
 IR Inten    --     31.1711                16.6311                 0.5562

                     10                     11                     12
                      A                      A                      A
 Frequencies --   1086.8826              1170.9867              1238.4778
 Red. masses --      1.9489                 1.0690                 1.1828
 Frc consts  --      1.3565                 0.8637                 1.0689
 IR Inten    --      1.0699                51.4947                47.1610

                     13                     14                     15
                      A                      A                      A
 Frequencies --   1330.4027              1445.0281              1620.7178
 Red. masses --      2.7580                 1.4614                 1.2417
 Frc consts  --      2.8762                 1.7979                 1.9217
 IR Inten    --    211.1605                 0.6541                94.1937

                     16                     17                     18
                      A                      A                      A
 Frequencies --   1723.0726              1802.1663              3080.0097
 Red. masses --      9.6023                 9.6805                 1.0895
 Frc consts  --     16.7970                18.5241                 6.0894
 IR Inten    --     31.8702               213.6978                36.1884

                     19                     20                     21
                      A                      A                      A
 Frequencies --   3360.6180              3603.0322              3736.7938
 Red. masses --      1.0712                 1.0449                 1.1044
 Frc consts  --      7.1280                 7.9924                 9.0864
 IR Inten    --      5.6127                49.8739                44.2755

 - Thermochemistry -
 -------------------
 Temperature   298.150 Kelvin.  Pressure   1.00000 Atm.
 Atom     1 has atomic number  7 and mass  14.00307

 Molecular mass:    72.03236 amu.
 Principal axes and moments of inertia in atomic units:
                           1         2         3
     Eigenvalues --   166.21813 415.42353 581.64166
           X            0.99894  -0.04606   0.00000
           Y            0.04606   0.99894  -0.00000
           Z           -0.00000   0.00000   1.00000
 This molecule is an asymmetric top.
 Rotational symmetry number  1.
 Rotational temperatures (Kelvin)      0.52109     0.20850     0.14891
 Rotational constants (GHZ):          10.85767     4.34434     3.10284
 Zero-point vibrational energy     178667.8 (Joules/Mol)
                                   42.70263 (Kcal/Mol)
 Warning -- explicit consideration of   5 degrees of freedom as
           vibrations may cause significant error
 Vibrational temperatures:    211.39   304.55   411.97   656.14   730.83
          (Kelvin)            955.09   957.59  1195.09  1300.38  1563.78
                             1684.79  1781.89  1914.15  2079.07  2331.85
                             2479.11  2592.91  4431.44  4835.17  5183.95
                             5376.41

 Zero-point correction=                           0.068051 (Hartree/Particle)
 Thermal correction to Energy=                    0.073450
 Thermal correction to Enthalpy=                  0.074394
 Thermal correction to Gibbs Free Energy=         0.039796
 Sum of electronic and zero-point Energies=           -263.289332
 Sum of electronic and thermal Energies=              -263.283933
 Sum of electronic and thermal Enthalpies=            -263.282989
 Sum of electronic and thermal Free Energies=         -263.317586

                     E (Thermal)             CV                S
                      KCal/Mol        Cal/Mol-Kelvin    Cal/Mol-Kelvin
 Total                   46.090             17.892             72.817
 Electronic               0.000              0.000              0.000
 Translational            0.889              2.981             38.740
 Rotational               0.889              2.981             25.199
 Vibrational             44.313             11.931              8.877
 Vibration     1          0.617              1.906              2.712
 Vibration     2          0.643              1.823              2.029
 Vibration     3          0.684              1.699              1.496
 Vibration     4          0.814              1.348              0.778
 Vibration     5          0.863              1.232              0.639

 Optimization completed.
    -- Stationary point found.
 Normal termination of Gaussian 09 at Fri Aug 26 09:54:49 2022.

 -----------------------------------------------------------------
 #P Geom=AllCheck Guess=TCheck SCRF=Check CCSD(T,E4T,FrzG4)/GTBas1
 -----------------------------------------------------------------

 Structure from the checkpoint file:  "G4.Frag_734.chk"
 --------
 Frag_734
 --------
 Charge =  0 Multiplicity = 1

 SCF Done:  E(RHF) =  -261.815172274     A.U. after   13 cycles
 E2 =    -0.7481003179D+00 EUMP2 =    -0.26256327259200D+03
 CCSD(T)
 CCSD(T)= -0.26261687190D+03
 15\CCSD=-262.5901681\CCSD(T)=-262.6168719\RMSD=6.771e-09\PG=C01 [X(C2H
 Normal termination of Gaussian 09 at Fri Aug 26 09:55:32 2022.

 ---------------------------------------------------------
 #P Geom=AllCheck Guess=TCheck SCRF=Check MP4=FrzG4/GTBas2
 ---------------------------------------------------------

 Structure from the checkpoint file:  "G4.Frag_734.chk"
 --------
 Frag_734
 --------
 Charge =  0 Multiplicity = 1

 SCF Done:  E(RHF) =  -261.824585952     A.U. after   12 cycles
 E2 =    -0.7589269271D+00 EUMP2 =    -0.26258351287945D+03
 Normal termination of Gaussian 09 at Fri Aug 26 09:55:45 2022.

 ---------------------------------------------------------
 #P Geom=AllCheck Guess=TCheck SCRF=Check MP4=FrzG4/GTBas3
 ---------------------------------------------------------

 Structure from the checkpoint file:  "G4.Frag_734.chk"
 --------
 Frag_734
 --------
 Charge =  0 Multiplicity = 1

 SCF Done:  E(RHF) =  -261.847255746     A.U. after   12 cycles
 E2 =    -0.9007989312D+00 EUMP2 =    -0.26274805467718D+03
 Normal termination of Gaussian 09 at Fri Aug 26 09:56:42 2022.

 -----------------------------------------------------------
 #P Geom=AllCheck Guess=TCheck SCRF=Check MP2=Full/GTLargeXP
 -----------------------------------------------------------

 Structure from the checkpoint file:  "G4.Frag_734.chk"
 --------
 Frag_734
 --------
 Charge =  0 Multiplicity = 1

 SCF Done:  E(RHF) =  -261.918532217     A.U. after   12 cycles
 E2 =    -0.1181047357D+01 EUMP2 =    -0.26309957957441D+03
 Normal termination of Gaussian 09 at Fri Aug 26 09:57:20 2022.
 SCF Done:  E(RHF) =  -261.938741696     A.U. after    8 cycles
 Normal termination of Gaussian 09 at Fri Aug 26 09:57:58 2022.

                         Standard orientation:
 ---------------------------------------------------------------------
 Center     Atomic      Atomic             Coordinates (Angstroms)
 Number     Number       Type             X           Y           Z
 ---------------------------------------------------------------------
      1          7           0       -1.970844   -0.111369    0.000016
      2          6           0       -0.834323   -0.665493   -0.000002
      3          6           0        0.453765    0.137157   -0.000073
      4          7           0        1.588646   -0.609569    0.000016
      5          8           0        0.436718    1.352889    0.000018
      6          1           0       -1.818254    0.908051   -0.000006
      7          1           0       -0.766159   -1.758125    0.000008
      8          1           0        2.480533   -0.142036    0.000053
      9          1           0        1.568863   -1.614421    0.000024
 ---------------------------------------------------------------------

 SCF Done:  E(RHF) =  -261.942904519     A.U. after    8 cycles

 The electronic state is 1-A.
 Alpha  occ. eigenvalues --  -20.53960 -15.60900 -15.58092 -11.37479 -11.29954
 Alpha  occ. eigenvalues --   -1.40548  -1.23911  -1.22800  -0.92330  -0.80205
 Alpha  occ. eigenvalues --   -0.75840  -0.70845  -0.64445  -0.61100  -0.60222
 Alpha  occ. eigenvalues --   -0.48235  -0.45921  -0.43698  -0.43695
 Alpha virt. eigenvalues --    0.02707   0.04353   0.05792   0.05801   0.07161
 Alpha virt. eigenvalues --    0.07277   0.07770   0.08540   0.09799   0.10905
 Alpha virt. eigenvalues --    0.11719   0.12213   0.15309   0.15343   0.16056

 Mulliken charges:
               1
     1  N   -0.529660
     2  C    0.044602
     3  C    0.611027
     4  N   -0.701067
     5  O   -0.636951
     6  H    0.328381
     7  H    0.179607
     8  H    0.371798
     9  H    0.332263
 Sum of Mulliken charges =  -0.00000

 Dipole moment (field-independent basis, Debye):
    X=              3.0433    Y=             -3.2946    Z=             -0.0002  Tot=              4.4851
 Quadrupole moment (field-independent basis, Debye-Ang):
   XX=            -29.5631   YY=            -29.1974   ZZ=            -30.7037
   XY=             -5.2002   XZ=              0.0003   YZ=             -0.0001

 Normal termination of Gaussian 09 at Fri Aug 26 10:01:46 2022.
