 Gaussian 09, Revision E.01,
 Gaussian 09:  ES64L-G09RevE.01 30-Nov-2015

 -----
 #P G4
 -----

 --------
 Frag_831
 --------
 Symbolic Z-matrix:
 Charge =  0 Multiplicity = 1

 SCF Done:  E(RB3LYP) =  -359.238613117     A.U. after   14 cycles
 SCF Done:  E(RB3LYP) =  -359.256140873     A.U. after   13 cycles
 SCF Done:  E(RB3LYP) =  -359.260220922     A.U. after   13 cycles
 SCF Done:  E(RB3LYP) =  -359.262343982     A.U. after   12 cycles
 SCF Done:  E(RB3LYP) =  -359.262784455     A.U. after   12 cycles
 SCF Done:  E(RB3LYP) =  -359.263668052     A.U. after   11 cycles
 SCF Done:  E(RB3LYP) =  -359.263736608     A.U. after   10 cycles
 SCF Done:  E(RB3LYP) =  -359.263743731     A.U. after    8 cycles
 SCF Done:  E(RB3LYP) =  -359.263744336     A.U. after    7 cycles
 SCF Done:  E(RB3LYP) =  -359.263744505     A.U. after    6 cycles
 Optimization completed.
    -- Stationary point found.
 Normal termination of Gaussian 09 at Fri Aug 26 06:30:28 2022.

 ----------------------------------------------------------
 #P Geom=AllCheck Guess=TCheck SCRF=Check B3LYP/GTBas3 Freq
 ----------------------------------------------------------

 Structure from the checkpoint file:  "G4.Frag_831.chk"
 --------
 Frag_831
 --------
 Charge =  0 Multiplicity = 1

 SCF Done:  E(RB3LYP) =  -359.263744505     A.U. after    1 cycles

  Exact polarizability:  62.387  -1.536  60.916  -0.091  -0.326  47.331
 Approx polarizability:  84.647   1.144  96.591   0.366  -1.314  66.727

                      1                      2                      3
                      A                      A                      A
 Frequencies --     71.3833               232.2046               244.3816
 Red. masses --      5.7153                 2.3045                 1.1644
 Frc consts  --      0.0172                 0.0732                 0.0410
 IR Inten    --      2.1659                 2.3896                 2.6727

                      4                      5                      6
                      A                      A                      A
 Frequencies --    278.6351               301.1976               316.6156
 Red. masses --      1.1325                 1.4440                 2.1229
 Frc consts  --      0.0518                 0.0772                 0.1254
 IR Inten    --     17.3127                13.2853                40.0599

                      7                      8                      9
                      A                      A                      A
 Frequencies --    356.3087               380.0512               411.6764
 Red. masses --      2.0902                 2.0541                 1.7223
 Frc consts  --      0.1563                 0.1748                 0.1720
 IR Inten    --     25.1157                47.0620               104.2692

                     10                     11                     12
                      A                      A                      A
 Frequencies --    472.2744               520.3654               576.3932
 Red. masses --      2.6043                 3.0214                 3.3819
 Frc consts  --      0.3422                 0.4820                 0.6620
 IR Inten    --     30.9863                 4.0707                10.7541

                     13                     14                     15
                      A                      A                      A
 Frequencies --    687.6504               718.8715               780.0010
 Red. masses --      1.2345                 3.1435                 3.3046
 Frc consts  --      0.3439                 0.9571                 1.1846
 IR Inten    --     14.2230                 7.5918                 5.2268

                     16                     17                     18
                      A                      A                      A
 Frequencies --    860.9066               904.2174               943.2897
 Red. masses --      2.5708                 1.6388                 1.4318
 Frc consts  --      1.1226                 0.7895                 0.7506
 IR Inten    --     52.4411               170.8563                45.9322

                     19                     20                     21
                      A                      A                      A
 Frequencies --    988.0906              1021.1984              1104.9001
 Red. masses --      1.4786                 1.5091                 1.9490
 Frc consts  --      0.8505                 0.9272                 1.4019
 IR Inten    --     12.4365                17.0367                 1.6190

                     22                     23                     24
                      A                      A                      A
 Frequencies --   1124.5907              1234.4107              1269.8111
 Red. masses --      1.6810                 3.1806                 1.6440
 Frc consts  --      1.2526                 2.8555                 1.5618
 IR Inten    --     18.5644                57.4805                27.8436

                     25                     26                     27
                      A                      A                      A
 Frequencies --   1321.7220              1392.1686              1408.4142
 Red. masses --      2.1298                 1.3814                 1.9250
 Frc consts  --      2.1921                 1.5774                 2.2498
 IR Inten    --     48.9917                 3.5681                21.0701

                     28                     29                     30
                      A                      A                      A
 Frequencies --   1486.7818              1500.2172              1573.9407
 Red. masses --      1.0512                 1.0859                 1.3474
 Frc consts  --      1.3691                 1.4399                 1.9667
 IR Inten    --      1.1379                 2.5416               143.3497

                     31                     32                     33
                      A                      A                      A
 Frequencies --   1634.6055              1660.2984              1794.8729
 Red. masses --      1.1240                 1.0989                 8.2311
 Frc consts  --      1.7695                 1.7847                15.6234
 IR Inten    --    102.1607                34.7523               241.3444

                     34                     35                     36
                      A                      A                      A
 Frequencies --   3025.7096              3098.8327              3133.1659
 Red. masses --      1.0397                 1.0964                 1.1015
 Frc consts  --      5.6080                 6.2033                 6.3710
 IR Inten    --     20.9162                23.3813                12.4352

                     37                     38                     39
                      A                      A                      A
 Frequencies --   3476.8369              3483.2263              3559.8123
 Red. masses --      1.0486                 1.0491                 1.0920
 Frc consts  --      7.4687                 7.4992                 8.1533
 IR Inten    --     13.7565                 1.4868                 3.7346

                     40                     41                     42
                      A                      A                      A
 Frequencies --   3561.4955              3576.5830              3726.5208
 Red. masses --      1.0925                 1.0441                 1.1047
 Frc consts  --      8.1645                 7.8689                 9.0382
 IR Inten    --      8.4132                46.1915                78.2895

 - Thermochemistry -
 -------------------
 Temperature   298.150 Kelvin.  Pressure   1.00000 Atm.
 Atom     1 has atomic number  6 and mass  12.00000

 Molecular mass:   103.07456 amu.
 Principal axes and moments of inertia in atomic units:
                           1         2         3
     Eigenvalues --   533.68832 737.75837 891.86591
           X            0.99696  -0.07432  -0.02352
           Y            0.07476   0.99703   0.01852
           Z            0.02208  -0.02022   0.99955
 This molecule is an asymmetric top.
 Rotational symmetry number  1.
 Warning -- assumption of classical behavior for rotation
           may cause significant error
 Rotational temperatures (Kelvin)      0.16229     0.11740     0.09712
 Rotational constants (GHZ):           3.38164     2.44625     2.02356
 Zero-point vibrational energy     360163.5 (Joules/Mol)
                                   86.08113 (Kcal/Mol)
 Warning -- explicit consideration of  12 degrees of freedom as
           vibrations may cause significant error
 Vibrational temperatures:    102.70   334.09   351.61   400.89   433.36
          (Kelvin)            455.54   512.65   546.81   592.31   679.50
                              748.69   829.30   989.37  1034.29  1122.25
                             1238.65  1300.97  1357.18  1421.64  1469.27
                             1589.70  1618.03  1776.04  1826.97  1901.66
                             2003.02  2026.39  2139.14  2158.48  2264.55
                             2351.83  2388.80  2582.42  4353.32  4458.52
                             4507.92  5002.39  5011.58  5121.77  5124.19
                             5145.90  5361.63

 Zero-point correction=                           0.137179 (Hartree/Particle)
 Thermal correction to Energy=                    0.145346
 Thermal correction to Enthalpy=                  0.146290
 Thermal correction to Gibbs Free Energy=         0.105503
 Sum of electronic and zero-point Energies=           -359.126565
 Sum of electronic and thermal Energies=              -359.118398
 Sum of electronic and thermal Enthalpies=            -359.117454
 Sum of electronic and thermal Free Energies=         -359.158242

                     E (Thermal)             CV                S
                      KCal/Mol        Cal/Mol-Kelvin    Cal/Mol-Kelvin
 Total                   91.206             30.765             85.845
 Electronic               0.000              0.000              0.000
 Translational            0.889              2.981             39.808
 Rotational               0.889              2.981             27.354
 Vibrational             89.429             24.804             18.683
 Vibration     1          0.598              1.968              4.115
 Vibration     2          0.653              1.792              1.862
 Vibration     3          0.660              1.772              1.771
 Vibration     4          0.679              1.713              1.542
 Vibration     5          0.693              1.671              1.410
 Vibration     6          0.703              1.642              1.328
 Vibration     7          0.732              1.562              1.138
 Vibration     8          0.750              1.513              1.039
 Vibration     9          0.776              1.445              0.921
 Vibration    10          0.829              1.312              0.731
 Vibration    11          0.875              1.205              0.609
 Vibration    12          0.933              1.082              0.492

 Normal termination of Gaussian 09 at Fri Aug 26 06:31:16 2022.

 -----------------------------------------------------------------
 #P Geom=AllCheck Guess=TCheck SCRF=Check CCSD(T,E4T,FrzG4)/GTBas1
 -----------------------------------------------------------------

 Structure from the checkpoint file:  "G4.Frag_831.chk"
 --------
 Frag_831
 --------
 Charge =  0 Multiplicity = 1

 SCF Done:  E(RHF) =  -357.062336357     A.U. after   13 cycles
 E2 =    -0.1059058911D+01 EUMP2 =    -0.35812139526767D+03
 CCSD(T)
 CCSD(T)= -0.35820485752D+03
 8.2077202\MP4SDQ=-358.1721563\CCSD=-358.1711753\CCSD(T)=-358.2048575\R
 Normal termination of Gaussian 09 at Fri Aug 26 06:35:28 2022.

 ---------------------------------------------------------
 #P Geom=AllCheck Guess=TCheck SCRF=Check MP4=FrzG4/GTBas2
 ---------------------------------------------------------

 Structure from the checkpoint file:  "G4.Frag_831.chk"
 --------
 Frag_831
 --------
 Charge =  0 Multiplicity = 1

 SCF Done:  E(RHF) =  -357.075660384     A.U. after   13 cycles
 E2 =    -0.1077228640D+01 EUMP2 =    -0.35815288902420D+03
 Normal termination of Gaussian 09 at Fri Aug 26 06:36:46 2022.

 ---------------------------------------------------------
 #P Geom=AllCheck Guess=TCheck SCRF=Check MP4=FrzG4/GTBas3
 ---------------------------------------------------------

 Structure from the checkpoint file:  "G4.Frag_831.chk"
 --------
 Frag_831
 --------
 Charge =  0 Multiplicity = 1

 SCF Done:  E(RHF) =  -357.111819816     A.U. after   11 cycles
 E2 =    -0.1295112421D+01 EUMP2 =    -0.35840693223691D+03
 Normal termination of Gaussian 09 at Fri Aug 26 06:47:22 2022.

 -----------------------------------------------------------
 #P Geom=AllCheck Guess=TCheck SCRF=Check MP2=Full/GTLargeXP
 -----------------------------------------------------------

 Structure from the checkpoint file:  "G4.Frag_831.chk"
 --------
 Frag_831
 --------
 Charge =  0 Multiplicity = 1

 SCF Done:  E(RHF) =  -357.206658722     A.U. after   13 cycles
 E2 =    -0.1690753924D+01 EUMP2 =    -0.35889741264671D+03
 Normal termination of Gaussian 09 at Fri Aug 26 06:50:56 2022.
 SCF Done:  E(RHF) =  -357.234088637     A.U. after    9 cycles
 Normal termination of Gaussian 09 at Fri Aug 26 06:54:43 2022.

                         Standard orientation:
 ---------------------------------------------------------------------
 Center     Atomic      Atomic             Coordinates (Angstroms)
 Number     Number       Type             X           Y           Z
 ---------------------------------------------------------------------
      1          6           0       -1.075474    0.072138    1.407459
      2          6           0       -0.582114   -0.018574   -0.049901
      3          7           0       -1.087271    1.051920   -0.907532
      4          7           0       -0.920223   -1.349843   -0.574932
      5          6           0        0.963504    0.155575   -0.016333
      6          7           0        1.652448   -1.005226    0.035340
      7          8           0        1.470914    1.264172    0.014574
      8          1           0       -0.743416    1.012248    1.853360
      9          1           0       -0.697035   -0.757539    2.011792
     10          1           0       -2.171948    0.043847    1.431612
     11          1           0       -2.023509    1.323802   -0.622725
     12          1           0       -0.478896    1.858875   -0.786998
     13          1           0       -0.943209   -1.279357   -1.589471
     14          1           0       -1.861136   -1.602944   -0.287111
     15          1           0        1.143899   -1.865519   -0.098206
     16          1           0        2.657759   -0.979578    0.053684
 ---------------------------------------------------------------------

 SCF Done:  E(RHF) =  -357.239981428     A.U. after    8 cycles

 The electronic state is 1-A.
 Alpha  occ. eigenvalues --  -20.51582 -15.57632 -15.55508 -15.54120 -11.34584
 Alpha  occ. eigenvalues --  -11.30838 -11.23080  -1.38210  -1.24239  -1.20551
 Alpha  occ. eigenvalues --   -1.13465  -0.99499  -0.88139  -0.76853  -0.72921
 Alpha  occ. eigenvalues --   -0.69539  -0.66992  -0.63539  -0.61775  -0.61051
 Alpha  occ. eigenvalues --   -0.56067  -0.54976  -0.53829  -0.52317  -0.45140
 Alpha  occ. eigenvalues --   -0.42168  -0.41256  -0.39163
 Alpha virt. eigenvalues --    0.03108   0.04291   0.04678   0.05283   0.06655
 Alpha virt. eigenvalues --    0.07128   0.07293   0.07400   0.08104   0.09843
 Alpha virt. eigenvalues --    0.11351   0.11398   0.11877   0.12844   0.13440

 Mulliken charges:
               1
     1  C   -0.588295
     2  C    0.402778
     3  N   -0.746781
     4  N   -0.784588
     5  C    0.599153
     6  N   -0.767622
     7  O   -0.658531
     8  H    0.206305
     9  H    0.185146
    10  H    0.164305
    11  H    0.284112
    12  H    0.340650
    13  H    0.328490
    14  H    0.296520
    15  H    0.378866
    16  H    0.359491
 Sum of Mulliken charges =  -0.00000

 Dipole moment (field-independent basis, Debye):
    X=             -2.1410    Y=             -2.6549    Z=              0.7098  Tot=              3.4837
 Quadrupole moment (field-independent basis, Debye-Ang):
   XX=            -38.2842   YY=            -44.3070   ZZ=            -44.9041
   XY=             -6.0564   XZ=             -1.2091   YZ=              1.5280

 Normal termination of Gaussian 09 at Fri Aug 26 07:06:19 2022.
