 Gaussian 09, Revision E.01,
 Gaussian 09:  ES64L-G09RevE.01 30-Nov-2015

 -----
 #P G4
 -----

 --------
 Frag_760
 --------
 Symbolic Z-matrix:
 Charge =  0 Multiplicity = 1

 SCF Done:  E(RB3LYP) =  -305.507314405     A.U. after   12 cycles
 SCF Done:  E(RB3LYP) =  -305.513004739     A.U. after   11 cycles
 SCF Done:  E(RB3LYP) =  -305.513766416     A.U. after   10 cycles
 SCF Done:  E(RB3LYP) =  -305.514140574     A.U. after   10 cycles
 SCF Done:  E(RB3LYP) =  -305.514758569     A.U. after   11 cycles
 SCF Done:  E(RB3LYP) =  -305.514874309     A.U. after   10 cycles
 SCF Done:  E(RB3LYP) =  -305.515042078     A.U. after   10 cycles
 SCF Done:  E(RB3LYP) =  -305.515173759     A.U. after   11 cycles
 SCF Done:  E(RB3LYP) =  -305.515609651     A.U. after   11 cycles
 SCF Done:  E(RB3LYP) =  -305.517091368     A.U. after   13 cycles
 SCF Done:  E(RB3LYP) =  -305.524173000     A.U. after    7 cycles
 SCF Done:  E(RB3LYP) =  -305.524173208     A.U. after    6 cycles
 SCF Done:  E(RB3LYP) =  -305.524173305     A.U. after    7 cycles
 Optimization completed.
    -- Stationary point found.
 Normal termination of Gaussian 09 at Sat Aug 20 11:28:58 2022.

 ----------------------------------------------------------
 #P Geom=AllCheck Guess=TCheck SCRF=Check B3LYP/GTBas3 Freq
 ----------------------------------------------------------

 Structure from the checkpoint file:  "G4.Frag_760.chk"
 --------
 Frag_760
 --------
 Charge =  0 Multiplicity = 1

 SCF Done:  E(RB3LYP) =  -305.524173305     A.U. after    1 cycles

  Exact polarizability:  36.503  -0.299  34.006   0.521  -0.654  33.291
 Approx polarizability:  46.730  -1.903  48.285  -0.111  -0.995  46.962

                      1                      2                      3
                      A                      A                      A
 Frequencies --    178.0243               208.1862               232.5700
 Red. masses --      1.1514                 1.3365                 1.0590
 Frc consts  --      0.0215                 0.0341                 0.0337
 IR Inten    --    120.4114                49.8343                12.9834

                      4                      5                      6
                      A                      A                      A
 Frequencies --    336.4980               380.7158               397.0446
 Red. masses --      1.2466                 2.6834                 1.8044
 Frc consts  --      0.0832                 0.2292                 0.1676
 IR Inten    --     18.9786                 3.6066                48.2590

                      7                      8                      9
                      A                      A                      A
 Frequencies --    528.4350               541.0134               563.6144
 Red. masses --      3.6718                 3.8080                 3.7685
 Frc consts  --      0.6041                 0.6567                 0.7053
 IR Inten    --     13.3175                24.3667                26.6415

                     10                     11                     12
                      A                      A                      A
 Frequencies --    816.6866               942.1598               965.0094
 Red. masses --      5.4282                 2.2957                 2.0925
 Frc consts  --      2.1331                 1.2006                 1.1481
 IR Inten    --      3.4332                90.9657                68.5808

                     13                     14                     15
                      A                      A                      A
 Frequencies --   1053.1970              1110.4926              1154.6373
 Red. masses --      2.0491                 1.6533                 1.9420
 Frc consts  --      1.3391                 1.2013                 1.5254
 IR Inten    --     82.4425               111.5448               146.8380

                     16                     17                     18
                      A                      A                      A
 Frequencies --   1318.9342              1348.8095              1394.3506
 Red. masses --      1.5061                 1.6566                 1.2842
 Frc consts  --      1.5437                 1.7757                 1.4711
 IR Inten    --    129.4610               116.5697                33.4458

                     19                     20                     21
                      A                      A                      A
 Frequencies --   1462.0037              1481.1319              1490.8654
 Red. masses --      1.7963                 1.0633                 1.1227
 Frc consts  --      2.2621                 1.3744                 1.4703
 IR Inten    --     86.4869                 0.9275                16.5361

                     22                     23                     24
                      A                      A                      A
 Frequencies --   3059.9343              3137.5709              3152.3582
 Red. masses --      1.0348                 1.1018                 1.1035
 Frc consts  --      5.7089                 6.3906                 6.4610
 IR Inten    --      7.8181                16.2818                13.4611

                     25                     26                     27
                      A                      A                      A
 Frequencies --   3798.2117              3809.8228              3827.8189
 Red. masses --      1.0650                 1.0655                 1.0652
 Frc consts  --      9.0526                 9.1117                 9.1959
 IR Inten    --     24.5439                46.1314                38.1821

 - Thermochemistry -
 -------------------
 Temperature   298.150 Kelvin.  Pressure   1.00000 Atm.
 Atom     1 has atomic number  6 and mass  12.00000

 Molecular mass:    78.03169 amu.
 Principal axes and moments of inertia in atomic units:
                           1         2         3
     Eigenvalues --   334.60764 355.69131 364.26847
           X            0.97418   0.20232   0.10017
           Y           -0.18679   0.97154  -0.14566
           Z           -0.12679   0.12319   0.98425
 This molecule is an asymmetric top.
 Rotational symmetry number  1.
 Rotational temperatures (Kelvin)      0.25885     0.24351     0.23777
 Rotational constants (GHZ):           5.39360     5.07390     4.95443
 Zero-point vibrational energy     231418.2 (Joules/Mol)
                                   55.31027 (Kcal/Mol)
 Warning -- explicit consideration of   9 degrees of freedom as
           vibrations may cause significant error
 Vibrational temperatures:    256.14   299.53   334.62   484.14   547.76
          (Kelvin)            571.26   760.30   778.40   810.91  1175.03
                             1355.56  1388.43  1515.31  1597.75  1661.26
                             1897.65  1940.63  2006.16  2103.49  2131.02
                             2145.02  4402.56  4514.26  4535.53  5464.77
                             5481.48  5507.37

 Zero-point correction=                           0.088143 (Hartree/Particle)
 Thermal correction to Energy=                    0.094508
 Thermal correction to Enthalpy=                  0.095452
 Thermal correction to Gibbs Free Energy=         0.059275
 Sum of electronic and zero-point Energies=           -305.436031
 Sum of electronic and thermal Energies=              -305.429666
 Sum of electronic and thermal Enthalpies=            -305.428722
 Sum of electronic and thermal Free Energies=         -305.464898

                     E (Thermal)             CV                S
                      KCal/Mol        Cal/Mol-Kelvin    Cal/Mol-Kelvin
 Total                   59.304             22.429             76.140
 Electronic               0.000              0.000              0.000
 Translational            0.889              2.981             38.979
 Rotational               0.889              2.981             25.275
 Vibrational             57.527             16.467             11.886
 Vibration     1          0.628              1.869              2.349
 Vibration     2          0.641              1.828              2.060
 Vibration     3          0.653              1.791              1.859
 Vibration     4          0.717              1.603              1.229
 Vibration     5          0.750              1.511              1.036
 Vibration     6          0.764              1.476              0.974
 Vibration     7          0.883              1.187              0.591
 Vibration     8          0.896              1.159              0.563
 Vibration     9          0.919              1.110              0.517

 Normal termination of Gaussian 09 at Sat Aug 20 11:30:15 2022.

 -----------------------------------------------------------------
 #P Geom=AllCheck Guess=TCheck SCRF=Check CCSD(T,E4T,FrzG4)/GTBas1
 -----------------------------------------------------------------

 Structure from the checkpoint file:  "G4.Frag_760.chk"
 --------
 Frag_760
 --------
 Charge =  0 Multiplicity = 1

 SCF Done:  E(RHF) =  -303.812462091     A.U. after   11 cycles
 E2 =    -0.7987173110D+00 EUMP2 =    -0.30461117940181D+03
 CCSD(T)
 CCSD(T)= -0.30466413040D+03
 9883\MP4SDQ=-304.6444826\CCSD=-304.6443567\CCSD(T)=-304.6641304\RMSD=8
 Normal termination of Gaussian 09 at Sat Aug 20 11:32:08 2022.

 ---------------------------------------------------------
 #P Geom=AllCheck Guess=TCheck SCRF=Check MP4=FrzG4/GTBas2
 ---------------------------------------------------------

 Structure from the checkpoint file:  "G4.Frag_760.chk"
 --------
 Frag_760
 --------
 Charge =  0 Multiplicity = 1

 SCF Done:  E(RHF) =  -303.824185154     A.U. after   11 cycles
 E2 =    -0.8144345827D+00 EUMP2 =    -0.30463861973660D+03
 Normal termination of Gaussian 09 at Sat Aug 20 11:34:29 2022.

 ---------------------------------------------------------
 #P Geom=AllCheck Guess=TCheck SCRF=Check MP4=FrzG4/GTBas3
 ---------------------------------------------------------

 Structure from the checkpoint file:  "G4.Frag_760.chk"
 --------
 Frag_760
 --------
 Charge =  0 Multiplicity = 1

 SCF Done:  E(RHF) =  -303.856828114     A.U. after   11 cycles
 E2 =    -0.9962305747D+00 EUMP2 =    -0.30485305868898D+03
 Normal termination of Gaussian 09 at Sat Aug 20 12:14:41 2022.

 -----------------------------------------------------------
 #P Geom=AllCheck Guess=TCheck SCRF=Check MP2=Full/GTLargeXP
 -----------------------------------------------------------

 Structure from the checkpoint file:  "G4.Frag_760.chk"
 --------
 Frag_760
 --------
 Charge =  0 Multiplicity = 1

 SCF Done:  E(RHF) =  -303.946457810     A.U. after   11 cycles
 E2 =    -0.1296715364D+01 EUMP2 =    -0.30524317317327D+03
 Normal termination of Gaussian 09 at Sat Aug 20 12:17:05 2022.
 SCF Done:  E(RHF) =  -303.971803773     A.U. after    8 cycles
 Normal termination of Gaussian 09 at Sat Aug 20 12:19:54 2022.

                         Standard orientation:
 ---------------------------------------------------------------------
 Center     Atomic      Atomic             Coordinates (Angstroms)
 Number     Number       Type             X           Y           Z
 ---------------------------------------------------------------------
      1          6           0        1.505153    0.171383    0.064984
      2          6           0       -0.005269    0.002392   -0.018037
      3          8           0       -0.254032   -1.259920   -0.577363
      4          8           0       -0.631905    0.110267    1.247629
      5          8           0       -0.564058    1.019387   -0.796846
      6          1           0        1.736430    1.101027    0.587183
      7          1           0        1.948807   -0.669524    0.604050
      8          1           0        1.927408    0.204701   -0.941346
      9          1           0       -1.162689   -1.242018   -0.901318
     10          1           0       -0.523460   -0.740258    1.686226
     11          1           0       -1.325836    1.345556   -0.303837
 ---------------------------------------------------------------------

 SCF Done:  E(RHF) =  -303.977512949     A.U. after    8 cycles

 The electronic state is 1-A.
 Alpha  occ. eigenvalues --  -20.57702 -20.57295 -20.57161 -11.39923 -11.21968
 Alpha  occ. eigenvalues --   -1.46386  -1.35179  -1.34673  -1.00870  -0.83808
 Alpha  occ. eigenvalues --   -0.75872  -0.73819  -0.66546  -0.63461  -0.57132
 Alpha  occ. eigenvalues --   -0.56655  -0.55162  -0.54698  -0.51330  -0.48645
 Alpha  occ. eigenvalues --   -0.46884
 Alpha virt. eigenvalues --    0.04042   0.04288   0.05345   0.05639   0.07530
 Alpha virt. eigenvalues --    0.07559   0.08045   0.11126   0.11550   0.14251
 Alpha virt. eigenvalues --    0.15519   0.15824   0.16362   0.16805   0.17630

 Mulliken charges:
               1
     1  C   -0.493073
     2  C    0.610213
     3  O   -0.591270
     4  O   -0.623817
     5  O   -0.615997
     6  H    0.186737
     7  H    0.179210
     8  H    0.185678
     9  H    0.375292
    10  H    0.387206
    11  H    0.399821
 Sum of Mulliken charges =   0.00000

 Dipole moment (field-independent basis, Debye):
    X=             -0.8057    Y=             -0.6071    Z=              1.0083  Tot=              1.4264
 Quadrupole moment (field-independent basis, Debye-Ang):
   XX=            -25.9200   YY=            -31.2422   ZZ=            -31.3923
   XY=              0.9029   XZ=              1.5904   YZ=             -1.3299

 Normal termination of Gaussian 09 at Sat Aug 20 13:45:40 2022.
