 Gaussian 09, Revision E.01,
 Gaussian 09:  ES64L-G09RevE.01 30-Nov-2015

 -----
 #P G4
 -----

 --------
 Frag_827
 --------
 Symbolic Z-matrix:
 Charge =  0 Multiplicity = 1

 SCF Done:  E(RB3LYP) =  -316.371514277     A.U. after   15 cycles
 SCF Done:  E(RB3LYP) =  -316.383105056     A.U. after   14 cycles
 SCF Done:  E(RB3LYP) =  -316.384126859     A.U. after   13 cycles
 SCF Done:  E(RB3LYP) =  -316.380133298     A.U. after   14 cycles
 SCF Done:  E(RB3LYP) =  -316.384362692     A.U. after   10 cycles
 SCF Done:  E(RB3LYP) =  -316.384447610     A.U. after   11 cycles
 SCF Done:  E(RB3LYP) =  -316.384472996     A.U. after    9 cycles
 SCF Done:  E(RB3LYP) =  -316.384475617     A.U. after    9 cycles
 SCF Done:  E(RB3LYP) =  -316.384476343     A.U. after    8 cycles
 SCF Done:  E(RB3LYP) =  -316.384476584     A.U. after    8 cycles
 Optimization completed.
    -- Stationary point found.
 Normal termination of Gaussian 09 at Tue Aug 30 11:56:05 2022.

 ----------------------------------------------------------
 #P Geom=AllCheck Guess=TCheck SCRF=Check B3LYP/GTBas3 Freq
 ----------------------------------------------------------

 Structure from the checkpoint file:  "G4.Frag_827.chk"
 --------
 Frag_827
 --------
 Charge =  0 Multiplicity = 1

 SCF Done:  E(RB3LYP) =  -316.384476584     A.U. after    1 cycles

  Exact polarizability:  40.540  -2.819  33.983   0.754  -0.287  20.646
 Approx polarizability:  63.768  -9.862  64.688   2.831  -0.310  30.878

                      1                      2                      3
                      A                      A                      A
 Frequencies --    175.1258               309.5946               326.2334
 Red. masses --      2.4812                 1.3821                 4.0518
 Frc consts  --      0.0448                 0.0781                 0.2541
 IR Inten    --      2.9743                37.9323                19.0116

                      4                      5                      6
                      A                      A                      A
 Frequencies --    518.2395               594.5627               792.9791
 Red. masses --      3.4702                 3.0771                 9.7411
 Frc consts  --      0.5491                 0.6409                 3.6089
 IR Inten    --     60.7648                51.6505                10.3141

                      7                      8                      9
                      A                      A                      A
 Frequencies --    797.7961               884.6761               990.9084
 Red. masses --      3.7920                 1.8342                 3.0167
 Frc consts  --      1.4220                 0.8458                 1.7452
 IR Inten    --     67.4556               107.3513                41.4981

                     10                     11                     12
                      A                      A                      A
 Frequencies --   1248.3939              1327.3387              1386.7764
 Red. masses --      2.8423                 1.3666                 5.3330
 Frc consts  --      2.6099                 1.4185                 6.0428
 IR Inten    --      9.1647                77.8084               158.3979

                     13                     14                     15
                      A                      A                      A
 Frequencies --   1431.1381              1705.7691              1711.2951
 Red. masses --      1.1998                 1.8318                 1.9232
 Frc consts  --      1.4478                 3.1404                 3.3184
 IR Inten    --     31.6768               182.6504                85.9464

                     16                     17                     18
                      A                      A                      A
 Frequencies --   3458.7057              3557.2786              3568.8708
 Red. masses --      1.0516                 1.0863                 1.0809
 Frc consts  --      7.4119                 8.0987                 8.1117
 IR Inten    --      1.7947                 8.5339                36.7912

 - Thermochemistry -
 -------------------
 Temperature   298.150 Kelvin.  Pressure   1.00000 Atm.
 Atom     1 has atomic number  7 and mass  14.00307

 Molecular mass:    77.02253 amu.
 Principal axes and moments of inertia in atomic units:
                           1         2         3
     Eigenvalues --   156.19395 393.30320 534.07637
           X            0.99983  -0.01852  -0.00264
           Y            0.01850   0.99980  -0.00750
           Z            0.00278   0.00745   0.99997
 This molecule is an asymmetric top.
 Rotational symmetry number  1.
 Rotational temperatures (Kelvin)      0.55453     0.22022     0.16217
 Rotational constants (GHZ):          11.55449     4.58868     3.37918
 Zero-point vibrational energy     148251.3 (Joules/Mol)
                                   35.43291 (Kcal/Mol)
 Warning -- explicit consideration of   5 degrees of freedom as
           vibrations may cause significant error
 Vibrational temperatures:    251.97   445.44   469.38   745.63   855.44
          (Kelvin)           1140.92  1147.85  1272.85  1425.69  1796.16
                             1909.74  1995.26  2059.09  2454.22  2462.17
                             4976.30  5118.12  5134.80

 Zero-point correction=                           0.056466 (Hartree/Particle)
 Thermal correction to Energy=                    0.061367
 Thermal correction to Enthalpy=                  0.062311
 Thermal correction to Gibbs Free Energy=         0.028670
 Sum of electronic and zero-point Energies=           -316.328011
 Sum of electronic and thermal Energies=              -316.323110
 Sum of electronic and thermal Enthalpies=            -316.322165
 Sum of electronic and thermal Free Energies=         -316.355807

                     E (Thermal)             CV                S
                      KCal/Mol        Cal/Mol-Kelvin    Cal/Mol-Kelvin
 Total                   38.508             16.179             70.805
 Electronic               0.000              0.000              0.000
 Translational            0.889              2.981             38.940
 Rotational               0.889              2.981             24.998
 Vibrational             36.731             10.217              6.866
 Vibration     1          0.627              1.873              2.380
 Vibration     2          0.699              1.655              1.365
 Vibration     3          0.710              1.623              1.279
 Vibration     4          0.873              1.210              0.614
 Vibration     5          0.952              1.043              0.459

 Optimization completed.
    -- Stationary point found.
 Normal termination of Gaussian 09 at Tue Aug 30 11:56:21 2022.

 -----------------------------------------------------------------
 #P Geom=AllCheck Guess=TCheck SCRF=Check CCSD(T,E4T,FrzG4)/GTBas1
 -----------------------------------------------------------------

 Structure from the checkpoint file:  "G4.Frag_827.chk"
 --------
 Frag_827
 --------
 Charge =  0 Multiplicity = 1

 SCF Done:  E(RHF) =  -314.629186143     A.U. after   14 cycles
 E2 =    -0.8692990690D+00 EUMP2 =    -0.31549848521157D+03
 CCSD(T)
 CCSD(T)= -0.31553835165D+03
 15.5478847\MP4SDQ=-315.5093306\CCSD=-315.5060361\CCSD(T)=-315.5383517\
 Normal termination of Gaussian 09 at Tue Aug 30 11:57:08 2022.

 ---------------------------------------------------------
 #P Geom=AllCheck Guess=TCheck SCRF=Check MP4=FrzG4/GTBas2
 ---------------------------------------------------------

 Structure from the checkpoint file:  "G4.Frag_827.chk"
 --------
 Frag_827
 --------
 Charge =  0 Multiplicity = 1

 SCF Done:  E(RHF) =  -314.640850965     A.U. after   14 cycles
 E2 =    -0.8829436731D+00 EUMP2 =    -0.31552379463823D+03
 Normal termination of Gaussian 09 at Tue Aug 30 11:57:21 2022.

 ---------------------------------------------------------
 #P Geom=AllCheck Guess=TCheck SCRF=Check MP4=FrzG4/GTBas3
 ---------------------------------------------------------

 Structure from the checkpoint file:  "G4.Frag_827.chk"
 --------
 Frag_827
 --------
 Charge =  0 Multiplicity = 1

 SCF Done:  E(RHF) =  -314.669475646     A.U. after   13 cycles
 E2 =    -0.1045916039D+01 EUMP2 =    -0.31571539168477D+03
 Normal termination of Gaussian 09 at Tue Aug 30 11:58:16 2022.

 -----------------------------------------------------------
 #P Geom=AllCheck Guess=TCheck SCRF=Check MP2=Full/GTLargeXP
 -----------------------------------------------------------

 Structure from the checkpoint file:  "G4.Frag_827.chk"
 --------
 Frag_827
 --------
 Charge =  0 Multiplicity = 1

 SCF Done:  E(RHF) =  -314.758746452     A.U. after   13 cycles
 E2 =    -0.1344879242D+01 EUMP2 =    -0.31610362569471D+03
 Normal termination of Gaussian 09 at Tue Aug 30 11:58:52 2022.
 SCF Done:  E(RHF) =  -314.785703418     A.U. after   10 cycles
 Normal termination of Gaussian 09 at Tue Aug 30 11:59:29 2022.

                         Standard orientation:
 ---------------------------------------------------------------------
 Center     Atomic      Atomic             Coordinates (Angstroms)
 Number     Number       Type             X           Y           Z
 ---------------------------------------------------------------------
      1          7           0       -1.798373   -0.069725    0.099486
      2          7           0       -0.596346   -0.695703   -0.196381
      3          7           0        0.597478    0.063312   -0.022435
      4          8           0        0.480737    1.274251   -0.026721
      5          8           0        1.617529   -0.593962    0.069064
      6          1           0       -2.050842    0.517759   -0.688559
      7          1           0       -1.702242    0.537903    0.912495
      8          1           0       -0.452364   -1.583163    0.272634
 ---------------------------------------------------------------------

 SCF Done:  E(RHF) =  -314.791138064     A.U. after    8 cycles

 The electronic state is 1-A.
 Alpha  occ. eigenvalues --  -20.61764 -20.61336 -15.89081 -15.68068 -15.62400
 Alpha  occ. eigenvalues --   -1.63782  -1.42726  -1.35121  -1.12381  -0.91009
 Alpha  occ. eigenvalues --   -0.80457  -0.77715  -0.75869  -0.70615  -0.68546
 Alpha  occ. eigenvalues --   -0.54764  -0.51785  -0.48166  -0.47189  -0.46797
 Alpha virt. eigenvalues --    0.04593   0.05610   0.06309   0.07075   0.08643
 Alpha virt. eigenvalues --    0.09308   0.09845   0.10520   0.11395   0.12266
 Alpha virt. eigenvalues --    0.14621   0.15609   0.16365   0.18193   0.18753

 Mulliken charges:
               1
     1  N   -0.539666
     2  N   -0.231516
     3  N    0.612270
     4  O   -0.416551
     5  O   -0.415315
     6  H    0.317413
     7  H    0.308156
     8  H    0.365208
 Sum of Mulliken charges =  -0.00000

 Dipole moment (field-independent basis, Debye):
    X=             -2.8098    Y=             -0.5696    Z=              0.6738  Tot=              2.9451
 Quadrupole moment (field-independent basis, Debye-Ang):
   XX=            -32.7479   YY=            -29.1061   ZZ=            -26.8003
   XY=             -2.3744   XZ=             -0.1131   YZ=             -0.9549

 Normal termination of Gaussian 09 at Tue Aug 30 12:03:03 2022.
