 Gaussian 09, Revision E.01,
 Gaussian 09:  ES64L-G09RevE.01 30-Nov-2015

 -----
 #P G4
 -----

 --------
 Frag_865
 --------
 Symbolic Z-matrix:
 Charge =  0 Multiplicity = 1

 SCF Done:  E(RB3LYP) =  -324.941592871     A.U. after   12 cycles
 SCF Done:  E(RB3LYP) =  -324.948287705     A.U. after   11 cycles
 SCF Done:  E(RB3LYP) =  -324.949467118     A.U. after   11 cycles
 SCF Done:  E(RB3LYP) =  -324.949842584     A.U. after   10 cycles
 SCF Done:  E(RB3LYP) =  -324.949980207     A.U. after   10 cycles
 SCF Done:  E(RB3LYP) =  -324.950098021     A.U. after   10 cycles
 SCF Done:  E(RB3LYP) =  -324.950279265     A.U. after   11 cycles
 SCF Done:  E(RB3LYP) =  -324.950586964     A.U. after   11 cycles
 SCF Done:  E(RB3LYP) =  -324.950494366     A.U. after   12 cycles
 SCF Done:  E(RB3LYP) =  -324.950778006     A.U. after   10 cycles
 SCF Done:  E(RB3LYP) =  -324.957475600     A.U. after    8 cycles
 SCF Done:  E(RB3LYP) =  -324.957482390     A.U. after    8 cycles
 SCF Done:  E(RB3LYP) =  -324.957483332     A.U. after    7 cycles
 Optimization completed.
    -- Stationary point found.
 Normal termination of Gaussian 09 at Sun Aug 21 13:41:57 2022.

 ----------------------------------------------------------
 #P Geom=AllCheck Guess=TCheck SCRF=Check B3LYP/GTBas3 Freq
 ----------------------------------------------------------

 Structure from the checkpoint file:  "G4.Frag_865.chk"
 --------
 Frag_865
 --------
 Charge =  0 Multiplicity = 1

 SCF Done:  E(RB3LYP) =  -324.957483332     A.U. after    1 cycles

  Exact polarizability:  50.709   1.084  48.469  -1.106  -0.354  47.896
 Approx polarizability:  66.892   1.191  67.403  -1.737  -0.792  70.738

                      1                      2                      3
                      A                      A                      A
 Frequencies --    158.7247               220.6233               239.1449
 Red. masses --      3.2196                 1.0382                 2.9137
 Frc consts  --      0.0478                 0.0298                 0.0982
 IR Inten    --      8.2837                 0.7104                 5.6304

                      4                      5                      6
                      A                      A                      A
 Frequencies --    285.2540               338.7208               362.8239
 Red. masses --      1.1622                 2.1303                 2.8483
 Frc consts  --      0.0557                 0.1440                 0.2209
 IR Inten    --     30.1677                24.6732                 0.5566

                      7                      8                      9
                      A                      A                      A
 Frequencies --    408.9706               436.4242               507.7668
 Red. masses --      1.6157                 1.9667                 1.5392
 Frc consts  --      0.1592                 0.2207                 0.2338
 IR Inten    --     39.0403                18.1414                85.3404

                     10                     11                     12
                      A                      A                      A
 Frequencies --    546.7266               598.9541               792.6756
 Red. masses --      1.6583                 2.8080                 4.2039
 Frc consts  --      0.2920                 0.5935                 1.5563
 IR Inten    --     45.6558                17.8025                18.4842

                     13                     14                     15
                      A                      A                      A
 Frequencies --    876.5463               913.5751               948.3218
 Red. masses --      2.0781                 1.9865                 1.4394
 Frc consts  --      0.9407                 0.9768                 0.7627
 IR Inten    --    115.3000                14.5970                74.3429

                     16                     17                     18
                      A                      A                      A
 Frequencies --    990.8516              1046.3595              1084.9007
 Red. masses --      1.3512                 1.7893                 3.9708
 Frc consts  --      0.7816                 1.1543                 2.7537
 IR Inten    --     20.5538                13.8609                86.7054

                     19                     20                     21
                      A                      A                      A
 Frequencies --   1123.2534              1181.4077              1260.8404
 Red. masses --      1.6472                 1.5002                 1.8260
 Frc consts  --      1.2245                 1.2336                 1.7103
 IR Inten    --     86.4720                18.1988                21.2897

                     22                     23                     24
                      A                      A                      A
 Frequencies --   1327.5616              1372.0435              1384.7346
 Red. masses --      1.5300                 1.5452                 1.4273
 Frc consts  --      1.5888                 1.7138                 1.6125
 IR Inten    --     18.8984                57.8100                31.9053

                     25                     26                     27
                      A                      A                      A
 Frequencies --   1406.6116              1439.6995              1488.6234
 Red. masses --      1.3967                 1.2892                 1.0800
 Frc consts  --      1.6282                 1.5744                 1.4101
 IR Inten    --     16.7961                44.8833                 2.3164

                     28                     29                     30
                      A                      A                      A
 Frequencies --   1492.8783              1499.3794              1653.1840
 Red. masses --      1.0527                 1.0844                 1.1097
 Frc consts  --      1.3823                 1.4364                 1.7869
 IR Inten    --      1.5552                 1.9871                43.3218

                     31                     32                     33
                      A                      A                      A
 Frequencies --   2988.8665              3036.6025              3082.1174
 Red. masses --      1.0681                 1.0373                 1.0948
 Frc consts  --      5.6217                 5.6356                 6.1275
 IR Inten    --     54.8307                14.1926                25.2247

                     34                     35                     36
                      A                      A                      A
 Frequencies --   3106.5513              3130.1880              3479.5762
 Red. masses --      1.1000                 1.1013                 1.0504
 Frc consts  --      6.2548                 6.3576                 7.4928
 IR Inten    --     25.7421                16.6612                 4.5327

                     37                     38                     39
                      A                      A                      A
 Frequencies --   3573.1260              3761.8216              3797.3173
 Red. masses --      1.0908                 1.0647                 1.0651
 Frc consts  --      8.2055                 8.8770                 9.0491
 IR Inten    --      4.8548                36.0156                33.2822

 - Thermochemistry -
 -------------------
 Temperature   298.150 Kelvin.  Pressure   1.00000 Atm.
 Atom     1 has atomic number  6 and mass  12.00000

 Molecular mass:    91.06333 amu.
 Principal axes and moments of inertia in atomic units:
                           1         2         3
     Eigenvalues --   371.36928 655.48014 666.13289
           X            0.99930   0.02999  -0.02214
           Y           -0.03100   0.99842  -0.04679
           Z            0.02070   0.04745   0.99866
 This molecule is an asymmetric top.
 Rotational symmetry number  1.
 Rotational temperatures (Kelvin)      0.23323     0.13214     0.13002
 Rotational constants (GHZ):           4.85969     2.75331     2.70928
 Zero-point vibrational energy     342991.8 (Joules/Mol)
                                   81.97700 (Kcal/Mol)
 Warning -- explicit consideration of  11 degrees of freedom as
           vibrations may cause significant error
 Vibrational temperatures:    228.37   317.43   344.08   410.42   487.34
          (Kelvin)            522.02   588.42   627.92   730.56   786.62
                              861.76  1140.48  1261.15  1314.43  1364.42
                             1425.61  1505.48  1560.93  1616.11  1699.78
                             1814.07  1910.06  1974.06  1992.32  2023.80
                             2071.40  2141.79  2147.92  2157.27  2378.56
                             4300.31  4368.99  4434.47  4469.63  4503.64
                             5006.33  5140.92  5412.42  5463.49

 Zero-point correction=                           0.130639 (Hartree/Particle)
 Thermal correction to Energy=                    0.137880
 Thermal correction to Enthalpy=                  0.138825
 Thermal correction to Gibbs Free Energy=         0.100472
 Sum of electronic and zero-point Energies=           -324.826845
 Sum of electronic and thermal Energies=              -324.819603
 Sum of electronic and thermal Enthalpies=            -324.818659
 Sum of electronic and thermal Free Energies=         -324.857012

                     E (Thermal)             CV                S
                      KCal/Mol        Cal/Mol-Kelvin    Cal/Mol-Kelvin
 Total                   86.521             27.152             80.720
 Electronic               0.000              0.000              0.000
 Translational            0.889              2.981             39.439
 Rotational               0.889              2.981             26.586
 Vibrational             84.744             21.190             14.695
 Vibration     1          0.621              1.893              2.565
 Vibration     2          0.647              1.810              1.954
 Vibration     3          0.657              1.781              1.809
 Vibration     4          0.683              1.701              1.502
 Vibration     5          0.719              1.598              1.218
 Vibration     6          0.737              1.549              1.110
 Vibration     7          0.773              1.451              0.930
 Vibration     8          0.797              1.391              0.838
 Vibration     9          0.863              1.233              0.639
 Vibration    10          0.902              1.147              0.551
 Vibration    11          0.957              1.034              0.451

 Optimization completed.
    -- Stationary point found.
 Normal termination of Gaussian 09 at Sun Aug 21 13:44:53 2022.

 -----------------------------------------------------------------
 #P Geom=AllCheck Guess=TCheck SCRF=Check CCSD(T,E4T,FrzG4)/GTBas1
 -----------------------------------------------------------------

 Structure from the checkpoint file:  "G4.Frag_865.chk"
 --------
 Frag_865
 --------
 Charge =  0 Multiplicity = 1

 SCF Done:  E(RHF) =  -322.998516259     A.U. after   11 cycles
 E2 =    -0.9201042473D+00 EUMP2 =    -0.32391862050602D+03
 CCSD(T)
 CCSD(T)= -0.32399407661D+03
 689888\CCSD(T)=-323.9940766\RMSD=9.885e-09\PG=C01 [X(C3H9N1O2)]\\@
 Normal termination of Gaussian 09 at Sun Aug 21 13:50:55 2022.

 ---------------------------------------------------------
 #P Geom=AllCheck Guess=TCheck SCRF=Check MP4=FrzG4/GTBas2
 ---------------------------------------------------------

 Structure from the checkpoint file:  "G4.Frag_865.chk"
 --------
 Frag_865
 --------
 Charge =  0 Multiplicity = 1

 SCF Done:  E(RHF) =  -323.010570576     A.U. after   12 cycles
 E2 =    -0.9369357244D+00 EUMP2 =    -0.32394750630006D+03
 Normal termination of Gaussian 09 at Sun Aug 21 14:00:03 2022.

 ---------------------------------------------------------
 #P Geom=AllCheck Guess=TCheck SCRF=Check MP4=FrzG4/GTBas3
 ---------------------------------------------------------

 Structure from the checkpoint file:  "G4.Frag_865.chk"
 --------
 Frag_865
 --------
 Charge =  0 Multiplicity = 1

 SCF Done:  E(RHF) =  -323.045819093     A.U. after   10 cycles
 E2 =    -0.1143495579D+01 EUMP2 =    -0.32418931467225D+03
 Normal termination of Gaussian 09 at Sun Aug 21 17:19:39 2022.

 -----------------------------------------------------------
 #P Geom=AllCheck Guess=TCheck SCRF=Check MP2=Full/GTLargeXP
 -----------------------------------------------------------

 Structure from the checkpoint file:  "G4.Frag_865.chk"
 --------
 Frag_865
 --------
 Charge =  0 Multiplicity = 1

 SCF Done:  E(RHF) =  -323.134923479     A.U. after   11 cycles
 E2 =    -0.1490763496D+01 EUMP2 =    -0.32462568697569D+03
 Normal termination of Gaussian 09 at Sun Aug 21 17:26:18 2022.
 SCF Done:  E(RHF) =  -323.160865086     A.U. after    8 cycles
 Normal termination of Gaussian 09 at Sun Aug 21 17:32:19 2022.

                         Standard orientation:
 ---------------------------------------------------------------------
 Center     Atomic      Atomic             Coordinates (Angstroms)
 Number     Number       Type             X           Y           Z
 ---------------------------------------------------------------------
      1          6           0        1.704009    0.776496   -0.117049
      2          6           0        0.404857   -0.016704    0.009475
      3          7           0        0.450331   -1.202739   -0.838655
      4          8           0        0.216847   -0.467133    1.356921
      5          6           0       -0.833961    0.857773   -0.255682
      6          8           0       -2.012700    0.088449   -0.114286
      7          1           0        2.562256    0.118183    0.047710
      8          1           0        1.800682    1.228830   -1.110425
      9          1           0        1.729836    1.572441    0.630670
     10          1           0        0.893525   -0.995041   -1.727683
     11          1           0       -0.506288   -1.491217   -1.034193
     12          1           0        0.661035   -1.322195    1.399322
     13          1           0       -0.814275    1.235375   -1.282866
     14          1           0       -0.828948    1.719475    0.429368
     15          1           0       -1.932744   -0.322592    0.757134
 ---------------------------------------------------------------------

 SCF Done:  E(RHF) =  -323.166675299     A.U. after    8 cycles

 The electronic state is 1-A.
 Alpha  occ. eigenvalues --  -20.55823 -20.55436 -15.55029 -11.31912 -11.27496
 Alpha  occ. eigenvalues --  -11.22511  -1.38739  -1.35153  -1.18229  -1.01461
 Alpha  occ. eigenvalues --   -0.92980  -0.80200  -0.71763  -0.68127  -0.66669
 Alpha  occ. eigenvalues --   -0.63999  -0.61613  -0.57302  -0.55877  -0.54446
 Alpha  occ. eigenvalues --   -0.52927  -0.49968  -0.46591  -0.45859  -0.40651
 Alpha virt. eigenvalues --    0.03313   0.04616   0.04846   0.05201   0.07034
 Alpha virt. eigenvalues --    0.07118   0.07465   0.07516   0.08545   0.10045
 Alpha virt. eigenvalues --    0.11693   0.12933   0.13498   0.14488   0.14653

 Mulliken charges:
               1
     1  C   -0.570550
     2  C    0.447567
     3  N   -0.763028
     4  O   -0.647685
     5  C   -0.112454
     6  O   -0.597291
     7  H    0.184515
     8  H    0.168178
     9  H    0.186563
    10  H    0.296514
    11  H    0.316650
    12  H    0.392613
    13  H    0.156589
    14  H    0.146314
    15  H    0.395504
 Sum of Mulliken charges =  -0.00000

 Dipole moment (field-independent basis, Debye):
    X=              1.6852    Y=              0.2738    Z=             -0.9235  Tot=              1.9411
 Quadrupole moment (field-independent basis, Debye-Ang):
   XX=            -41.4335   YY=            -36.7486   ZZ=            -36.3020
   XY=              1.5071   XZ=             -2.1368   YZ=             -1.3919

 Normal termination of Gaussian 09 at Sun Aug 21 20:33:55 2022.
