 Gaussian 09, Revision E.01,
 Gaussian 09:  ES64L-G09RevE.01 30-Nov-2015

 -----
 #P G4
 -----

 ---------
 Frag_1096
 ---------
 Symbolic Z-matrix:
 Charge =  0 Multiplicity = 1

 SCF Done:  E(RB3LYP) =  -400.168553066     A.U. after   12 cycles
 SCF Done:  E(RB3LYP) =  -400.175973173     A.U. after   11 cycles
 SCF Done:  E(RB3LYP) =  -400.177115486     A.U. after   11 cycles
 SCF Done:  E(RB3LYP) =  -400.177525396     A.U. after   10 cycles
 SCF Done:  E(RB3LYP) =  -400.177823504     A.U. after   10 cycles
 SCF Done:  E(RB3LYP) =  -400.178032087     A.U. after   10 cycles
 SCF Done:  E(RB3LYP) =  -400.178587615     A.U. after   11 cycles
 SCF Done:  E(RB3LYP) =  -400.160257892     A.U. after   14 cycles
 SCF Done:  E(RB3LYP) =  -400.179036982     A.U. after   12 cycles
 SCF Done:  E(RB3LYP) =  -400.181742389     A.U. after   12 cycles
 SCF Done:  E(RB3LYP) =  -400.188460663     A.U. after    9 cycles
 SCF Done:  E(RB3LYP) =  -400.188465460     A.U. after    8 cycles
 SCF Done:  E(RB3LYP) =  -400.188465976     A.U. after    7 cycles
 Optimization completed.
    -- Stationary point found.
 Normal termination of Gaussian 09 at Fri Aug 26 10:22:39 2022.

 ----------------------------------------------------------
 #P Geom=AllCheck Guess=TCheck SCRF=Check B3LYP/GTBas3 Freq
 ----------------------------------------------------------

 Structure from the checkpoint file:  "G4.Frag_1096.chk"
 ---------
 Frag_1096
 ---------
 Charge =  0 Multiplicity = 1

 SCF Done:  E(RB3LYP) =  -400.188465976     A.U. after    1 cycles

  Exact polarizability:  56.168   0.785  50.960   0.193  -0.683  49.983
 Approx polarizability:  74.167   3.491  73.374  -1.639  -1.243  71.538

                      1                      2                      3
                      A                      A                      A
 Frequencies --    105.9057               211.4398               238.1156
 Red. masses --      3.7144                 1.1600                 2.3206
 Frc consts  --      0.0245                 0.0306                 0.0775
 IR Inten    --      0.6152                 0.3484                15.0787

                      4                      5                      6
                      A                      A                      A
 Frequencies --    251.0361               267.7850               293.9439
 Red. masses --      1.5010                 1.3735                 1.1738
 Frc consts  --      0.0557                 0.0580                 0.0598
 IR Inten    --     50.9838                40.8941                62.7289

                      7                      8                      9
                      A                      A                      A
 Frequencies --    310.2781               358.0371               414.6767
 Red. masses --      1.6896                 3.5214                 3.2659
 Frc consts  --      0.0958                 0.2660                 0.3309
 IR Inten    --     38.3617                 6.5821                 6.8646

                     10                     11                     12
                      A                      A                      A
 Frequencies --    450.4048               484.3306               506.1827
 Red. masses --      1.2122                 2.6188                 3.2290
 Frc consts  --      0.1449                 0.3619                 0.4875
 IR Inten    --     97.7982                15.0843                27.5065

                     13                     14                     15
                      A                      A                      A
 Frequencies --    557.6924               623.8678               775.0801
 Red. masses --      4.1095                 3.1848                 3.4664
 Frc consts  --      0.7531                 0.7303                 1.2269
 IR Inten    --      6.1945                40.5330                 1.6316

                     16                     17                     18
                      A                      A                      A
 Frequencies --    869.4813               900.8596               985.9486
 Red. masses --      1.6398                 2.2735                 2.7605
 Frc consts  --      0.7304                 1.0871                 1.5811
 IR Inten    --    116.8776                28.8282                96.4897

                     19                     20                     21
                      A                      A                      A
 Frequencies --    997.4479              1062.7295              1120.6833
 Red. masses --      1.8924                 2.0429                 2.3885
 Frc consts  --      1.1093                 1.3594                 1.7674
 IR Inten    --     36.6910                62.5061                94.2667

                     22                     23                     24
                      A                      A                      A
 Frequencies --   1126.5367              1172.1805              1234.0379
 Red. masses --      2.3028                 1.7893                 1.1935
 Frc consts  --      1.7219                 1.4485                 1.0709
 IR Inten    --     15.1356               186.0777                34.7757

                     25                     26                     27
                      A                      A                      A
 Frequencies --   1256.4000              1367.0123              1387.6707
 Red. masses --      1.4505                 1.2750                 1.6873
 Frc consts  --      1.3490                 1.4038                 1.9144
 IR Inten    --     52.0842                19.1449                79.5703

                     28                     29                     30
                      A                      A                      A
 Frequencies --   1393.4532              1410.0249              1453.3632
 Red. masses --      1.4108                 1.4000                 1.7655
 Frc consts  --      1.6140                 1.6400                 2.1971
 IR Inten    --     30.2677                30.5874                76.4907

                     31                     32                     33
                      A                      A                      A
 Frequencies --   1482.1279              1501.8699              1640.2934
 Red. masses --      1.0536                 1.1332                 1.1142
 Frc consts  --      1.3637                 1.5060                 1.7663
 IR Inten    --      2.4628                14.8763                48.0709

                     34                     35                     36
                      A                      A                      A
 Frequencies --   2988.5675              3035.8352              3112.9388
 Red. masses --      1.0836                 1.0424                 1.0932
 Frc consts  --      5.7024                 5.6603                 6.2413
 IR Inten    --     50.7204                26.5089                16.8394

                     37                     38                     39
                      A                      A                      A
 Frequencies --   3143.9593              3507.4883              3594.7774
 Red. masses --      1.1018                 1.0482                 1.0929
 Frc consts  --      6.4169                 7.5980                 8.3211
 IR Inten    --     11.5408                 2.5195                 5.6921

                     40                     41                     42
                      A                      A                      A
 Frequencies --   3779.3586              3820.2725              3830.5852
 Red. masses --      1.0651                 1.0648                 1.0665
 Frc consts  --      8.9632                 9.1561                 9.2205
 IR Inten    --     45.2126                43.2459                23.5397

 - Thermochemistry -
 -------------------
 Temperature   298.150 Kelvin.  Pressure   1.00000 Atm.
 Atom     1 has atomic number  6 and mass  12.00000

 Molecular mass:   107.05824 amu.
 Principal axes and moments of inertia in atomic units:
                           1         2         3
     Eigenvalues --   533.09451 758.72245 915.24079
           X            0.99788  -0.06223   0.01915
           Y            0.06260   0.99785  -0.01919
           Z           -0.01791   0.02035   0.99963
 This molecule is an asymmetric top.
 Rotational symmetry number  1.
 Warning -- assumption of classical behavior for rotation
           may cause significant error
 Rotational temperatures (Kelvin)      0.16247     0.11416     0.09464
 Rotational constants (GHZ):           3.38541     2.37866     1.97188
 Zero-point vibrational energy     353046.0 (Joules/Mol)
                                   84.38002 (Kcal/Mol)
 Warning -- explicit consideration of  13 degrees of freedom as
           vibrations may cause significant error
 Vibrational temperatures:    152.37   304.21   342.59   361.18   385.28
          (Kelvin)            422.92   446.42   515.13   596.63   648.03
                              696.84   728.28   802.39   897.61  1115.17
                             1250.99  1296.13  1418.56  1435.10  1529.03
                             1612.41  1620.83  1686.50  1775.50  1807.68
                             1966.82  1996.55  2004.87  2028.71  2091.06
                             2132.45  2160.85  2360.01  4299.88  4367.88
                             4478.82  4523.45  5046.49  5172.08  5437.65
                             5496.51  5511.35

 Zero-point correction=                           0.134468 (Hartree/Particle)
 Thermal correction to Energy=                    0.142999
 Thermal correction to Enthalpy=                  0.143943
 Thermal correction to Gibbs Free Energy=         0.102645
 Sum of electronic and zero-point Energies=           -400.053998
 Sum of electronic and thermal Energies=              -400.045467
 Sum of electronic and thermal Enthalpies=            -400.044523
 Sum of electronic and thermal Free Energies=         -400.085821

                     E (Thermal)             CV                S
                      KCal/Mol        Cal/Mol-Kelvin    Cal/Mol-Kelvin
 Total                   89.733             31.975             86.920
 Electronic               0.000              0.000              0.000
 Translational            0.889              2.981             39.921
 Rotational               0.889              2.981             27.406
 Vibrational             87.956             26.013             19.592
 Vibration     1          0.605              1.945              3.343
 Vibration     2          0.643              1.823              2.031
 Vibration     3          0.656              1.782              1.817
 Vibration     4          0.663              1.761              1.723
 Vibration     5          0.673              1.732              1.610
 Vibration     6          0.689              1.685              1.451
 Vibration     7          0.699              1.654              1.361
 Vibration     8          0.733              1.559              1.131
 Vibration     9          0.778              1.438              0.910
 Vibration    10          0.809              1.360              0.795
 Vibration    11          0.840              1.285              0.698
 Vibration    12          0.861              1.236              0.643
 Vibration    13          0.913              1.123              0.528

 Normal termination of Gaussian 09 at Fri Aug 26 10:23:27 2022.

 -----------------------------------------------------------------
 #P Geom=AllCheck Guess=TCheck SCRF=Check CCSD(T,E4T,FrzG4)/GTBas1
 -----------------------------------------------------------------

 Structure from the checkpoint file:  "G4.Frag_1096.chk"
 ---------
 Frag_1096
 ---------
 Charge =  0 Multiplicity = 1

 SCF Done:  E(RHF) =  -397.863324076     A.U. after   12 cycles
 E2 =    -0.1096419055D+01 EUMP2 =    -0.39895974313188D+03
 CCSD(T)
 CCSD(T)= -0.39903948214D+03
 TQ=-399.0404167\MP4SDQ=-399.0102513\CCSD=-399.0101312\CCSD(T)=-399.039
 Normal termination of Gaussian 09 at Fri Aug 26 10:27:33 2022.

 ---------------------------------------------------------
 #P Geom=AllCheck Guess=TCheck SCRF=Check MP4=FrzG4/GTBas2
 ---------------------------------------------------------

 Structure from the checkpoint file:  "G4.Frag_1096.chk"
 ---------
 Frag_1096
 ---------
 Charge =  0 Multiplicity = 1

 SCF Done:  E(RHF) =  -397.878454581     A.U. after   11 cycles
 E2 =    -0.1117923672D+01 EUMP2 =    -0.39899637825308D+03
 Normal termination of Gaussian 09 at Fri Aug 26 10:28:54 2022.

 ---------------------------------------------------------
 #P Geom=AllCheck Guess=TCheck SCRF=Check MP4=FrzG4/GTBas3
 ---------------------------------------------------------

 Structure from the checkpoint file:  "G4.Frag_1096.chk"
 ---------
 Frag_1096
 ---------
 Charge =  0 Multiplicity = 1

 SCF Done:  E(RHF) =  -397.921601573     A.U. after   11 cycles
 E2 =    -0.1360985619D+01 EUMP2 =    -0.39928258719214D+03
 Normal termination of Gaussian 09 at Fri Aug 26 10:39:44 2022.

 -----------------------------------------------------------
 #P Geom=AllCheck Guess=TCheck SCRF=Check MP2=Full/GTLargeXP
 -----------------------------------------------------------

 Structure from the checkpoint file:  "G4.Frag_1096.chk"
 ---------
 Frag_1096
 ---------
 Charge =  0 Multiplicity = 1

 SCF Done:  E(RHF) =  -398.034165952     A.U. after   12 cycles
 E2 =    -0.1772736216D+01 EUMP2 =    -0.39980690216872D+03
 Normal termination of Gaussian 09 at Fri Aug 26 10:43:39 2022.
 SCF Done:  E(RHF) =  -398.066291674     A.U. after    8 cycles
 Normal termination of Gaussian 09 at Fri Aug 26 10:46:42 2022.

                         Standard orientation:
 ---------------------------------------------------------------------
 Center     Atomic      Atomic             Coordinates (Angstroms)
 Number     Number       Type             X           Y           Z
 ---------------------------------------------------------------------
      1          6           0       -1.700137    1.110301   -0.002241
      2          6           0       -0.823014   -0.046986   -0.455802
      3          8           0       -1.272694   -1.310747    0.053336
      4          6           0        0.646863    0.060445    0.013254
      5          7           0        0.696010    0.202223    1.442410
      6          8           0        1.270301    1.186923   -0.532743
      7          8           0        1.359323   -1.065481   -0.497035
      8          1           0       -1.276660    2.053585   -0.355704
      9          1           0       -1.755728    1.145334    1.087522
     10          1           0       -2.711946    1.012882   -0.412936
     11          1           0       -0.787460   -0.082465   -1.555303
     12          1           0       -2.193101   -1.434112   -0.196884
     13          1           0        1.665574    0.152551    1.739295
     14          1           0        0.191345   -0.569376    1.867031
     15          1           0        1.633942    0.899545   -1.377623
     16          1           0        0.764255   -1.821624   -0.412003
 ---------------------------------------------------------------------

 SCF Done:  E(RHF) =  -398.073482729     A.U. after    8 cycles

 The electronic state is 1-A.
 Alpha  occ. eigenvalues --  -20.57726 -20.56147 -20.55892 -15.53966 -11.36638
 Alpha  occ. eigenvalues --  -11.29225 -11.21896  -1.42803  -1.37892  -1.33060
 Alpha  occ. eigenvalues --   -1.17485  -1.02906  -0.90302  -0.81334  -0.73823
 Alpha  occ. eigenvalues --   -0.72341  -0.68477  -0.65082  -0.63169  -0.59802
 Alpha  occ. eigenvalues --   -0.58168  -0.56449  -0.55627  -0.52642  -0.52148
 Alpha  occ. eigenvalues --   -0.51175  -0.46359  -0.44160  -0.41409
 Alpha virt. eigenvalues --    0.03133   0.04294   0.04835   0.05049   0.06739
 Alpha virt. eigenvalues --    0.06904   0.07383   0.07740   0.08429   0.10087
 Alpha virt. eigenvalues --    0.11683   0.12396   0.12567   0.13524   0.14668

 Mulliken charges:
               1
     1  C   -0.537027
     2  C    0.100522
     3  O   -0.630051
     4  C    0.594413
     5  N   -0.732339
     6  O   -0.621014
     7  O   -0.639294
     8  H    0.201203
     9  H    0.190309
    10  H    0.152062
    11  H    0.150347
    12  H    0.379460
    13  H    0.301378
    14  H    0.308323
    15  H    0.387991
    16  H    0.393716
 Sum of Mulliken charges =  -0.00000

 Dipole moment (field-independent basis, Debye):
    X=             -2.3293    Y=             -1.4346    Z=             -1.0692  Tot=              2.9371
 Quadrupole moment (field-independent basis, Debye-Ang):
   XX=            -39.5235   YY=            -45.5020   ZZ=            -40.0526
   XY=              1.1535   XZ=              1.9626   YZ=             -2.3506

 Normal termination of Gaussian 09 at Fri Aug 26 10:58:26 2022.
