 Gaussian 09, Revision E.01,
 Gaussian 09:  ES64L-G09RevE.01 30-Nov-2015

 -----
 #P G4
 -----

 --------
 Frag_866
 --------
 Symbolic Z-matrix:
 Charge =  0 Multiplicity = 1

 SCF Done:  E(RB3LYP) =  -379.103596999     A.U. after   14 cycles
 SCF Done:  E(RB3LYP) =  -379.123696643     A.U. after   12 cycles
 SCF Done:  E(RB3LYP) =  -379.124720185     A.U. after   12 cycles
 SCF Done:  E(RB3LYP) =  -379.124664116     A.U. after   12 cycles
 SCF Done:  E(RB3LYP) =  -379.124772685     A.U. after   11 cycles
 SCF Done:  E(RB3LYP) =  -379.124971914     A.U. after   11 cycles
 SCF Done:  E(RB3LYP) =  -379.124996348     A.U. after   10 cycles
 SCF Done:  E(RB3LYP) =  -379.124999461     A.U. after    8 cycles
 SCF Done:  E(RB3LYP) =  -379.125000653     A.U. after    8 cycles
 SCF Done:  E(RB3LYP) =  -379.125002078     A.U. after    9 cycles
 SCF Done:  E(RB3LYP) =  -379.127492906     A.U. after   10 cycles
 SCF Done:  E(RB3LYP) =  -379.127500795     A.U. after    9 cycles
 SCF Done:  E(RB3LYP) =  -379.127500007     A.U. after    8 cycles
 Optimization completed.
    -- Stationary point found.
 Normal termination of Gaussian 09 at Fri Aug 26 04:30:05 2022.

 ----------------------------------------------------------
 #P Geom=AllCheck Guess=TCheck SCRF=Check B3LYP/GTBas3 Freq
 ----------------------------------------------------------

 Structure from the checkpoint file:  "G4.Frag_866.chk"
 --------
 Frag_866
 --------
 Charge =  0 Multiplicity = 1

 SCF Done:  E(RB3LYP) =  -379.127500007     A.U. after    1 cycles

  Exact polarizability:  57.576  -0.760  56.065  -0.017  -0.626  47.070
 Approx polarizability:  78.010   2.301  86.883   1.340  -1.083  68.854

                      1                      2                      3
                      A                      A                      A
 Frequencies --     56.3149               201.3791               238.3424
 Red. masses --      7.2770                 1.0766                 3.1447
 Frc consts  --      0.0136                 0.0257                 0.1053
 IR Inten    --      0.7465                 3.1434                 0.3901

                      4                      5                      6
                      A                      A                      A
 Frequencies --    257.4558               302.0290               319.1792
 Red. masses --      3.2268                 1.1078                 1.1461
 Frc consts  --      0.1260                 0.0595                 0.0688
 IR Inten    --      4.3299                39.7304                25.9186

                      7                      8                      9
                      A                      A                      A
 Frequencies --    366.8081               391.0701               418.8486
 Red. masses --      3.8546                 2.7398                 2.5906
 Frc consts  --      0.3056                 0.2469                 0.2678
 IR Inten    --      4.3944                 6.3754                20.1168

                     10                     11                     12
                      A                      A                      A
 Frequencies --    541.4062               587.4820               600.1466
 Red. masses --      3.7414                 2.9373                 1.2148
 Frc consts  --      0.6461                 0.5973                 0.2578
 IR Inten    --     29.7076                23.8534                84.7642

                     13                     14                     15
                      A                      A                      A
 Frequencies --    735.4456               786.0897               866.6955
 Red. masses --      3.7814                 5.3118                 2.1935
 Frc consts  --      1.2050                 1.9339                 0.9708
 IR Inten    --     28.3413                48.3102                53.3014

                     16                     17                     18
                      A                      A                      A
 Frequencies --    880.0124               918.0663               989.6077
 Red. masses --      1.6914                 1.6057                 1.4812
 Frc consts  --      0.7718                 0.7974                 0.8547
 IR Inten    --    156.1505                69.6253                29.8214

                     19                     20                     21
                      A                      A                      A
 Frequencies --   1024.4752              1124.3850              1143.0441
 Red. masses --      1.6052                 1.4680                 2.6295
 Frc consts  --      0.9926                 1.0934                 2.0242
 IR Inten    --     18.3448                17.0409               232.0514

                     22                     23                     24
                      A                      A                      A
 Frequencies --   1166.4900              1290.9441              1352.8273
 Red. masses --      2.6119                 1.7086                 2.0707
 Frc consts  --      2.0940                 1.6776                 2.2328
 IR Inten    --     47.2178                23.1255                18.1875

                     25                     26                     27
                      A                      A                      A
 Frequencies --   1394.8282              1417.2470              1482.2543
 Red. masses --      1.6649                 1.7051                 1.0516
 Frc consts  --      1.9084                 2.0179                 1.3612
 IR Inten    --     13.7500                 7.3237                 3.2565

                     28                     29                     30
                      A                      A                      A
 Frequencies --   1488.4310              1649.2667              1655.5787
 Red. masses --      1.0627                 1.0974                 1.1034
 Frc consts  --      1.3872                 1.7587                 1.7819
 IR Inten    --      1.8233                26.7699                34.4339

                     31                     32                     33
                      A                      A                      A
 Frequencies --   1844.8148              3057.5862              3131.7315
 Red. masses --     10.3265                 1.0357                 1.1021
 Frc consts  --     20.7066                 5.7046                 6.3683
 IR Inten    --    236.4646                11.1007                15.6489

                     34                     35                     36
                      A                      A                      A
 Frequencies --   3151.5708              3474.8117              3491.2432
 Red. masses --      1.1018                 1.0487                 1.0489
 Frc consts  --      6.4479                 7.4606                 7.5325
 IR Inten    --     10.6351                 0.1744                 0.5094

                     37                     38                     39
                      A                      A                      A
 Frequencies --   3561.0381              3575.1513              3753.8705
 Red. masses --      1.0927                 1.0918                 1.0643
 Frc consts  --      8.1639                 8.2223                 8.8359
 IR Inten    --      0.6861                 2.8507                57.6518

 - Thermochemistry -
 -------------------
 Temperature   298.150 Kelvin.  Pressure   1.00000 Atm.
 Atom     1 has atomic number  6 and mass  12.00000

 Molecular mass:   104.05858 amu.
 Principal axes and moments of inertia in atomic units:
                           1         2         3
     Eigenvalues --   520.76905 742.53082 895.13305
           X            0.99689  -0.07799  -0.01090
           Y            0.07803   0.99695   0.00305
           Z            0.01063  -0.00389   0.99994
 This molecule is an asymmetric top.
 Rotational symmetry number  1.
 Warning -- assumption of classical behavior for rotation
           may cause significant error
 Rotational temperatures (Kelvin)      0.16632     0.11665     0.09676
 Rotational constants (GHZ):           3.46553     2.43053     2.01617
 Zero-point vibrational energy     327106.7 (Joules/Mol)
                                   78.18038 (Kcal/Mol)
 Warning -- explicit consideration of  12 degrees of freedom as
           vibrations may cause significant error
 Vibrational temperatures:     81.02   289.74   342.92   370.42   434.55
          (Kelvin)            459.23   527.75   562.66   602.63   778.96
                              845.25   863.48  1058.14  1131.01  1246.98
                             1266.14  1320.89  1423.82  1473.99  1617.74
                             1644.58  1678.32  1857.38  1946.41  2006.84
                             2039.10  2132.63  2141.52  2372.92  2382.01
                             2654.27  4399.18  4505.86  4534.40  4999.47
                             5023.11  5123.53  5143.84  5400.98

 Zero-point correction=                           0.124588 (Hartree/Particle)
 Thermal correction to Energy=                    0.132608
 Thermal correction to Enthalpy=                  0.133552
 Thermal correction to Gibbs Free Energy=         0.092714
 Sum of electronic and zero-point Energies=           -379.002912
 Sum of electronic and thermal Energies=              -378.994892
 Sum of electronic and thermal Enthalpies=            -378.993948
 Sum of electronic and thermal Free Energies=         -379.034786

                     E (Thermal)             CV                S
                      KCal/Mol        Cal/Mol-Kelvin    Cal/Mol-Kelvin
 Total                   83.213             29.532             85.951
 Electronic               0.000              0.000              0.000
 Translational            0.889              2.981             39.837
 Rotational               0.889              2.981             27.339
 Vibrational             81.435             23.571             18.775
 Vibration     1          0.596              1.975              4.582
 Vibration     2          0.638              1.838              2.120
 Vibration     3          0.656              1.782              1.815
 Vibration     4          0.667              1.750              1.679
 Vibration     5          0.694              1.670              1.406
 Vibration     6          0.705              1.637              1.314
 Vibration     7          0.740              1.541              1.093
 Vibration     8          0.759              1.489              0.996
 Vibration     9          0.782              1.429              0.896
 Vibration    10          0.896              1.159              0.562
 Vibration    11          0.945              1.058              0.472
 Vibration    12          0.958              1.031              0.449

 Optimization completed.
    -- Stationary point found.
 Normal termination of Gaussian 09 at Fri Aug 26 04:30:49 2022.

 -----------------------------------------------------------------
 #P Geom=AllCheck Guess=TCheck SCRF=Check CCSD(T,E4T,FrzG4)/GTBas1
 -----------------------------------------------------------------

 Structure from the checkpoint file:  "G4.Frag_866.chk"
 --------
 Frag_866
 --------
 Charge =  0 Multiplicity = 1

 SCF Done:  E(RHF) =  -376.889650259     A.U. after   14 cycles
 E2 =    -0.1072109506D+01 EUMP2 =    -0.37796175976532D+03
 CCSD(T)
 CCSD(T)= -0.37803997671D+03
 75\CCSD(T)=-378.0399767\RMSD=3.268e-09\PG=C01 [X(C3H8N2O2)]\\@
 Normal termination of Gaussian 09 at Fri Aug 26 04:35:11 2022.

 ---------------------------------------------------------
 #P Geom=AllCheck Guess=TCheck SCRF=Check MP4=FrzG4/GTBas2
 ---------------------------------------------------------

 Structure from the checkpoint file:  "G4.Frag_866.chk"
 --------
 Frag_866
 --------
 Charge =  0 Multiplicity = 1

 SCF Done:  E(RHF) =  -376.902855636     A.U. after   13 cycles
 E2 =    -0.1090354883D+01 EUMP2 =    -0.37799321051917D+03
 Normal termination of Gaussian 09 at Fri Aug 26 04:36:25 2022.

 ---------------------------------------------------------
 #P Geom=AllCheck Guess=TCheck SCRF=Check MP4=FrzG4/GTBas3
 ---------------------------------------------------------

 Structure from the checkpoint file:  "G4.Frag_866.chk"
 --------
 Frag_866
 --------
 Charge =  0 Multiplicity = 1

 SCF Done:  E(RHF) =  -376.940792372     A.U. after   12 cycles
 E2 =    -0.1314784192D+01 EUMP2 =    -0.37825557656359D+03
 Normal termination of Gaussian 09 at Fri Aug 26 04:43:52 2022.

 -----------------------------------------------------------
 #P Geom=AllCheck Guess=TCheck SCRF=Check MP2=Full/GTLargeXP
 -----------------------------------------------------------

 Structure from the checkpoint file:  "G4.Frag_866.chk"
 --------
 Frag_866
 --------
 Charge =  0 Multiplicity = 1

 SCF Done:  E(RHF) =  -377.043009799     A.U. after   13 cycles
 E2 =    -0.1715632625D+01 EUMP2 =    -0.37875864242429D+03
 Normal termination of Gaussian 09 at Fri Aug 26 04:47:24 2022.
 SCF Done:  E(RHF) =  -377.072526889     A.U. after    9 cycles
 Normal termination of Gaussian 09 at Fri Aug 26 04:50:31 2022.

                         Standard orientation:
 ---------------------------------------------------------------------
 Center     Atomic      Atomic             Coordinates (Angstroms)
 Number     Number       Type             X           Y           Z
 ---------------------------------------------------------------------
      1          6           0       -1.386846    1.217330    0.260778
      2          6           0       -0.590602   -0.061937    0.013005
      3          7           0       -0.949960   -0.588393   -1.321548
      4          7           0       -0.872844   -1.027621    1.065160
      5          6           0        0.915758    0.242139    0.053764
      6          8           0        1.429014    1.329662    0.036118
      7          8           0        1.644689   -0.906060    0.030151
      8          1           0       -1.135217    1.983847   -0.475573
      9          1           0       -1.166840    1.608634    1.254712
     10          1           0       -2.454659    0.993777    0.188985
     11          1           0       -0.329630   -1.356050   -1.565938
     12          1           0       -0.828705    0.127543   -2.034262
     13          1           0       -0.283829   -1.846582    0.950343
     14          1           0       -1.836136   -1.335888    0.961022
     15          1           0        2.575152   -0.637196    0.019998
 ---------------------------------------------------------------------

 SCF Done:  E(RHF) =  -377.078912293     A.U. after    8 cycles

 The electronic state is 1-A.
 Alpha  occ. eigenvalues --  -20.61799 -20.55595 -15.55942 -15.55185 -11.38811
 Alpha  occ. eigenvalues --  -11.31658 -11.21911  -1.47278  -1.37025  -1.24656
 Alpha  occ. eigenvalues --   -1.14156  -0.99707  -0.91079  -0.78374  -0.72295
 Alpha  occ. eigenvalues --   -0.70792  -0.67443  -0.65898  -0.64418  -0.62209
 Alpha  occ. eigenvalues --   -0.59578  -0.53646  -0.53274  -0.51985  -0.49584
 Alpha  occ. eigenvalues --   -0.48288  -0.42255  -0.41068
 Alpha virt. eigenvalues --    0.03310   0.04193   0.04877   0.05117   0.06781
 Alpha virt. eigenvalues --    0.06934   0.07327   0.07668   0.08159   0.10067
 Alpha virt. eigenvalues --    0.11261   0.12211   0.12745   0.14218   0.14502

 Mulliken charges:
               1
     1  C   -0.550802
     2  C    0.382858
     3  N   -0.732152
     4  N   -0.734439
     5  C    0.607224
     6  O   -0.589687
     7  O   -0.575445
     8  H    0.180961
     9  H    0.190349
    10  H    0.182828
    11  H    0.306830
    12  H    0.304577
    13  H    0.306803
    14  H    0.306926
    15  H    0.413169
 Sum of Mulliken charges =  -0.00000

 Dipole moment (field-independent basis, Debye):
    X=              0.2127    Y=             -1.7944    Z=             -1.2645  Tot=              2.2054
 Quadrupole moment (field-independent basis, Debye-Ang):
   XX=            -39.6792   YY=            -44.1161   ZZ=            -43.3336
   XY=             -4.7840   XZ=             -1.4144   YZ=             -0.6947

 Normal termination of Gaussian 09 at Fri Aug 26 05:01:14 2022.
