 Gaussian 09, Revision E.01,
 Gaussian 09:  ES64L-G09RevE.01 30-Nov-2015

 -----
 #P G4
 -----

 --------
 Frag_524
 --------
 Symbolic Z-matrix:
 Charge =  0 Multiplicity = 1

 SCF Done:  E(RB3LYP) =  -171.081257365     A.U. after   12 cycles
 SCF Done:  E(RB3LYP) =  -171.084399731     A.U. after   11 cycles
 SCF Done:  E(RB3LYP) =  -171.084630124     A.U. after   10 cycles
 SCF Done:  E(RB3LYP) =  -171.084840538     A.U. after   10 cycles
 SCF Done:  E(RB3LYP) =  -171.085303527     A.U. after   11 cycles
 SCF Done:  E(RB3LYP) =  -171.087119490     A.U. after   13 cycles
 SCF Done:  E(RB3LYP) =  -171.031004502     A.U. after   13 cycles
 SCF Done:  E(RB3LYP) =  -171.087767014     A.U. after   10 cycles
 SCF Done:  E(RB3LYP) =  -171.089031019     A.U. after   11 cycles
 SCF Done:  E(RB3LYP) =  -171.090043992     A.U. after   11 cycles
 SCF Done:  E(RB3LYP) =  -171.090658257     A.U. after    8 cycles
 SCF Done:  E(RB3LYP) =  -171.090658973     A.U. after    7 cycles
 SCF Done:  E(RB3LYP) =  -171.090659175     A.U. after    7 cycles
 Optimization completed.
    -- Stationary point found.
 Normal termination of Gaussian 09 at Fri Aug 26 13:55:16 2022.

 ----------------------------------------------------------
 #P Geom=AllCheck Guess=TCheck SCRF=Check B3LYP/GTBas3 Freq
 ----------------------------------------------------------

 Structure from the checkpoint file:  "G4.Frag_524.chk"
 --------
 Frag_524
 --------
 Charge =  0 Multiplicity = 1

 SCF Done:  E(RB3LYP) =  -171.090659175     A.U. after    1 cycles

  Exact polarizability:  26.882   0.417  23.971  -0.037   0.181  22.285
 Approx polarizability:  34.797   1.063  32.016   0.945   0.182  30.730

                      1                      2                      3
                      A                      A                      A
 Frequencies --    256.8796               374.3015               538.3760
 Red. masses --      1.1508                 1.2176                 2.4253
 Frc consts  --      0.0447                 0.1005                 0.4142
 IR Inten    --     36.4161               102.2410                39.3531

                      4                      5                      6
                      A                      A                      A
 Frequencies --    831.5248               969.3037              1010.3583
 Red. masses --      1.3030                 1.4197                 2.4795
 Frc consts  --      0.5308                 0.7859                 1.4913
 IR Inten    --    146.5992                 8.0014                44.6852

                      7                      8                      9
                      A                      A                      A
 Frequencies --   1118.4846              1216.4623              1312.5515
 Red. masses --      3.2131                 1.2360                 1.3584
 Frc consts  --      2.3683                 1.0777                 1.3788
 IR Inten    --    128.5379                 3.4246                 7.9583

                     10                     11                     12
                      A                      A                      A
 Frequencies --   1399.0556              1460.3950              1532.9823
 Red. masses --      1.2027                 1.2436                 1.0898
 Frc consts  --      1.3870                 1.5627                 1.5090
 IR Inten    --     10.8446                64.7804                 1.1140

                     13                     14                     15
                      A                      A                      A
 Frequencies --   1648.8301              2967.3419              3004.3489
 Red. masses --      1.1061                 1.0600                 1.1028
 Frc consts  --      1.7717                 5.4993                 5.8647
 IR Inten    --     31.0459                84.0788                74.3389

                     16                     17                     18
                      A                      A                      A
 Frequencies --   3501.0367              3588.4674              3789.1287
 Red. masses --      1.0489                 1.0934                 1.0649
 Frc consts  --      7.5747                 8.2954                 9.0081
 IR Inten    --      0.0997                 1.1435                18.0699

 - Thermochemistry -
 -------------------
 Temperature   298.150 Kelvin.  Pressure   1.00000 Atm.
 Atom     1 has atomic number  7 and mass  14.00307

 Molecular mass:    47.03711 amu.
 Principal axes and moments of inertia in atomic units:
                           1         2         3
     Eigenvalues --    46.35836 182.65829 208.16106
           X            0.99969   0.00933  -0.02302
           Y           -0.00909   0.99990   0.01066
           Z            0.02312  -0.01044   0.99968
 This molecule is an asymmetric top.
 Rotational symmetry number  1.
 Rotational temperatures (Kelvin)      1.86835     0.47418     0.41609
 Rotational constants (GHZ):          38.93022     9.88042     8.66993
 Zero-point vibrational energy     182549.1 (Joules/Mol)
                                   43.63029 (Kcal/Mol)
 Warning -- explicit consideration of   3 degrees of freedom as
           vibrations may cause significant error
 Vibrational temperatures:    369.59   538.54   774.60  1196.38  1394.61
          (Kelvin)           1453.68  1609.25  1750.22  1888.47  2012.93
                             2101.18  2205.62  2372.30  4269.34  4322.58
                             5037.20  5163.00  5451.70

 Zero-point correction=                           0.069529 (Hartree/Particle)
 Thermal correction to Energy=                    0.073588
 Thermal correction to Enthalpy=                  0.074532
 Thermal correction to Gibbs Free Energy=         0.044396
 Sum of electronic and zero-point Energies=           -171.021130
 Sum of electronic and thermal Energies=              -171.017072
 Sum of electronic and thermal Enthalpies=            -171.016127
 Sum of electronic and thermal Free Energies=         -171.046263

                     E (Thermal)             CV                S
                      KCal/Mol        Cal/Mol-Kelvin    Cal/Mol-Kelvin
 Total                   46.177             12.685             63.426
 Electronic               0.000              0.000              0.000
 Translational            0.889              2.981             37.470
 Rotational               0.889              2.981             22.093
 Vibrational             44.399              6.724              3.863
 Vibration     1          0.666              1.751              1.683
 Vibration     2          0.745              1.525              1.062
 Vibration     3          0.893              1.165              0.569

 Optimization completed.
    -- Stationary point found.
 Normal termination of Gaussian 09 at Fri Aug 26 13:55:25 2022.

 -----------------------------------------------------------------
 #P Geom=AllCheck Guess=TCheck SCRF=Check CCSD(T,E4T,FrzG4)/GTBas1
 -----------------------------------------------------------------

 Structure from the checkpoint file:  "G4.Frag_524.chk"
 --------
 Frag_524
 --------
 Charge =  0 Multiplicity = 1

 SCF Done:  E(RHF) =  -170.066115812     A.U. after   12 cycles
 E2 =    -0.4739474948D+00 EUMP2 =    -0.17054006330659D+03
 CCSD(T)
 CCSD(T)= -0.17057921532D+03
 170.5785037\MP4SDQ=-170.5676755\CCSD=-170.5682657\CCSD(T)=-170.5792153
 Normal termination of Gaussian 09 at Fri Aug 26 13:55:35 2022.

 ---------------------------------------------------------
 #P Geom=AllCheck Guess=TCheck SCRF=Check MP4=FrzG4/GTBas2
 ---------------------------------------------------------

 Structure from the checkpoint file:  "G4.Frag_524.chk"
 --------
 Frag_524
 --------
 Charge =  0 Multiplicity = 1

 SCF Done:  E(RHF) =  -170.074774849     A.U. after   11 cycles
 E2 =    -0.4836988713D+00 EUMP2 =    -0.17055847372016D+03
 Normal termination of Gaussian 09 at Fri Aug 26 13:55:38 2022.

 ---------------------------------------------------------
 #P Geom=AllCheck Guess=TCheck SCRF=Check MP4=FrzG4/GTBas3
 ---------------------------------------------------------

 Structure from the checkpoint file:  "G4.Frag_524.chk"
 --------
 Frag_524
 --------
 Charge =  0 Multiplicity = 1

 SCF Done:  E(RHF) =  -170.093901611     A.U. after   11 cycles
 E2 =    -0.5917541234D+00 EUMP2 =    -0.17068565573402D+03
 Normal termination of Gaussian 09 at Fri Aug 26 13:55:50 2022.

 -----------------------------------------------------------
 #P Geom=AllCheck Guess=TCheck SCRF=Check MP2=Full/GTLargeXP
 -----------------------------------------------------------

 Structure from the checkpoint file:  "G4.Frag_524.chk"
 --------
 Frag_524
 --------
 Charge =  0 Multiplicity = 1

 SCF Done:  E(RHF) =  -170.145248981     A.U. after   11 cycles
 E2 =    -0.7703829175D+00 EUMP2 =    -0.17091563189875D+03
 Normal termination of Gaussian 09 at Fri Aug 26 13:55:59 2022.
 SCF Done:  E(RHF) =  -170.159435619     A.U. after    8 cycles
 Normal termination of Gaussian 09 at Fri Aug 26 13:56:10 2022.

                         Standard orientation:
 ---------------------------------------------------------------------
 Center     Atomic      Atomic             Coordinates (Angstroms)
 Number     Number       Type             X           Y           Z
 ---------------------------------------------------------------------
      1          7           0        1.129152   -0.318413    0.064034
      2          6           0       -0.042718    0.537677   -0.015340
      3          8           0       -1.213641   -0.242042   -0.056542
      4          1           0        1.333705   -0.731804   -0.840297
      5          1           0        1.946400    0.207732    0.354901
      6          1           0       -0.093601    1.170939   -0.913736
      7          1           0       -0.018005    1.202295    0.863843
      8          1           0       -1.107133   -0.909993    0.631427
 ---------------------------------------------------------------------

 SCF Done:  E(RHF) =  -170.162644932     A.U. after    8 cycles

 The electronic state is 1-A.
 Alpha  occ. eigenvalues --  -20.55284 -15.55145 -11.30539  -1.36845  -1.17368
 Alpha  occ. eigenvalues --   -0.88466  -0.71162  -0.67319  -0.61523  -0.59419
 Alpha  occ. eigenvalues --   -0.52121  -0.45940  -0.41206
 Alpha virt. eigenvalues --    0.04428   0.05358   0.05464   0.06338   0.09887
 Alpha virt. eigenvalues --    0.10198   0.10598   0.13309   0.14036   0.17437
 Alpha virt. eigenvalues --    0.19511   0.19645   0.21468   0.21798   0.23068

 Mulliken charges:
               1
     1  N   -0.667086
     2  C   -0.001334
     3  O   -0.563634
     4  H    0.290158
     5  H    0.285741
     6  H    0.148616
     7  H    0.134718
     8  H    0.372821
 Sum of Mulliken charges =  -0.00000

 Dipole moment (field-independent basis, Debye):
    X=              1.9095    Y=              0.6905    Z=              0.1794  Tot=              2.0384
 Quadrupole moment (field-independent basis, Debye-Ang):
   XX=            -19.9941   YY=            -18.4795   ZZ=            -18.0854
   XY=              1.6776   XZ=             -2.4069   YZ=              0.2415

 Normal termination of Gaussian 09 at Fri Aug 26 13:57:14 2022.
