 Gaussian 09, Revision E.01,
 Gaussian 09:  ES64L-G09RevE.01 30-Nov-2015

 -----
 #P G4
 -----

 --------
 Frag_692
 --------
 Symbolic Z-matrix:
 Charge =  0 Multiplicity = 1

 SCF Done:  E(RB3LYP) =  -247.207657215     A.U. after   16 cycles
 SCF Done:  E(RB3LYP) =  -247.211714103     A.U. after   14 cycles
 SCF Done:  E(RB3LYP) =  -247.211824176     A.U. after   13 cycles
 SCF Done:  E(RB3LYP) =  -247.211948179     A.U. after   14 cycles
 SCF Done:  E(RB3LYP) =  -247.212059468     A.U. after   16 cycles
 SCF Done:  E(RB3LYP) =  -247.212257253     A.U. after   13 cycles
 SCF Done:  E(RB3LYP) =  -247.212649187     A.U. after   13 cycles
 SCF Done:  E(RB3LYP) =  -247.212778382     A.U. after   13 cycles
 SCF Done:  E(RB3LYP) =  -247.212826317     A.U. after   13 cycles
 SCF Done:  E(RB3LYP) =  -247.212846601     A.U. after   12 cycles
 SCF Done:  E(RB3LYP) =  -247.212858275     A.U. after   12 cycles
 SCF Done:  E(RB3LYP) =  -247.212860719     A.U. after   11 cycles
 SCF Done:  E(RB3LYP) =  -247.212861091     A.U. after   10 cycles
 Optimization completed.
    -- Stationary point found.
 Normal termination of Gaussian 09 at Tue Aug 30 09:58:36 2022.

 ----------------------------------------------------------
 #P Geom=AllCheck Guess=TCheck SCRF=Check B3LYP/GTBas3 Freq
 ----------------------------------------------------------

 Structure from the checkpoint file:  "G4.Frag_692.chk"
 --------
 Frag_692
 --------
 Charge =  0 Multiplicity = 1

 SCF Done:  E(RB3LYP) =  -247.212861091     A.U. after    1 cycles

  Exact polarizability:  50.805  -1.303  52.318   0.176  -0.087  26.388
 Approx polarizability:  77.987  -5.569  86.028   1.710  -0.086  40.012

                      1                      2                      3
                      A                      A                      A
 Frequencies --     83.2977               119.5974               325.2077
 Red. masses --      8.0959                 1.0603                 3.6373
 Frc consts  --      0.0331                 0.0089                 0.2266
 IR Inten    --      0.9960                 0.5115                 1.5468

                      4                      5                      6
                      A                      A                      A
 Frequencies --    378.5296               418.0145               600.6099
 Red. masses --      2.4416                 2.9153                 3.1879
 Frc consts  --      0.2061                 0.3001                 0.6776
 IR Inten    --      1.2501                 1.0031                 1.7766

                      7                      8                      9
                      A                      A                      A
 Frequencies --    701.9279               840.2731               920.2228
 Red. masses --      1.1715                 4.4264                 2.0108
 Frc consts  --      0.3401                 1.8414                 1.0032
 IR Inten    --      0.8578                51.1678                15.2361

                     10                     11                     12
                      A                      A                      A
 Frequencies --    985.7451              1020.9088              1068.3045
 Red. masses --      1.3484                 1.4972                 1.4831
 Frc consts  --      0.7720                 0.9194                 0.9973
 IR Inten    --     27.1738                 6.6654                 1.8097

                     13                     14                     15
                      A                      A                      A
 Frequencies --   1241.1758              1399.5900              1429.2953
 Red. masses --      2.6423                 1.1645                 1.2776
 Frc consts  --      2.3982                 1.3440                 1.5377
 IR Inten    --     12.5042                 5.6629                 6.2003

                     16                     17                     18
                      A                      A                      A
 Frequencies --   1471.6392              1485.6450              1597.0679
 Red. masses --      1.0433                 1.0509                 9.9804
 Frc consts  --      1.3313                 1.3666                14.9984
 IR Inten    --      6.0278                14.9484               131.0749

                     19                     20                     21
                      A                      A                      A
 Frequencies --   1719.4079              3036.7853              3091.4138
 Red. masses --      6.8969                 1.0378                 1.0983
 Frc consts  --     12.0133                 5.6390                 6.1841
 IR Inten    --      3.9978                11.0969                10.1763

                     22                     23                     24
                      A                      A                      A
 Frequencies --   3133.0749              3160.5102              3253.3781
 Red. masses --      1.1011                 1.0588                 1.1164
 Frc consts  --      6.3683                 6.2310                 6.9623
 IR Inten    --      9.2297                 4.5731                 0.5919

 - Thermochemistry -
 -------------------
 Temperature   298.150 Kelvin.  Pressure   1.00000 Atm.
 Atom     1 has atomic number  6 and mass  12.00000

 Molecular mass:    71.03711 amu.
 Principal axes and moments of inertia in atomic units:
                           1         2         3
     Eigenvalues --   187.29068 410.96947 583.93308
           X            0.99857   0.05341  -0.00327
           Y           -0.05342   0.99856  -0.00466
           Z            0.00301   0.00483   0.99998
 This molecule is an asymmetric top.
 Rotational symmetry number  1.
 Rotational temperatures (Kelvin)      0.46246     0.21075     0.14833
 Rotational constants (GHZ):           9.63604     4.39142     3.09066
 Zero-point vibrational energy     200264.6 (Joules/Mol)
                                   47.86438 (Kcal/Mol)
 Warning -- explicit consideration of   6 degrees of freedom as
           vibrations may cause significant error
 Vibrational temperatures:    119.85   172.07   467.90   544.62   601.43
          (Kelvin)            864.14  1009.92  1208.96  1323.99  1418.27
                             1468.86  1537.05  1785.77  2013.70  2056.43
                             2117.36  2137.51  2297.82  2473.84  4369.25
                             4447.85  4507.79  4547.26  4680.88

 Zero-point correction=                           0.076277 (Hartree/Particle)
 Thermal correction to Energy=                    0.082121
 Thermal correction to Enthalpy=                  0.083065
 Thermal correction to Gibbs Free Energy=         0.047156
 Sum of electronic and zero-point Energies=           -247.136584
 Sum of electronic and thermal Energies=              -247.130740
 Sum of electronic and thermal Enthalpies=            -247.129796
 Sum of electronic and thermal Free Energies=         -247.165705

                     E (Thermal)             CV                S
                      KCal/Mol        Cal/Mol-Kelvin    Cal/Mol-Kelvin
 Total                   51.532             19.030             75.577
 Electronic               0.000              0.000              0.000
 Translational            0.889              2.981             38.699
 Rotational               0.889              2.981             25.311
 Vibrational             49.754             13.068             11.567
 Vibration     1          0.600              1.961              3.812
 Vibration     2          0.609              1.933              3.107
 Vibration     3          0.709              1.625              1.284
 Vibration     4          0.749              1.516              1.045
 Vibration     5          0.781              1.431              0.899
 Vibration     6          0.959              1.031              0.449

 Optimization completed.
    -- Stationary point found.
 Normal termination of Gaussian 09 at Tue Aug 30 09:58:55 2022.

 -----------------------------------------------------------------
 #P Geom=AllCheck Guess=TCheck SCRF=Check CCSD(T,E4T,FrzG4)/GTBas1
 -----------------------------------------------------------------

 Structure from the checkpoint file:  "G4.Frag_692.chk"
 --------
 Frag_692
 --------
 Charge =  0 Multiplicity = 1

 SCF Done:  E(RHF) =  -245.708591722     A.U. after   16 cycles
 E2 =    -0.7230127677D+00 EUMP2 =    -0.24643160448939D+03
 CCSD(T)
 CCSD(T)= -0.24649661702D+03
 Normal termination of Gaussian 09 at Tue Aug 30 09:59:57 2022.

 ---------------------------------------------------------
 #P Geom=AllCheck Guess=TCheck SCRF=Check MP4=FrzG4/GTBas2
 ---------------------------------------------------------

 Structure from the checkpoint file:  "G4.Frag_692.chk"
 --------
 Frag_692
 --------
 Charge =  0 Multiplicity = 1

 SCF Done:  E(RHF) =  -245.716009655     A.U. after   15 cycles
 E2 =    -0.7320483086D+00 EUMP2 =    -0.24644805796357D+03
 Normal termination of Gaussian 09 at Tue Aug 30 10:00:10 2022.

 ---------------------------------------------------------
 #P Geom=AllCheck Guess=TCheck SCRF=Check MP4=FrzG4/GTBas3
 ---------------------------------------------------------

 Structure from the checkpoint file:  "G4.Frag_692.chk"
 --------
 Frag_692
 --------
 Charge =  0 Multiplicity = 1

 SCF Done:  E(RHF) =  -245.734686019     A.U. after   15 cycles
 E2 =    -0.8742072995D+00 EUMP2 =    -0.24660889331816D+03
 Normal termination of Gaussian 09 at Tue Aug 30 10:01:11 2022.

 -----------------------------------------------------------
 #P Geom=AllCheck Guess=TCheck SCRF=Check MP2=Full/GTLargeXP
 -----------------------------------------------------------

 Structure from the checkpoint file:  "G4.Frag_692.chk"
 --------
 Frag_692
 --------
 Charge =  0 Multiplicity = 1

 SCF Done:  E(RHF) =  -245.795840219     A.U. after   12 cycles
 E2 =    -0.1148307456D+01 EUMP2 =    -0.24694414767513D+03
 Normal termination of Gaussian 09 at Tue Aug 30 10:01:53 2022.
 SCF Done:  E(RHF) =  -245.815860702     A.U. after   13 cycles
 Normal termination of Gaussian 09 at Tue Aug 30 10:02:58 2022.

                         Standard orientation:
 ---------------------------------------------------------------------
 Center     Atomic      Atomic             Coordinates (Angstroms)
 Number     Number       Type             X           Y           Z
 ---------------------------------------------------------------------
      1          6           0       -0.243346    1.453124   -0.019505
      2          6           0       -0.389723    0.127881   -0.003508
      3          6           0       -1.675056   -0.639441    0.038565
      4          7           0        0.776990   -0.749511   -0.137358
      5          8           0        1.845190   -0.232180    0.097598
      6          1           0        0.751464    1.881141   -0.075682
      7          1           0       -1.092910    2.125130    0.013513
      8          1           0       -1.723893   -1.271631    0.932616
      9          1           0       -1.748639   -1.309770   -0.824348
     10          1           0       -2.537719    0.029764    0.041307
 ---------------------------------------------------------------------

 SCF Done:  E(RHF) =  -245.819798407     A.U. after    8 cycles

 The electronic state is 1-A.
 Alpha  occ. eigenvalues --  -20.62500 -15.69997 -11.28094 -11.25437 -11.24056
 Alpha  occ. eigenvalues --   -1.51145  -1.12875  -0.96665  -0.95933  -0.76296
 Alpha  occ. eigenvalues --   -0.69483  -0.67681  -0.61856  -0.59604  -0.56922
 Alpha  occ. eigenvalues --   -0.56413  -0.54059  -0.40618  -0.38466
 Alpha virt. eigenvalues --    0.03646   0.04155   0.04287   0.05724   0.06088
 Alpha virt. eigenvalues --    0.06890   0.07453   0.08411   0.09183   0.09525
 Alpha virt. eigenvalues --    0.10504   0.12513   0.13865   0.14302   0.15672

 Mulliken charges:
               1
     1  C   -0.393527
     2  C    0.168144
     3  C   -0.500607
     4  N    0.029909
     5  O   -0.276933
     6  H    0.224407
     7  H    0.200297
     8  H    0.186359
     9  H    0.191679
    10  H    0.170273
 Sum of Mulliken charges =  -0.00000

 Dipole moment (field-independent basis, Debye):
    X=             -2.6895    Y=              1.2392    Z=              0.0304  Tot=              2.9614
 Quadrupole moment (field-independent basis, Debye-Ang):
   XX=            -32.0332   YY=            -28.6991   ZZ=            -30.6243
   XY=              1.3026   XZ=             -0.3087   YZ=             -0.5893

 Normal termination of Gaussian 09 at Tue Aug 30 10:07:42 2022.
