 Gaussian 09, Revision E.01,
 Gaussian 09:  ES64L-G09RevE.01 30-Nov-2015

 -----
 #P G4
 -----

 --------
 Frag_539
 --------
 Symbolic Z-matrix:
 Charge =  0 Multiplicity = 1

 SCF Done:  E(RB3LYP) =  -348.225594990     A.U. after   12 cycles
 SCF Done:  E(RB3LYP) =  -348.231924200     A.U. after   10 cycles
 SCF Done:  E(RB3LYP) =  -348.232708847     A.U. after   10 cycles
 SCF Done:  E(RB3LYP) =  -348.233107082     A.U. after   10 cycles
 SCF Done:  E(RB3LYP) =  -348.233032133     A.U. after   10 cycles
 SCF Done:  E(RB3LYP) =  -348.233206535     A.U. after   10 cycles
 SCF Done:  E(RB3LYP) =  -348.233222878     A.U. after    8 cycles
 SCF Done:  E(RB3LYP) =  -348.233228843     A.U. after    7 cycles
 SCF Done:  E(RB3LYP) =  -348.233232804     A.U. after    8 cycles
 SCF Done:  E(RB3LYP) =  -348.233236610     A.U. after    8 cycles
 SCF Done:  E(RB3LYP) =  -348.233237617     A.U. after    7 cycles
 Optimization completed.
    -- Stationary point found.
 Normal termination of Gaussian 09 at Fri Aug 26 12:00:35 2022.

 ----------------------------------------------------------
 #P Geom=AllCheck Guess=TCheck SCRF=Check B3LYP/GTBas3 Freq
 ----------------------------------------------------------

 Structure from the checkpoint file:  "G4.Frag_539.chk"
 --------
 Frag_539
 --------
 Charge =  0 Multiplicity = 1

 SCF Done:  E(RB3LYP) =  -348.233237617     A.U. after    1 cycles

  Exact polarizability:  67.442  -0.982  62.821  -0.982  -0.441  59.139
 Approx polarizability:  89.547  -1.274  89.580  -0.181   0.243  83.991

                      1                      2                      3
                      A                      A                      A
 Frequencies --     97.0226               195.0760               234.8111
 Red. masses --      2.8028                 1.0355                 1.3100
 Frc consts  --      0.0155                 0.0232                 0.0426
 IR Inten    --      1.1618                 0.1407                32.8496

                      4                      5                      6
                      A                      A                      A
 Frequencies --    236.6025               251.5484               261.4659
 Red. masses --      1.1310                 1.1705                 1.9390
 Frc consts  --      0.0373                 0.0436                 0.0781
 IR Inten    --     31.9090                 3.9026                12.7903

                      7                      8                      9
                      A                      A                      A
 Frequencies --    277.7286               351.1026               357.8886
 Red. masses --      2.1714                 2.3479                 3.3089
 Frc consts  --      0.0987                 0.1705                 0.2497
 IR Inten    --      7.1004                 1.6803                13.2290

                     10                     11                     12
                      A                      A                      A
 Frequencies --    414.0283               445.5363               472.4488
 Red. masses --      3.0516                 1.8803                 1.3921
 Frc consts  --      0.3082                 0.2199                 0.1831
 IR Inten    --      1.5140                 9.1500                81.6679

                     13                     14                     15
                      A                      A                      A
 Frequencies --    506.2070               568.5314               719.6178
 Red. masses --      3.2287                 2.8823                 2.8416
 Frc consts  --      0.4875                 0.5489                 0.8670
 IR Inten    --     14.0707                19.5845                 1.7682

                     16                     17                     18
                      A                      A                      A
 Frequencies --    868.6642               913.0977               929.1212
 Red. masses --      2.2143                 2.0242                 1.5429
 Frc consts  --      0.9845                 0.9944                 0.7847
 IR Inten    --      2.1368                25.5472                 1.3110

                     19                     20                     21
                      A                      A                      A
 Frequencies --    962.4139              1002.4172              1037.4054
 Red. masses --      1.9534                 1.3860                 1.4678
 Frc consts  --      1.0660                 0.8205                 0.9307
 IR Inten    --     24.0931                 7.9893                10.6955

                     22                     23                     24
                      A                      A                      A
 Frequencies --   1102.2197              1108.9749              1156.1419
 Red. masses --      3.0350                 1.9269                 1.8228
 Frc consts  --      2.1724                 1.3962                 1.4355
 IR Inten    --     27.9483                75.2658                18.8119

                     25                     26                     27
                      A                      A                      A
 Frequencies --   1192.6175              1213.6991              1290.6936
 Red. masses --      1.4702                 2.6406                 1.7525
 Frc consts  --      1.2321                 2.2918                 1.7201
 IR Inten    --     34.6195                54.1903                17.1169

                     28                     29                     30
                      A                      A                      A
 Frequencies --   1363.1221              1386.6578              1392.2105
 Red. masses --      1.3478                 1.2417                 1.2759
 Frc consts  --      1.4755                 1.4067                 1.4570
 IR Inten    --     19.4909                27.6286                12.0687

                     31                     32                     33
                      A                      A                      A
 Frequencies --   1405.1056              1414.9002              1424.9264
 Red. masses --      1.3258                 1.5038                 1.3020
 Frc consts  --      1.5423                 1.7737                 1.5576
 IR Inten    --     12.3644                42.1490                21.4579

                     34                     35                     36
                      A                      A                      A
 Frequencies --   1477.6416              1486.1912              1493.9940
 Red. masses --      1.0494                 1.0593                 1.0740
 Frc consts  --      1.3500                 1.3785                 1.4124
 IR Inten    --      1.8602                 3.8004                 3.6576

                     37                     38                     39
                      A                      A                      A
 Frequencies --   1499.1611              1504.3210              1510.7624
 Red. masses --      1.0498                 1.0665                 1.0849
 Frc consts  --      1.3901                 1.4219                 1.4590
 IR Inten    --      1.9755                 5.9870                 1.3238

                     40                     41                     42
                      A                      A                      A
 Frequencies --   2985.7589              3036.5511              3040.6450
 Red. masses --      1.0835                 1.0382                 1.0351
 Frc consts  --      5.6912                 5.6404                 5.6385
 IR Inten    --     42.8269                18.0582                17.9268

                     43                     44                     45
                      A                      A                      A
 Frequencies --   3046.5008              3100.2059              3111.2354
 Red. masses --      1.0360                 1.0972                 1.1003
 Frc consts  --      5.6650                 6.2131                 6.2755
 IR Inten    --     11.0291                25.1533                15.0465

                     46                     47                     48
                      A                      A                      A
 Frequencies --   3115.7222              3124.4537              3127.0492
 Red. masses --      1.1013                 1.1012                 1.1022
 Frc consts  --      6.2991                 6.3336                 6.3501
 IR Inten    --     23.6045                31.5238                24.1475

                     49                     50                     51
                      A                      A                      A
 Frequencies --   3129.0152              3772.5865              3835.3061
 Red. masses --      1.1016                 1.0649                 1.0666
 Frc consts  --      6.3544                 8.9298                 9.2436
 IR Inten    --     17.2468                39.9353                25.7372

 - Thermochemistry -
 -------------------
 Temperature   298.150 Kelvin.  Pressure   1.00000 Atm.
 Atom     1 has atomic number  6 and mass  12.00000

 Molecular mass:   104.08373 amu.
 Principal axes and moments of inertia in atomic units:
                           1         2         3
     Eigenvalues --   568.89377 795.00265 948.19471
           X            0.99975  -0.00657  -0.02117
           Y            0.00594   0.99954  -0.02974
           Z            0.02136   0.02961   0.99933
 This molecule is an asymmetric top.
 Rotational symmetry number  1.
 Warning -- assumption of classical behavior for rotation
           may cause significant error
 Rotational temperatures (Kelvin)      0.15225     0.10895     0.09135
 Rotational constants (GHZ):           3.17237     2.27011     1.90334
 Zero-point vibrational energy     442325.8 (Joules/Mol)
                                  105.71841 (Kcal/Mol)
 Warning -- explicit consideration of  14 degrees of freedom as
           vibrations may cause significant error
 Vibrational temperatures:    139.59   280.67   337.84   340.42   361.92
          (Kelvin)            376.19   399.59   505.16   514.92   595.69
                              641.03   679.75   728.32   817.99  1035.37
                             1249.81  1313.74  1336.80  1384.70  1442.25
                             1492.59  1585.85  1595.57  1663.43  1715.91
                             1746.24  1857.02  1961.23  1995.09  2003.08
                             2021.63  2035.72  2050.15  2125.99  2138.30
                             2149.52  2156.96  2164.38  2173.65  4295.84
                             4368.91  4374.80  4383.23  4460.50  4476.37
                             4482.82  4495.39  4499.12  4501.95  5427.90
                             5518.14

 Zero-point correction=                           0.168473 (Hartree/Particle)
 Thermal correction to Energy=                    0.177516
 Thermal correction to Enthalpy=                  0.178461
 Thermal correction to Gibbs Free Energy=         0.136169
 Sum of electronic and zero-point Energies=           -348.064765
 Sum of electronic and thermal Energies=              -348.055721
 Sum of electronic and thermal Enthalpies=            -348.054777
 Sum of electronic and thermal Free Energies=         -348.097069

                     E (Thermal)             CV                S
                      KCal/Mol        Cal/Mol-Kelvin    Cal/Mol-Kelvin
 Total                  111.393             33.996             89.010
 Electronic               0.000              0.000              0.000
 Translational            0.889              2.981             39.837
 Rotational               0.889              2.981             27.552
 Vibrational            109.616             28.035             21.620
 Vibration     1          0.603              1.951              3.513
 Vibration     2          0.636              1.847              2.179
 Vibration     3          0.655              1.788              1.842
 Vibration     4          0.655              1.785              1.828
 Vibration     5          0.664              1.760              1.720
 Vibration     6          0.669              1.743              1.652
 Vibration     7          0.679              1.715              1.548
 Vibration     8          0.728              1.573              1.161
 Vibration     9          0.733              1.559              1.131
 Vibration    10          0.778              1.440              0.912
 Vibration    11          0.805              1.371              0.809
 Vibration    12          0.829              1.311              0.731
 Vibration    13          0.861              1.236              0.643
 Vibration    14          0.925              1.099              0.507

 Optimization completed.
    -- Stationary point found.
 Normal termination of Gaussian 09 at Fri Aug 26 12:01:35 2022.

 -----------------------------------------------------------------
 #P Geom=AllCheck Guess=TCheck SCRF=Check CCSD(T,E4T,FrzG4)/GTBas1
 -----------------------------------------------------------------

 Structure from the checkpoint file:  "G4.Frag_539.chk"
 --------
 Frag_539
 --------
 Charge =  0 Multiplicity = 1

 SCF Done:  E(RHF) =  -346.038144977     A.U. after   11 cycles
 E2 =    -0.1021943039D+01 EUMP2 =    -0.34706008801651D+03
 CCSD(T)
 CCSD(T)= -0.34715672836D+03
 7.1561275\MP4SDQ=-347.1263195\CCSD=-347.1268734\CCSD(T)=-347.1567284\R
 Normal termination of Gaussian 09 at Fri Aug 26 12:06:34 2022.

 ---------------------------------------------------------
 #P Geom=AllCheck Guess=TCheck SCRF=Check MP4=FrzG4/GTBas2
 ---------------------------------------------------------

 Structure from the checkpoint file:  "G4.Frag_539.chk"
 --------
 Frag_539
 --------
 Charge =  0 Multiplicity = 1

 SCF Done:  E(RHF) =  -346.048356900     A.U. after   11 cycles
 E2 =    -0.1038537875D+01 EUMP2 =    -0.34708689477479D+03
 Normal termination of Gaussian 09 at Fri Aug 26 12:08:08 2022.

 ---------------------------------------------------------
 #P Geom=AllCheck Guess=TCheck SCRF=Check MP4=FrzG4/GTBas3
 ---------------------------------------------------------

 Structure from the checkpoint file:  "G4.Frag_539.chk"
 --------
 Frag_539
 --------
 Charge =  0 Multiplicity = 1

 SCF Done:  E(RHF) =  -346.086078937     A.U. after   10 cycles
 E2 =    -0.1277216987D+01 EUMP2 =    -0.34736329592363D+03
 Normal termination of Gaussian 09 at Fri Aug 26 12:22:21 2022.

 -----------------------------------------------------------
 #P Geom=AllCheck Guess=TCheck SCRF=Check MP2=Full/GTLargeXP
 -----------------------------------------------------------

 Structure from the checkpoint file:  "G4.Frag_539.chk"
 --------
 Frag_539
 --------
 Charge =  0 Multiplicity = 1

 SCF Done:  E(RHF) =  -346.174392372     A.U. after   11 cycles
 E2 =    -0.1671901842D+01 EUMP2 =    -0.34784629421392D+03
 Normal termination of Gaussian 09 at Fri Aug 26 12:26:56 2022.
 SCF Done:  E(RHF) =  -346.202329460     A.U. after    8 cycles
 Normal termination of Gaussian 09 at Fri Aug 26 12:31:02 2022.

                         Standard orientation:
 ---------------------------------------------------------------------
 Center     Atomic      Atomic             Coordinates (Angstroms)
 Number     Number       Type             X           Y           Z
 ---------------------------------------------------------------------
      1          6           0        1.671147    1.192935    0.083859
      2          6           0        0.842625    0.025939   -0.447890
      3          8           0        1.387114   -1.226403   -0.006465
      4          6           0       -0.644306   -0.008835   -0.016003
      5          6           0       -0.797903   -0.061141    1.513123
      6          6           0       -1.422988    1.165363   -0.609491
      7          8           0       -1.217871   -1.183268   -0.591896
      8          1           0        2.696796    1.132721   -0.297632
      9          1           0        1.259614    2.154029   -0.237318
     10          1           0        1.718147    1.176476    1.175748
     11          1           0        0.840206    0.051135   -1.548222
     12          1           0        2.245055   -1.348951   -0.422536
     13          1           0       -1.848469   -0.235122    1.760168
     14          1           0       -0.202931   -0.878355    1.929153
     15          1           0       -0.482773    0.871451    1.991873
     16          1           0       -2.489337    1.024760   -0.412385
     17          1           0       -1.117092    2.119340   -0.172001
     18          1           0       -1.285844    1.212654   -1.694073
     19          1           0       -0.578764   -1.888338   -0.427479
 ---------------------------------------------------------------------

 SCF Done:  E(RHF) =  -346.208462769     A.U. after    8 cycles

 The electronic state is 1-A.
 Alpha  occ. eigenvalues --  -20.56520 -20.53699 -11.28537 -11.28181 -11.22454
 Alpha  occ. eigenvalues --  -11.21084 -11.20588  -1.37983  -1.34099  -1.06585
 Alpha  occ. eigenvalues --   -0.99194  -0.93480  -0.87370  -0.75596  -0.71425
 Alpha  occ. eigenvalues --   -0.67269  -0.63355  -0.61161  -0.58644  -0.57462
 Alpha  occ. eigenvalues --   -0.55233  -0.54087  -0.53174  -0.51624  -0.51365
 Alpha  occ. eigenvalues --   -0.49762  -0.46115  -0.45213  -0.42205
 Alpha virt. eigenvalues --    0.03004   0.03940   0.04348   0.04559   0.06537
 Alpha virt. eigenvalues --    0.06752   0.06981   0.07217   0.07292   0.09464
 Alpha virt. eigenvalues --    0.09611   0.09777   0.09869   0.10622   0.11570

 Mulliken charges:
               1
     1  C   -0.557127
     2  C    0.079361
     3  O   -0.623244
     4  C    0.436391
     5  C   -0.611883
     6  C   -0.577126
     7  O   -0.642464
     8  H    0.156701
     9  H    0.175952
    10  H    0.179645
    11  H    0.158914
    12  H    0.373314
    13  H    0.184866
    14  H    0.193019
    15  H    0.165679
    16  H    0.186418
    17  H    0.167511
    18  H    0.163358
    19  H    0.390714
 Sum of Mulliken charges =  -0.00000

 Dipole moment (field-independent basis, Debye):
    X=              2.4432    Y=              1.3435    Z=             -0.1860  Tot=              2.7944
 Quadrupole moment (field-independent basis, Debye-Ang):
   XX=            -43.8142   YY=            -45.0007   ZZ=            -45.8241
   XY=             -2.9779   XZ=             -3.9085   YZ=              0.1731

 Normal termination of Gaussian 09 at Fri Aug 26 12:45:20 2022.
