 Gaussian 09, Revision E.01,
 Gaussian 09:  ES64L-G09RevE.01 30-Nov-2015

 -----
 #P G4
 -----

 --------
 Frag_493
 --------
 Symbolic Z-matrix:
 Charge =  0 Multiplicity = 1

 SCF Done:  E(RB3LYP) =  -287.801876857     A.U. after   13 cycles
 SCF Done:  E(RB3LYP) =  -287.811062230     A.U. after   12 cycles
 SCF Done:  E(RB3LYP) =  -287.811354545     A.U. after   10 cycles
 SCF Done:  E(RB3LYP) =  -287.811689004     A.U. after   11 cycles
 SCF Done:  E(RB3LYP) =  -287.812307815     A.U. after   12 cycles
 SCF Done:  E(RB3LYP) =  -287.812607868     A.U. after   12 cycles
 SCF Done:  E(RB3LYP) =  -287.814029190     A.U. after   11 cycles
 SCF Done:  E(RB3LYP) =  -287.815860276     A.U. after   11 cycles
 SCF Done:  E(RB3LYP) =  -287.815484112     A.U. after   11 cycles
 SCF Done:  E(RB3LYP) =  -287.816344014     A.U. after    9 cycles
 SCF Done:  E(RB3LYP) =  -287.818721706     A.U. after   10 cycles
 SCF Done:  E(RB3LYP) =  -287.818725458     A.U. after    9 cycles
 SCF Done:  E(RB3LYP) =  -287.818725792     A.U. after    7 cycles
 Optimization completed.
    -- Stationary point found.
 Normal termination of Gaussian 09 at Fri Aug 26 07:38:23 2022.

 ----------------------------------------------------------
 #P Geom=AllCheck Guess=TCheck SCRF=Check B3LYP/GTBas3 Freq
 ----------------------------------------------------------

 Structure from the checkpoint file:  "G4.Frag_493.chk"
 --------
 Frag_493
 --------
 Charge =  0 Multiplicity = 1

 SCF Done:  E(RB3LYP) =  -287.818725792     A.U. after    1 cycles

  Exact polarizability:  62.845   5.110  57.383   1.925   6.652  45.386
 Approx polarizability:  85.679  13.576  87.602   3.725  12.423  65.441

                      1                      2                      3
                      A                      A                      A
 Frequencies --     71.3117               214.3914               228.4160
 Red. masses --      3.5007                 1.1061                 1.6260
 Frc consts  --      0.0105                 0.0300                 0.0500
 IR Inten    --      2.2373                 0.7553                30.4753

                      4                      5                      6
                      A                      A                      A
 Frequencies --    281.5276               304.3633               368.0532
 Red. masses --      1.9671                 1.7467                 2.5372
 Frc consts  --      0.0919                 0.0953                 0.2025
 IR Inten    --     47.4828                23.5503                 2.6689

                      7                      8                      9
                      A                      A                      A
 Frequencies --    436.2930               454.9138               530.7136
 Red. masses --      1.3524                 1.8120                 1.5156
 Frc consts  --      0.1517                 0.2209                 0.2515
 IR Inten    --     29.9199                43.5158               172.8067

                     10                     11                     12
                      A                      A                      A
 Frequencies --    604.4825               651.5195               722.9373
 Red. masses --      2.4263                 2.4657                 1.1759
 Frc consts  --      0.5224                 0.6167                 0.3621
 IR Inten    --     41.6041                 3.2509                 3.6552

                     13                     14                     15
                      A                      A                      A
 Frequencies --    786.6721               803.9360               933.6636
 Red. masses --      2.3116                 1.5454                 2.1150
 Frc consts  --      0.8429                 0.5885                 1.0863
 IR Inten    --      2.4794                51.8320                 9.1846

                     16                     17                     18
                      A                      A                      A
 Frequencies --    991.8308              1017.0083              1073.3249
 Red. masses --      1.5744                 2.0338                 1.7352
 Frc consts  --      0.9125                 1.2394                 1.1778
 IR Inten    --     11.2975                48.0608                19.9192

                     19                     20                     21
                      A                      A                      A
 Frequencies --   1134.4052              1140.2683              1282.0856
 Red. masses --      2.1911                 1.5517                 1.1951
 Frc consts  --      1.6613                 1.1887                 1.1574
 IR Inten    --     22.7877                20.1227                38.7603

                     22                     23                     24
                      A                      A                      A
 Frequencies --   1345.6611              1368.9051              1396.5054
 Red. masses --      1.2656                 2.2266                 1.4519
 Frc consts  --      1.3502                 2.4583                 1.6683
 IR Inten    --     23.1364                33.4578                29.5603

                     25                     26                     27
                      A                      A                      A
 Frequencies --   1412.0455              1453.6468              1485.2747
 Red. masses --      1.4438                 1.1604                 1.0548
 Frc consts  --      1.6961                 1.4447                 1.3710
 IR Inten    --     19.3096                 1.6369                 7.2490

                     28                     29                     30
                      A                      A                      A
 Frequencies --   1494.1303              1627.2629              1714.7439
 Red. masses --      1.0578                 1.1531                 5.7531
 Frc consts  --      1.3913                 1.7990                 9.9667
 IR Inten    --      0.0967                56.8081               103.2906

                     31                     32                     33
                      A                      A                      A
 Frequencies --   3001.0839              3045.0701              3116.7178
 Red. masses --      1.0840                 1.0347                 1.1016
 Frc consts  --      5.7523                 5.6528                 6.3050
 IR Inten    --     35.8927                16.0163                26.4044

                     34                     35                     36
                      A                      A                      A
 Frequencies --   3134.9341              3157.4950              3242.7546
 Red. masses --      1.1020                 1.0607                 1.1141
 Frc consts  --      6.3809                 6.2308                 6.9026
 IR Inten    --     17.1651                 3.9722                11.2317

                     37                     38                     39
                      A                      A                      A
 Frequencies --   3573.2444              3685.2381              3810.9042
 Red. masses --      1.0456                 1.0999                 1.0660
 Frc consts  --      7.8661                 8.8011                 9.1218
 IR Inten    --     17.7200                21.7856                22.3701

 - Thermochemistry -
 -------------------
 Temperature   298.150 Kelvin.  Pressure   1.00000 Atm.
 Atom     1 has atomic number  6 and mass  12.00000

 Molecular mass:    87.06841 amu.
 Principal axes and moments of inertia in atomic units:
                           1         2         3
     Eigenvalues --   372.16534 622.02999 762.81658
           X            0.99937  -0.03224   0.01505
           Y            0.03179   0.99907   0.02901
           Z           -0.01598  -0.02851   0.99947
 This molecule is an asymmetric top.
 Rotational symmetry number  1.
 Rotational temperatures (Kelvin)      0.23273     0.13924     0.11354
 Rotational constants (GHZ):           4.84930     2.90137     2.36589
 Zero-point vibrational energy     341520.3 (Joules/Mol)
                                   81.62531 (Kcal/Mol)
 Warning -- explicit consideration of  10 degrees of freedom as
           vibrations may cause significant error
 Vibrational temperatures:    102.60   308.46   328.64   405.05   437.91
          (Kelvin)            529.55   627.73   654.52   763.58   869.71
                              937.39  1040.14  1131.84  1156.68  1343.33
                             1427.02  1463.25  1544.27  1632.15  1640.59
                             1844.63  1936.10  1969.55  2009.26  2031.62
                             2091.47  2136.98  2149.72  2341.27  2467.13
                             4317.88  4381.17  4484.26  4510.47  4542.93
                             4665.59  5141.10  5302.23  5483.03

 Zero-point correction=                           0.130078 (Hartree/Particle)
 Thermal correction to Energy=                    0.137507
 Thermal correction to Enthalpy=                  0.138451
 Thermal correction to Gibbs Free Energy=         0.099321
 Sum of electronic and zero-point Energies=           -287.688648
 Sum of electronic and thermal Energies=              -287.681219
 Sum of electronic and thermal Enthalpies=            -287.680275
 Sum of electronic and thermal Free Energies=         -287.719404

                     E (Thermal)             CV                S
                      KCal/Mol        Cal/Mol-Kelvin    Cal/Mol-Kelvin
 Total                   86.287             27.371             82.355
 Electronic               0.000              0.000              0.000
 Translational            0.889              2.981             39.305
 Rotational               0.889              2.981             26.671
 Vibrational             84.509             21.410             16.379
 Vibration     1          0.598              1.968              4.117
 Vibration     2          0.644              1.819              2.006
 Vibration     3          0.651              1.798              1.891
 Vibration     4          0.681              1.708              1.524
 Vibration     5          0.695              1.665              1.393
 Vibration     6          0.741              1.538              1.088
 Vibration     7          0.797              1.391              0.838
 Vibration     8          0.813              1.350              0.781
 Vibration     9          0.886              1.182              0.586
 Vibration    10          0.963              1.022              0.442

 Optimization completed.
    -- Stationary point found.
 Normal termination of Gaussian 09 at Fri Aug 26 07:38:57 2022.

 -----------------------------------------------------------------
 #P Geom=AllCheck Guess=TCheck SCRF=Check CCSD(T,E4T,FrzG4)/GTBas1
 -----------------------------------------------------------------

 Structure from the checkpoint file:  "G4.Frag_493.chk"
 --------
 Frag_493
 --------
 Charge =  0 Multiplicity = 1

 SCF Done:  E(RHF) =  -285.986601519     A.U. after   13 cycles
 E2 =    -0.8595380297D+00 EUMP2 =    -0.28684613954870D+03
 CCSD(T)
 CCSD(T)= -0.28692758230D+03
 24\CCSD(T)=-286.9275823\RMSD=2.208e-09\PG=C01 [X(C4H9N1O1)]\\@
 Normal termination of Gaussian 09 at Fri Aug 26 07:40:57 2022.

 ---------------------------------------------------------
 #P Geom=AllCheck Guess=TCheck SCRF=Check MP4=FrzG4/GTBas2
 ---------------------------------------------------------

 Structure from the checkpoint file:  "G4.Frag_493.chk"
 --------
 Frag_493
 --------
 Charge =  0 Multiplicity = 1

 SCF Done:  E(RHF) =  -285.997444717     A.U. after   12 cycles
 E2 =    -0.8731077628D+00 EUMP2 =    -0.28687055248002D+03
 Normal termination of Gaussian 09 at Fri Aug 26 07:41:35 2022.

 ---------------------------------------------------------
 #P Geom=AllCheck Guess=TCheck SCRF=Check MP4=FrzG4/GTBas3
 ---------------------------------------------------------

 Structure from the checkpoint file:  "G4.Frag_493.chk"
 --------
 Frag_493
 --------
 Charge =  0 Multiplicity = 1

 SCF Done:  E(RHF) =  -286.028338567     A.U. after   11 cycles
 E2 =    -0.1060751296D+01 EUMP2 =    -0.28708908986335D+03
 Normal termination of Gaussian 09 at Fri Aug 26 07:45:30 2022.

 -----------------------------------------------------------
 #P Geom=AllCheck Guess=TCheck SCRF=Check MP2=Full/GTLargeXP
 -----------------------------------------------------------

 Structure from the checkpoint file:  "G4.Frag_493.chk"
 --------
 Frag_493
 --------
 Charge =  0 Multiplicity = 1

 SCF Done:  E(RHF) =  -286.102703590     A.U. after   12 cycles
 E2 =    -0.1393594221D+01 EUMP2 =    -0.28749629781140D+03
 Normal termination of Gaussian 09 at Fri Aug 26 07:47:43 2022.
 SCF Done:  E(RHF) =  -286.125651580     A.U. after    8 cycles
 Normal termination of Gaussian 09 at Fri Aug 26 07:49:41 2022.

                         Standard orientation:
 ---------------------------------------------------------------------
 Center     Atomic      Atomic             Coordinates (Angstroms)
 Number     Number       Type             X           Y           Z
 ---------------------------------------------------------------------
      1          6           0       -1.768578   -0.902797   -0.415669
      2          6           0       -0.816654   -0.029612   -0.065155
      3          7           0       -1.042845    1.170421    0.600392
      4          6           0        0.650052   -0.273107   -0.398052
      5          6           0        1.381873   -0.982254    0.742453
      6          8           0        1.350672    0.950162   -0.618199
      7          1           0       -1.520546   -1.780569   -0.998361
      8          1           0       -2.807738   -0.769245   -0.135735
      9          1           0       -0.229275    1.577222    1.036210
     10          1           0       -1.881093    1.225151    1.157932
     11          1           0        0.694798   -0.907690   -1.294467
     12          1           0        0.952064   -1.972255    0.910041
     13          1           0        2.441502   -1.087326    0.493525
     14          1           0        1.302584   -0.407062    1.670193
     15          1           0        0.862084    1.454143   -1.277947
 ---------------------------------------------------------------------

 SCF Done:  E(RHF) =  -286.130569195     A.U. after    8 cycles

 The electronic state is 1-A.
 Alpha  occ. eigenvalues --  -20.56108 -15.56059 -11.29098 -11.27342 -11.21828
 Alpha  occ. eigenvalues --  -11.19736  -1.37019  -1.21413  -1.04165  -0.97923
 Alpha  occ. eigenvalues --   -0.85524  -0.76305  -0.70996  -0.70159  -0.62899
 Alpha  occ. eigenvalues --   -0.60238  -0.58171  -0.55505  -0.53745  -0.53168
 Alpha  occ. eigenvalues --   -0.50000  -0.48004  -0.44676  -0.31549
 Alpha virt. eigenvalues --    0.03471   0.04376   0.04672   0.04853   0.06899
 Alpha virt. eigenvalues --    0.07269   0.07331   0.07646   0.07861   0.09889
 Alpha virt. eigenvalues --    0.10314   0.10443   0.11657   0.13071   0.13213

 Mulliken charges:
               1
     1  C   -0.529264
     2  C    0.226416
     3  N   -0.728127
     4  C    0.088676
     5  C   -0.511107
     6  O   -0.588675
     7  H    0.171581
     8  H    0.157278
     9  H    0.332705
    10  H    0.309192
    11  H    0.167714
    12  H    0.182480
    13  H    0.180134
    14  H    0.159234
    15  H    0.381765
 Sum of Mulliken charges =  -0.00000

 Dipole moment (field-independent basis, Debye):
    X=             -0.5614    Y=              0.0168    Z=              0.6080  Tot=              0.8277
 Quadrupole moment (field-independent basis, Debye-Ang):
   XX=            -40.4548   YY=            -37.6044   ZZ=            -35.7654
   XY=             -2.3669   XZ=             -1.9844   YZ=              1.7445

 Normal termination of Gaussian 09 at Fri Aug 26 07:57:24 2022.
