 Gaussian 09, Revision E.01,
 Gaussian 09:  ES64L-G09RevE.01 30-Nov-2015

 -----
 #P G4
 -----

 --------
 Frag_928
 --------
 Symbolic Z-matrix:
 Charge =  0 Multiplicity = 1

 SCF Done:  E(RB3LYP) =  -303.832092525     A.U. after   14 cycles
 SCF Done:  E(RB3LYP) =  -303.844768318     A.U. after   12 cycles
 SCF Done:  E(RB3LYP) =  -303.847631068     A.U. after   12 cycles
 SCF Done:  E(RB3LYP) =  -303.851907314     A.U. after   14 cycles
 SCF Done:  E(RB3LYP) =  -303.853577309     A.U. after   12 cycles
 SCF Done:  E(RB3LYP) =  -303.855090498     A.U. after   12 cycles
 SCF Done:  E(RB3LYP) =  -303.855430123     A.U. after   11 cycles
 SCF Done:  E(RB3LYP) =  -303.855465277     A.U. after   10 cycles
 SCF Done:  E(RB3LYP) =  -303.855471420     A.U. after    8 cycles
 SCF Done:  E(RB3LYP) =  -303.855473061     A.U. after    7 cycles
 Optimization completed.
    -- Stationary point found.
 Normal termination of Gaussian 09 at Fri Aug 26 14:19:21 2022.

 ----------------------------------------------------------
 #P Geom=AllCheck Guess=TCheck SCRF=Check B3LYP/GTBas3 Freq
 ----------------------------------------------------------

 Structure from the checkpoint file:  "G4.Frag_928.chk"
 --------
 Frag_928
 --------
 Charge =  0 Multiplicity = 1

 SCF Done:  E(RB3LYP) =  -303.855473061     A.U. after    1 cycles

  Exact polarizability:  58.611   6.652  60.044   2.756   2.425  36.601
 Approx polarizability:  77.442  10.803  92.056   3.929   6.238  55.501

                      1                      2                      3
                      A                      A                      A
 Frequencies --     72.8843               254.4195               295.5920
 Red. masses --      3.6213                 1.3401                 2.3518
 Frc consts  --      0.0113                 0.0511                 0.1211
 IR Inten    --      1.4153                23.3188                12.2412

                      4                      5                      6
                      A                      A                      A
 Frequencies --    319.2673               388.7577               419.5103
 Red. masses --      1.7913                 1.4946                 2.7429
 Frc consts  --      0.1076                 0.1331                 0.2844
 IR Inten    --      7.7376                17.4420                11.3540

                      7                      8                      9
                      A                      A                      A
 Frequencies --    471.0527               529.2607               645.8910
 Red. masses --      2.2644                 3.8295                 1.3743
 Frc consts  --      0.2960                 0.6320                 0.3378
 IR Inten    --     12.6460                22.6487                54.8246

                     10                     11                     12
                      A                      A                      A
 Frequencies --    666.8195               735.7245               805.9592
 Red. masses --      2.2528                 1.0651                 2.1493
 Frc consts  --      0.5902                 0.3397                 0.8226
 IR Inten    --     20.9606                27.7262                11.6285

                     13                     14                     15
                      A                      A                      A
 Frequencies --    840.9494               878.3983               909.7660
 Red. masses --      1.4494                 1.8430                 1.4134
 Frc consts  --      0.6039                 0.8378                 0.6893
 IR Inten    --     47.7578               113.5256               109.6736

                     16                     17                     18
                      A                      A                      A
 Frequencies --    984.3785              1029.9376              1119.3575
 Red. masses --      1.9340                 1.7543                 3.1200
 Frc consts  --      1.1042                 1.0964                 2.3033
 IR Inten    --     33.7501                33.2843                56.2546

                     19                     20                     21
                      A                      A                      A
 Frequencies --   1186.1589              1247.2483              1263.0734
 Red. masses --      1.2744                 1.7550                 1.6097
 Frc consts  --      1.0564                 1.6085                 1.5130
 IR Inten    --      6.6532                 5.5572                12.5964

                     22                     23                     24
                      A                      A                      A
 Frequencies --   1361.5060              1394.8409              1435.7020
 Red. masses --      1.3388                 1.5905                 1.3541
 Frc consts  --      1.4622                 1.8232                 1.6444
 IR Inten    --    221.6255                34.8544                20.8409

                     25                     26                     27
                      A                      A                      A
 Frequencies --   1449.7604              1649.7722              1655.9934
 Red. masses --      1.3002                 1.0959                 1.0995
 Frc consts  --      1.6101                 1.7574                 1.7765
 IR Inten    --     32.5134                42.2582                22.7694

                     28                     29                     30
                      A                      A                      A
 Frequencies --   1755.7589              2932.8843              3183.6017
 Red. masses --      5.3739                 1.0809                 1.0618
 Frc consts  --      9.7604                 5.4782                 6.3407
 IR Inten    --     77.7669                61.7517                 0.3821

                     31                     32                     33
                      A                      A                      A
 Frequencies --   3274.8643              3484.9889              3488.1292
 Red. masses --      1.1142                 1.0497                 1.0495
 Frc consts  --      7.0406                 7.5112                 7.5231
 IR Inten    --      5.3011                 0.5539                 1.6969

                     34                     35                     36
                      A                      A                      A
 Frequencies --   3562.8677              3576.2994              3638.2511
 Red. masses --      1.0914                 1.0924                 1.0643
 Frc consts  --      8.1630                 8.2317                 8.3002
 IR Inten    --      0.4150                 2.9565               167.2678

 - Thermochemistry -
 -------------------
 Temperature   298.150 Kelvin.  Pressure   1.00000 Atm.
 Atom     1 has atomic number  6 and mass  12.00000

 Molecular mass:    88.06366 amu.
 Principal axes and moments of inertia in atomic units:
                           1         2         3
     Eigenvalues --   370.50271 537.91292 844.26132
           X            0.99692   0.07709   0.01423
           Y           -0.07698   0.99700  -0.00797
           Z           -0.01480   0.00685   0.99987
 This molecule is an asymmetric top.
 Rotational symmetry number  1.
 Rotational temperatures (Kelvin)      0.23377     0.16102     0.10259
 Rotational constants (GHZ):           4.87106     3.35508     2.13766
 Zero-point vibrational energy     316469.8 (Joules/Mol)
                                   75.63811 (Kcal/Mol)
 Warning -- explicit consideration of   8 degrees of freedom as
           vibrations may cause significant error
 Vibrational temperatures:    104.86   366.05   425.29   459.35   559.33
          (Kelvin)            603.58   677.74   761.49   929.29   959.40
                             1058.54  1159.59  1209.94  1263.82  1308.95
                             1416.30  1481.85  1610.50  1706.62  1794.51
                             1817.28  1958.90  2006.86  2065.65  2085.88
                             2373.65  2382.60  2526.14  4219.76  4580.49
                             4711.79  5014.12  5018.63  5126.17  5145.49
                             5234.63

 Zero-point correction=                           0.120537 (Hartree/Particle)
 Thermal correction to Energy=                    0.127313
 Thermal correction to Enthalpy=                  0.128257
 Thermal correction to Gibbs Free Energy=         0.090339
 Sum of electronic and zero-point Energies=           -303.734936
 Sum of electronic and thermal Energies=              -303.728160
 Sum of electronic and thermal Enthalpies=            -303.727216
 Sum of electronic and thermal Free Energies=         -303.765134

                     E (Thermal)             CV                S
                      KCal/Mol        Cal/Mol-Kelvin    Cal/Mol-Kelvin
 Total                   79.890             25.350             79.806
 Electronic               0.000              0.000              0.000
 Translational            0.889              2.981             39.339
 Rotational               0.889              2.981             26.623
 Vibrational             78.113             19.388             13.844
 Vibration     1          0.599              1.967              4.074
 Vibration     2          0.665              1.755              1.700
 Vibration     3          0.690              1.682              1.442
 Vibration     4          0.705              1.637              1.314
 Vibration     5          0.757              1.494              1.005
 Vibration     6          0.782              1.428              0.894
 Vibration     7          0.828              1.314              0.735
 Vibration     8          0.884              1.185              0.589

 Normal termination of Gaussian 09 at Fri Aug 26 14:19:52 2022.

 -----------------------------------------------------------------
 #P Geom=AllCheck Guess=TCheck SCRF=Check CCSD(T,E4T,FrzG4)/GTBas1
 -----------------------------------------------------------------

 Structure from the checkpoint file:  "G4.Frag_928.chk"
 --------
 Frag_928
 --------
 Charge =  0 Multiplicity = 1

 SCF Done:  E(RHF) =  -301.975249663     A.U. after   12 cycles
 E2 =    -0.8928847798D+00 EUMP2 =    -0.30286813444238D+03
 CCSD(T)
 CCSD(T)= -0.30294502543D+03
 SDQ=-302.9165179\CCSD=-302.9170846\CCSD(T)=-302.9450254\RMSD=8.470e-09
 Normal termination of Gaussian 09 at Fri Aug 26 14:21:59 2022.

 ---------------------------------------------------------
 #P Geom=AllCheck Guess=TCheck SCRF=Check MP4=FrzG4/GTBas2
 ---------------------------------------------------------

 Structure from the checkpoint file:  "G4.Frag_928.chk"
 --------
 Frag_928
 --------
 Charge =  0 Multiplicity = 1

 SCF Done:  E(RHF) =  -301.988125844     A.U. after   12 cycles
 E2 =    -0.9082332621D+00 EUMP2 =    -0.30289635910605D+03
 Normal termination of Gaussian 09 at Fri Aug 26 14:22:38 2022.

 ---------------------------------------------------------
 #P Geom=AllCheck Guess=TCheck SCRF=Check MP4=FrzG4/GTBas3
 ---------------------------------------------------------

 Structure from the checkpoint file:  "G4.Frag_928.chk"
 --------
 Frag_928
 --------
 Charge =  0 Multiplicity = 1

 SCF Done:  E(RHF) =  -302.021254855     A.U. after   11 cycles
 E2 =    -0.1095606410D+01 EUMP2 =    -0.30311686126514D+03
 Normal termination of Gaussian 09 at Fri Aug 26 14:26:08 2022.

 -----------------------------------------------------------
 #P Geom=AllCheck Guess=TCheck SCRF=Check MP2=Full/GTLargeXP
 -----------------------------------------------------------

 Structure from the checkpoint file:  "G4.Frag_928.chk"
 --------
 Frag_928
 --------
 Charge =  0 Multiplicity = 1

 SCF Done:  E(RHF) =  -302.103147796     A.U. after   12 cycles
 E2 =    -0.1433655675D+01 EUMP2 =    -0.30353680347058D+03
 Normal termination of Gaussian 09 at Fri Aug 26 14:27:55 2022.
 SCF Done:  E(RHF) =  -302.127124483     A.U. after    8 cycles
 Normal termination of Gaussian 09 at Fri Aug 26 14:29:37 2022.

                         Standard orientation:
 ---------------------------------------------------------------------
 Center     Atomic      Atomic             Coordinates (Angstroms)
 Number     Number       Type             X           Y           Z
 ---------------------------------------------------------------------
      1          6           0        1.486156    1.177980    0.251958
      2          6           0        0.816096    0.069518   -0.054082
      3          8           0        1.440288   -1.130482   -0.190406
      4          6           0       -0.675405   -0.025511   -0.348310
      5          7           0       -1.182772   -1.209252    0.351239
      6          7           0       -1.397443    1.188386    0.021718
      7          1           0        0.986102    2.129078    0.358355
      8          1           0        2.555449    1.144804    0.418415
      9          1           0        0.736076   -1.794324   -0.086831
     10          1           0       -0.760640   -0.270088   -1.422747
     11          1           0       -2.085201   -1.489348   -0.018024
     12          1           0       -1.313792   -0.975617    1.332986
     13          1           0       -2.352370    1.122004   -0.319735
     14          1           0       -0.987504    1.991492   -0.447272
 ---------------------------------------------------------------------

 SCF Done:  E(RHF) =  -302.132302323     A.U. after    8 cycles

 The electronic state is 1-A.
 Alpha  occ. eigenvalues --  -20.56523 -15.56437 -15.55687 -11.30631 -11.28946
 Alpha  occ. eigenvalues --  -11.20073  -1.39112  -1.24084  -1.14560  -1.02068
 Alpha  occ. eigenvalues --   -0.89834  -0.76018  -0.72678  -0.68890  -0.66260
 Alpha  occ. eigenvalues --   -0.62955  -0.59931  -0.58598  -0.56819  -0.53863
 Alpha  occ. eigenvalues --   -0.49252  -0.43891  -0.41709  -0.33652
 Alpha virt. eigenvalues --    0.03035   0.04539   0.05015   0.05486   0.06648
 Alpha virt. eigenvalues --    0.07283   0.08086   0.08523   0.08957   0.10154
 Alpha virt. eigenvalues --    0.10991   0.11354   0.12542   0.12892   0.13480

 Mulliken charges:
               1
     1  C   -0.496444
     2  C    0.224546
     3  O   -0.592673
     4  C    0.142401
     5  N   -0.740230
     6  N   -0.701544
     7  H    0.181973
     8  H    0.211980
     9  H    0.414376
    10  H    0.158637
    11  H    0.302056
    12  H    0.313485
    13  H    0.284157
    14  H    0.297281
 Sum of Mulliken charges =  -0.00000

 Dipole moment (field-independent basis, Debye):
    X=             -3.4468    Y=              0.2963    Z=             -0.9948  Tot=              3.5997
 Quadrupole moment (field-independent basis, Debye-Ang):
   XX=            -35.6679   YY=            -36.1613   ZZ=            -38.2543
   XY=              3.1239   XZ=              2.7746   YZ=             -2.1533

 Normal termination of Gaussian 09 at Fri Aug 26 14:36:45 2022.
