 Gaussian 09, Revision E.01,
 Gaussian 09:  ES64L-G09RevE.01 30-Nov-2015

 -----
 #P G4
 -----

 --------
 Frag_531
 --------
 Symbolic Z-matrix:
 Charge =  0 Multiplicity = 1

 SCF Done:  E(RB3LYP) =  -204.076828394     A.U. after   14 cycles
 SCF Done:  E(RB3LYP) =  -204.099003894     A.U. after   13 cycles
 SCF Done:  E(RB3LYP) =  -204.105384084     A.U. after   14 cycles
 SCF Done:  E(RB3LYP) =  -204.105717932     A.U. after   13 cycles
 SCF Done:  E(RB3LYP) =  -204.106085557     A.U. after   12 cycles
 SCF Done:  E(RB3LYP) =  -204.106176995     A.U. after   12 cycles
 SCF Done:  E(RB3LYP) =  -204.106307173     A.U. after   12 cycles
 SCF Done:  E(RB3LYP) =  -204.092195018     A.U. after   15 cycles
 SCF Done:  E(RB3LYP) =  -204.098057367     A.U. after   12 cycles
 SCF Done:  E(RB3LYP) =  -204.101859321     A.U. after   12 cycles
 SCF Done:  E(RB3LYP) =  -204.106908358     A.U. after    9 cycles
 SCF Done:  E(RB3LYP) =  -204.106908514     A.U. after    8 cycles
 SCF Done:  E(RB3LYP) =  -204.106908597     A.U. after    7 cycles
 Optimization completed.
    -- Stationary point found.
 Normal termination of Gaussian 09 at Tue Aug 30 12:16:07 2022.

 ----------------------------------------------------------
 #P Geom=AllCheck Guess=TCheck SCRF=Check B3LYP/GTBas3 Freq
 ----------------------------------------------------------

 Structure from the checkpoint file:  "G4.Frag_531.chk"
 --------
 Frag_531
 --------
 Charge =  0 Multiplicity = 1

 SCF Done:  E(RB3LYP) =  -204.106908597     A.U. after    1 cycles

  Exact polarizability:  51.547   4.739  24.152   0.000   0.000  21.126
 Approx polarizability: 101.486  22.422  40.743   0.000   0.000  29.635

                      1                      2                      3
                      A                      A                      A
 Frequencies --    101.8530               247.5337               588.4986
 Red. masses --      1.2039                 4.2560                13.4955
 Frc consts  --      0.0074                 0.1536                 2.7538
 IR Inten    --      0.5260                 5.9751                10.1978

                      4                      5                      6
                      A                      A                      A
 Frequencies --    673.8196               922.5659              1108.1392
 Red. masses --      7.3626                 6.2950                 1.2563
 Frc consts  --      1.9695                 3.1568                 0.9090
 IR Inten    --      9.3592                18.5698                 0.2596

                      7                      8                      9
                      A                      A                      A
 Frequencies --   1148.9241              1342.4319              1450.6624
 Red. masses --      1.3945                 7.9393                 1.1879
 Frc consts  --      1.0846                 8.4297                 1.4728
 IR Inten    --     10.9734               121.5138                 7.4369

                     10                     11                     12
                      A                      A                      A
 Frequencies --   1492.2782              1492.7104              2257.5690
 Red. masses --      1.0564                 1.0456                13.4482
 Frc consts  --      1.3860                 1.3726                40.3828
 IR Inten    --     14.1385                 5.5384               438.1523

                     13                     14                     15
                      A                      A                      A
 Frequencies --   3020.2662              3082.8352              3154.4585
 Red. masses --      1.0359                 1.1052                 1.0986
 Frc consts  --      5.5677                 6.1886                 6.4405
 IR Inten    --     41.7393                27.0268                 9.8526

 - Thermochemistry -
 -------------------
 Temperature   298.150 Kelvin.  Pressure   1.00000 Atm.
 Atom     1 has atomic number  6 and mass  12.00000

 Molecular mass:    57.03270 amu.
 Principal axes and moments of inertia in atomic units:
                           1         2         3
     Eigenvalues --    39.49267 338.80123 366.81570
           X            0.99967  -0.02577   0.00000
           Y            0.02577   0.99967   0.00000
           Z           -0.00000  -0.00000   1.00000
 This molecule is an asymmetric top.
 Rotational symmetry number  1.
 Rotational temperatures (Kelvin)      2.19316     0.25565     0.23612
 Rotational constants (GHZ):          45.69813     5.32684     4.92002
 Zero-point vibrational energy     132094.9 (Joules/Mol)
                                   31.57144 (Kcal/Mol)
 Warning -- explicit consideration of   3 degrees of freedom as
           vibrations may cause significant error
 Vibrational temperatures:    146.54   356.15   846.72   969.47  1327.36
          (Kelvin)           1594.36  1653.04  1931.46  2087.18  2147.05
                             2147.67  3248.13  4345.48  4435.51  4538.56

 Zero-point correction=                           0.050312 (Hartree/Particle)
 Thermal correction to Energy=                    0.054776
 Thermal correction to Enthalpy=                  0.055720
 Thermal correction to Gibbs Free Energy=         0.023681
 Sum of electronic and zero-point Energies=           -204.056596
 Sum of electronic and thermal Energies=              -204.052133
 Sum of electronic and thermal Enthalpies=            -204.051188
 Sum of electronic and thermal Free Energies=         -204.083227

                     E (Thermal)             CV                S
                      KCal/Mol        Cal/Mol-Kelvin    Cal/Mol-Kelvin
 Total                   34.372             12.973             67.431
 Electronic               0.000              0.000              0.000
 Translational            0.889              2.981             38.044
 Rotational               0.889              2.981             23.111
 Vibrational             32.595              7.011              6.276
 Vibration     1          0.604              1.948              3.419
 Vibration     2          0.661              1.767              1.748
 Vibration     3          0.946              1.056              0.470

 Optimization completed.
    -- Stationary point found.
 Normal termination of Gaussian 09 at Tue Aug 30 12:16:18 2022.

 -----------------------------------------------------------------
 #P Geom=AllCheck Guess=TCheck SCRF=Check CCSD(T,E4T,FrzG4)/GTBas1
 -----------------------------------------------------------------

 Structure from the checkpoint file:  "G4.Frag_531.chk"
 --------
 Frag_531
 --------
 Charge =  0 Multiplicity = 1

 SCF Done:  E(RHF) =  -202.864236695     A.U. after   14 cycles
 E2 =    -0.6366552304D+00 EUMP2 =    -0.20350089192507D+03
 CCSD(T)
 CCSD(T)= -0.20353520495D+03
 2416\CCSD(T)=-203.535205\RMSD=9.011e-09\PG=C01 [X(C1H3N3)]\\@
 Normal termination of Gaussian 09 at Tue Aug 30 12:16:36 2022.

 ---------------------------------------------------------
 #P Geom=AllCheck Guess=TCheck SCRF=Check MP4=FrzG4/GTBas2
 ---------------------------------------------------------

 Structure from the checkpoint file:  "G4.Frag_531.chk"
 --------
 Frag_531
 --------
 Charge =  0 Multiplicity = 1

 SCF Done:  E(RHF) =  -202.869648686     A.U. after   15 cycles
 E2 =    -0.6428652735D+00 EUMP2 =    -0.20351251395925D+03
 Normal termination of Gaussian 09 at Tue Aug 30 12:16:43 2022.

 ---------------------------------------------------------
 #P Geom=AllCheck Guess=TCheck SCRF=Check MP4=FrzG4/GTBas3
 ---------------------------------------------------------

 Structure from the checkpoint file:  "G4.Frag_531.chk"
 --------
 Frag_531
 --------
 Charge =  0 Multiplicity = 1

 SCF Done:  E(RHF) =  -202.888200930     A.U. after   13 cycles
 E2 =    -0.7484306520D+00 EUMP2 =    -0.20363663158165D+03
 Normal termination of Gaussian 09 at Tue Aug 30 12:17:02 2022.

 -----------------------------------------------------------
 #P Geom=AllCheck Guess=TCheck SCRF=Check MP2=Full/GTLargeXP
 -----------------------------------------------------------

 Structure from the checkpoint file:  "G4.Frag_531.chk"
 --------
 Frag_531
 --------
 Charge =  0 Multiplicity = 1

 SCF Done:  E(RHF) =  -202.938956986     A.U. after   14 cycles
 E2 =    -0.9687848368D+00 EUMP2 =    -0.20390774182319D+03
 Normal termination of Gaussian 09 at Tue Aug 30 12:17:17 2022.
 SCF Done:  E(RHF) =  -202.955528785     A.U. after   11 cycles
 Normal termination of Gaussian 09 at Tue Aug 30 12:17:37 2022.

                         Standard orientation:
 ---------------------------------------------------------------------
 Center     Atomic      Atomic             Coordinates (Angstroms)
 Number     Number       Type             X           Y           Z
 ---------------------------------------------------------------------
      1          6           0        1.544579   -0.283381    0.000002
      2          7           0        0.390644    0.631822    0.000003
      3          7           0       -0.716394    0.097301   -0.000012
      4          7           0       -1.791097   -0.272427    0.000009
      5          1           0        1.556977   -0.919030    0.893040
      6          1           0        1.556697   -0.919372   -0.892812
      7          1           0        2.436778    0.341818   -0.000240
 ---------------------------------------------------------------------

 SCF Done:  E(RHF) =  -202.958562481     A.U. after    8 cycles

 The electronic state is 1-A.
 Alpha  occ. eigenvalues --  -15.78038 -15.66318 -15.60618 -11.27925  -1.50080
 Alpha  occ. eigenvalues --   -1.28996  -0.99608  -0.73891  -0.70724  -0.70287
 Alpha  occ. eigenvalues --   -0.66679  -0.59240  -0.57410  -0.44082  -0.37798
 Alpha virt. eigenvalues --    0.04415   0.05063   0.05402   0.05482   0.08183
 Alpha virt. eigenvalues --    0.09302   0.09691   0.11342   0.12401   0.12667
 Alpha virt. eigenvalues --    0.14063   0.14790   0.15840   0.17761   0.17945

 Mulliken charges:
               1
     1  C   -0.398845
     2  N   -0.438943
     3  N    0.590505
     4  N   -0.307949
     5  H    0.177970
     6  H    0.177964
     7  H    0.199297
 Sum of Mulliken charges =  -0.00000

 Dipole moment (field-independent basis, Debye):
    X=              1.7383    Y=             -1.2008    Z=             -0.0000  Tot=              2.1127
 Quadrupole moment (field-independent basis, Debye-Ang):
   XX=            -23.9394   YY=            -25.0451   ZZ=            -23.6250
   XY=             -1.8045   XZ=              0.0000   YZ=             -0.0000

 Normal termination of Gaussian 09 at Tue Aug 30 12:19:11 2022.
