 Gaussian 09, Revision E.01,
 Gaussian 09:  ES64L-G09RevE.01 30-Nov-2015

 -----
 #P G4
 -----

 --------
 Frag_451
 --------
 Symbolic Z-matrix:
 Charge =  0 Multiplicity = 1

 SCF Done:  E(RB3LYP) =  -253.126608028     A.U. after   12 cycles
 SCF Done:  E(RB3LYP) =  -253.130679775     A.U. after   11 cycles
 SCF Done:  E(RB3LYP) =  -253.131007797     A.U. after   10 cycles
 SCF Done:  E(RB3LYP) =  -253.131043331     A.U. after    8 cycles
 SCF Done:  E(RB3LYP) =  -253.131051258     A.U. after    7 cycles
 SCF Done:  E(RB3LYP) =  -253.131053020     A.U. after    7 cycles
 SCF Done:  E(RB3LYP) =  -253.131053797     A.U. after    7 cycles
 SCF Done:  E(RB3LYP) =  -253.131054122     A.U. after    6 cycles
 SCF Done:  E(RB3LYP) =  -253.131054171     A.U. after    6 cycles
 Optimization completed.
    -- Stationary point found.
 Normal termination of Gaussian 09 at Thu Aug 25 19:28:22 2022.

 ----------------------------------------------------------
 #P Geom=AllCheck Guess=TCheck SCRF=Check B3LYP/GTBas3 Freq
 ----------------------------------------------------------

 Structure from the checkpoint file:  "G4.Frag_451.chk"
 --------
 Frag_451
 --------
 Charge =  0 Multiplicity = 1

 SCF Done:  E(RB3LYP) =  -253.131054171     A.U. after    1 cycles

  Exact polarizability:  69.289   0.002  61.563   0.236   0.420  59.630
 Approx polarizability:  90.156  -0.439  86.871  -0.427   1.656  84.272

                      1                      2                      3
                      A                      A                      A
 Frequencies --     90.9043               191.4232               236.5464
 Red. masses --      1.7463                 1.0225                 1.0851
 Frc consts  --      0.0085                 0.0221                 0.0358
 IR Inten    --      1.3917                 0.1615                 0.3363

                      4                      5                      6
                      A                      A                      A
 Frequencies --    257.7227               274.6682               284.9987
 Red. masses --      1.4330                 1.2648                 1.3572
 Frc consts  --      0.0561                 0.0562                 0.0649
 IR Inten    --      0.9304                 0.1566                 0.7453

                      7                      8                      9
                      A                      A                      A
 Frequencies --    337.4857               360.3908               412.3921
 Red. masses --      2.2185                 2.2817                 2.2242
 Frc consts  --      0.1489                 0.1746                 0.2229
 IR Inten    --      0.8051                 0.6462                 0.4069

                     10                     11                     12
                      A                      A                      A
 Frequencies --    447.4836               499.6136               704.5333
 Red. masses --      2.2056                 2.5994                 2.7729
 Frc consts  --      0.2602                 0.3823                 0.8109
 IR Inten    --      6.4386                 3.7065                35.0596

                     13                     14                     15
                      A                      A                      A
 Frequencies --    769.2068               890.1823               910.1189
 Red. masses --      1.6236                 1.8639                 1.7295
 Frc consts  --      0.5660                 0.8702                 0.8441
 IR Inten    --     50.3478                 1.4872                 0.1542

                     16                     17                     18
                      A                      A                      A
 Frequencies --    932.7518               953.9337              1029.9951
 Red. masses --      1.5699                 1.2082                 1.3823
 Frc consts  --      0.8047                 0.6478                 0.8640
 IR Inten    --      1.7083                 0.0398                 3.6972

                     19                     20                     21
                      A                      A                      A
 Frequencies --   1041.9131              1106.3093              1148.1852
 Red. masses --      1.4047                 2.1382                 1.8771
 Frc consts  --      0.8984                 1.5419                 1.4580
 IR Inten    --      1.5784                 7.2948                13.3928

                     22                     23                     24
                      A                      A                      A
 Frequencies --   1159.5885              1232.9045              1258.8896
 Red. masses --      1.4527                 2.5083                 2.8019
 Frc consts  --      1.1509                 2.2464                 2.6162
 IR Inten    --      4.9879                30.0913                35.4756

                     25                     26                     27
                      A                      A                      A
 Frequencies --   1289.5677              1392.3371              1395.7321
 Red. masses --      2.5464                 1.2433                 1.2642
 Frc consts  --      2.4950                 1.4201                 1.4510
 IR Inten    --      6.8939                 8.4769                 6.5888

                     28                     29                     30
                      A                      A                      A
 Frequencies --   1422.3274              1458.5642              1473.0405
 Red. masses --      1.2321                 1.1504                 1.0614
 Frc consts  --      1.4686                 1.4419                 1.3569
 IR Inten    --      6.9955                 0.3853                 0.3286

                     31                     32                     33
                      A                      A                      A
 Frequencies --   1475.4730              1481.7963              1487.1452
 Red. masses --      1.1174                 1.0472                 1.0483
 Frc consts  --      1.4333                 1.3547                 1.3660
 IR Inten    --      7.9148                 0.2833                 0.2846

                     34                     35                     36
                      A                      A                      A
 Frequencies --   1499.8313              1503.3599              1516.0811
 Red. masses --      1.0655                 1.0548                 1.0806
 Frc consts  --      1.4122                 1.4045                 1.4634
 IR Inten    --      3.2412                 2.8573                 0.8424

                     37                     38                     39
                      A                      A                      A
 Frequencies --   1520.2411              1529.2552              2957.7966
 Red. masses --      1.0645                 1.1020                 1.0586
 Frc consts  --      1.4495                 1.5184                 5.4567
 IR Inten    --      6.2864                11.1637                71.5569

                     40                     41                     42
                      A                      A                      A
 Frequencies --   3024.3333              3028.7136              3039.7184
 Red. masses --      1.0369                 1.0362                 1.0362
 Frc consts  --      5.5879                 5.6003                 5.6410
 IR Inten    --     21.6501                32.8222                 7.1088

                     43                     44                     45
                      A                      A                      A
 Frequencies --   3064.6777              3088.8451              3094.9068
 Red. masses --      1.0729                 1.0995                 1.0992
 Frc consts  --      5.9373                 6.1808                 6.2032
 IR Inten    --     39.9042                 2.0316                35.9158

                     46                     47                     48
                      A                      A                      A
 Frequencies --   3100.5233              3103.8494              3109.0193
 Red. masses --      1.1012                 1.1005                 1.1003
 Frc consts  --      6.2372                 6.2465                 6.2663
 IR Inten    --     50.0635                10.3216                40.2434

                     49                     50                     51
                      A                      A                      A
 Frequencies --   3113.6455              3119.3533              3510.3089
 Red. masses --      1.1022                 1.1018                 1.0735
 Frc consts  --      6.2960                 6.3164                 7.7938
 IR Inten    --     11.4059                47.6243                 0.8693

 - Thermochemistry -
 -------------------
 Temperature   298.150 Kelvin.  Pressure   1.00000 Atm.
 Atom     1 has atomic number  6 and mass  12.00000

 Molecular mass:    87.10480 amu.
 Principal axes and moments of inertia in atomic units:
                           1         2         3
     Eigenvalues --   416.73158 691.63132 693.92600
           X            0.99975   0.02014   0.00944
           Y           -0.00980   0.77987  -0.62587
           Z           -0.01996   0.62562   0.77987
 This molecule is an asymmetric top.
 Rotational symmetry number  1.
 Rotational temperatures (Kelvin)      0.20784     0.12523     0.12482
 Rotational constants (GHZ):           4.33070     2.60940     2.60077
 Zero-point vibrational energy     462551.6 (Joules/Mol)
                                  110.55248 (Kcal/Mol)
 Warning -- explicit consideration of  11 degrees of freedom as
           vibrations may cause significant error
 Vibrational temperatures:    130.79   275.41   340.34   370.81   395.19
          (Kelvin)            410.05   485.57   518.52   593.34   643.83
                              718.83  1013.66  1106.72  1280.77  1309.46
                             1342.02  1372.50  1481.93  1499.08  1591.73
                             1651.98  1668.39  1773.87  1811.26  1855.40
                             2003.26  2008.14  2046.41  2098.55  2119.37
                             2122.87  2131.97  2139.67  2157.92  2163.00
                             2181.30  2187.29  2200.25  4255.60  4351.34
                             4357.64  4373.47  4409.38  4444.15  4452.88
                             4460.96  4465.74  4473.18  4479.84  4488.05
                             5050.55

 Zero-point correction=                           0.176177 (Hartree/Particle)
 Thermal correction to Energy=                    0.184361
 Thermal correction to Enthalpy=                  0.185306
 Thermal correction to Gibbs Free Energy=         0.144967
 Sum of electronic and zero-point Energies=           -252.954878
 Sum of electronic and thermal Energies=              -252.946693
 Sum of electronic and thermal Enthalpies=            -252.945749
 Sum of electronic and thermal Free Energies=         -252.986087

                     E (Thermal)             CV                S
                      KCal/Mol        Cal/Mol-Kelvin    Cal/Mol-Kelvin
 Total                  115.688             30.367             84.900
 Electronic               0.000              0.000              0.000
 Translational            0.889              2.981             39.307
 Rotational               0.889              2.981             26.795
 Vibrational            113.911             24.406             18.799
 Vibration     1          0.602              1.956              3.641
 Vibration     2          0.634              1.852              2.214
 Vibration     3          0.655              1.785              1.829
 Vibration     4          0.667              1.750              1.677
 Vibration     5          0.677              1.720              1.567
 Vibration     6          0.683              1.702              1.503
 Vibration     7          0.718              1.601              1.224
 Vibration     8          0.735              1.554              1.120
 Vibration     9          0.776              1.443              0.918
 Vibration    10          0.807              1.366              0.803
 Vibration    11          0.855              1.251              0.659

 Normal termination of Gaussian 09 at Thu Aug 25 19:32:39 2022.

 -----------------------------------------------------------------
 #P Geom=AllCheck Guess=TCheck SCRF=Check CCSD(T,E4T,FrzG4)/GTBas1
 -----------------------------------------------------------------

 Structure from the checkpoint file:  "G4.Frag_451.chk"
 --------
 Frag_451
 --------
 Charge =  0 Multiplicity = 1

 SCF Done:  E(RHF) =  -251.343787441     A.U. after   11 cycles
 E2 =    -0.8287238252D+00 EUMP2 =    -0.25217251126575D+03
 CCSD(T)
 CCSD(T)= -0.25227089821D+03
 .2685956\MP4SDQ=-252.2429563\CCSD=-252.2445305\CCSD(T)=-252.2708982\RM
 Normal termination of Gaussian 09 at Thu Aug 25 19:41:18 2022.

 ---------------------------------------------------------
 #P Geom=AllCheck Guess=TCheck SCRF=Check MP4=FrzG4/GTBas2
 ---------------------------------------------------------

 Structure from the checkpoint file:  "G4.Frag_451.chk"
 --------
 Frag_451
 --------
 Charge =  0 Multiplicity = 1

 SCF Done:  E(RHF) =  -251.348594709     A.U. after   11 cycles
 E2 =    -0.8391591493D+00 EUMP2 =    -0.25218775385860D+03
 Normal termination of Gaussian 09 at Thu Aug 25 19:52:55 2022.

 ---------------------------------------------------------
 #P Geom=AllCheck Guess=TCheck SCRF=Check MP4=FrzG4/GTBas3
 ---------------------------------------------------------

 Structure from the checkpoint file:  "G4.Frag_451.chk"
 --------
 Frag_451
 --------
 Charge =  0 Multiplicity = 1

 SCF Done:  E(RHF) =  -251.378498933     A.U. after   10 cycles
 E2 =    -0.1037135999D+01 EUMP2 =    -0.25241563493218D+03
 Normal termination of Gaussian 09 at Fri Aug 26 00:58:12 2022.

 -----------------------------------------------------------
 #P Geom=AllCheck Guess=TCheck SCRF=Check MP2=Full/GTLargeXP
 -----------------------------------------------------------

 Structure from the checkpoint file:  "G4.Frag_451.chk"
 --------
 Frag_451
 --------
 Charge =  0 Multiplicity = 1

 SCF Done:  E(RHF) =  -251.432946573     A.U. after   11 cycles
 E2 =    -0.1361208023D+01 EUMP2 =    -0.25279415459578D+03
 Normal termination of Gaussian 09 at Fri Aug 26 01:07:28 2022.
 SCF Done:  E(RHF) =  -251.452743865     A.U. after    8 cycles
 Normal termination of Gaussian 09 at Fri Aug 26 01:16:03 2022.

                         Standard orientation:
 ---------------------------------------------------------------------
 Center     Atomic      Atomic             Coordinates (Angstroms)
 Number     Number       Type             X           Y           Z
 ---------------------------------------------------------------------
      1          6           0        2.103667   -0.054830   -0.077264
      2          7           0        0.830038   -0.468143   -0.653580
      3          6           0       -0.408235    0.004753   -0.002342
      4          6           0       -0.529940   -0.438798    1.472606
      5          6           0       -0.471573    1.538578   -0.092386
      6          6           0       -1.568832   -0.597354   -0.810139
      7          1           0        2.241061   -0.291291    0.991634
      8          1           0        2.910893   -0.545393   -0.629980
      9          1           0        2.242192    1.024058   -0.197768
     10          1           0        0.800698   -1.482076   -0.693412
     11          1           0        0.275109   -0.026419    2.088318
     12          1           0       -1.478373   -0.104165    1.906457
     13          1           0       -0.492863   -1.531256    1.554224
     14          1           0       -1.443518    1.900663    0.256613
     15          1           0        0.295133    2.015977    0.525197
     16          1           0       -0.330108    1.864806   -1.126891
     17          1           0       -1.544706   -1.693127   -0.771996
     18          1           0       -2.535272   -0.274051   -0.411417
     19          1           0       -1.501027   -0.294819   -1.858766
 ---------------------------------------------------------------------

 SCF Done:  E(RHF) =  -251.457023600     A.U. after    8 cycles

 The electronic state is 1-A.
 Alpha  occ. eigenvalues --  -15.53295 -11.25812 -11.23698 -11.20899 -11.20727
 Alpha  occ. eigenvalues --  -11.20641  -1.20275  -1.04657  -0.93329  -0.92981
 Alpha  occ. eigenvalues --   -0.88885  -0.74374  -0.64906  -0.62349  -0.60890
 Alpha  occ. eigenvalues --   -0.58504  -0.56324  -0.54034  -0.52617  -0.52046
 Alpha  occ. eigenvalues --   -0.50959  -0.48535  -0.46631  -0.45623  -0.36162
 Alpha virt. eigenvalues --    0.03372   0.04065   0.04306   0.04589   0.06283
 Alpha virt. eigenvalues --    0.06691   0.06941   0.07274   0.07372   0.09314
 Alpha virt. eigenvalues --    0.09672   0.09880   0.10027   0.11768   0.12065

 Mulliken charges:
               1
     1  C   -0.472613
     2  N   -0.416095
     3  C    0.378621
     4  C   -0.570447
     5  C   -0.589435
     6  C   -0.585723
     7  H    0.142600
     8  H    0.172418
     9  H    0.165843
    10  H    0.269530
    11  H    0.167460
    12  H    0.167043
    13  H    0.157714
    14  H    0.168762
    15  H    0.165342
    16  H    0.178785
    17  H    0.152881
    18  H    0.166633
    19  H    0.180681
 Sum of Mulliken charges =  -0.00000

 Dipole moment (field-independent basis, Debye):
    X=             -0.0247    Y=             -0.4078    Z=              0.8768  Tot=              0.9674
 Quadrupole moment (field-independent basis, Debye-Ang):
   XX=            -40.2799   YY=            -39.6573   ZZ=            -43.6891
   XY=             -0.6027   XZ=              0.5721   YZ=              0.3552

 Normal termination of Gaussian 09 at Fri Aug 26 05:27:18 2022.
