 Gaussian 09, Revision E.01,
 Gaussian 09:  ES64L-G09RevE.01 30-Nov-2015

 -----
 #P G4
 -----

 --------
 Frag_860
 --------
 Symbolic Z-matrix:
 Charge =  0 Multiplicity = 1

 SCF Done:  E(RB3LYP) =  -279.310282186     A.U. after   14 cycles
 SCF Done:  E(RB3LYP) =  -279.335153145     A.U. after   13 cycles
 SCF Done:  E(RB3LYP) =  -279.339546267     A.U. after   13 cycles
 SCF Done:  E(RB3LYP) =  -279.339827310     A.U. after   11 cycles
 SCF Done:  E(RB3LYP) =  -279.339892660     A.U. after    9 cycles
 SCF Done:  E(RB3LYP) =  -279.339901419     A.U. after    9 cycles
 SCF Done:  E(RB3LYP) =  -279.339901715     A.U. after    9 cycles
 SCF Done:  E(RB3LYP) =  -279.339902016     A.U. after    9 cycles
 SCF Done:  E(RB3LYP) =  -279.339902235     A.U. after    8 cycles
 Optimization completed.
    -- Stationary point found.
 Normal termination of Gaussian 09 at Fri Aug 26 14:12:03 2022.

 ----------------------------------------------------------
 #P Geom=AllCheck Guess=TCheck SCRF=Check B3LYP/GTBas3 Freq
 ----------------------------------------------------------

 Structure from the checkpoint file:  "G4.Frag_860.chk"
 --------
 Frag_860
 --------
 Charge =  0 Multiplicity = 1

 SCF Done:  E(RB3LYP) =  -279.339902235     A.U. after    1 cycles

  Exact polarizability:  42.523   1.075  41.468   0.000   0.000  18.982
 Approx polarizability:  65.818   6.121  70.606   0.000   0.000  29.393

                      1                      2                      3
                      A                      A                      A
 Frequencies --    129.9770               357.9324               480.7775
 Red. masses --      4.6499                 4.7266                 3.6666
 Frc consts  --      0.0463                 0.3568                 0.4993
 IR Inten    --     11.5652                25.2066                15.5783

                      4                      5                      6
                      A                      A                      A
 Frequencies --    561.7378               601.1862               666.6884
 Red. masses --      1.1248                 2.9259                 4.1329
 Frc consts  --      0.2091                 0.6231                 1.0823
 IR Inten    --     87.7796                72.7460                29.0867

                      7                      8                      9
                      A                      A                      A
 Frequencies --    812.8205               846.3507              1065.7978
 Red. masses --      4.7579                 1.2745                 1.4830
 Frc consts  --      1.8520                 0.5379                 0.9925
 IR Inten    --      7.7814                60.5879                44.2515

                     10                     11                     12
                      A                      A                      A
 Frequencies --   1076.4186              1223.9936              1378.5986
 Red. masses --      2.3154                 1.4385                 2.3350
 Frc consts  --      1.5807                 1.2697                 2.6146
 IR Inten    --     34.2664                 9.8448               371.6395

                     13                     14                     15
                      A                      A                      A
 Frequencies --   1510.4657              1675.9278              1807.2737
 Red. masses --      1.2983                 8.5509                 8.0342
 Frc consts  --      1.7452                14.1505                15.4611
 IR Inten    --    124.9397                 2.0448               139.4735

                     16                     17                     18
                      A                      A                      A
 Frequencies --   3087.0006              3535.2105              3723.2061
 Red. masses --      1.0686                 1.0759                 1.0643
 Frc consts  --      6.0000                 7.9227                 8.6928
 IR Inten    --     13.7580                16.7072                80.3435

 - Thermochemistry -
 -------------------
 Temperature   298.150 Kelvin.  Pressure   1.00000 Atm.
 Atom     1 has atomic number  7 and mass  14.00307

 Molecular mass:    73.02761 amu.
 Principal axes and moments of inertia in atomic units:
                           1         2         3
     Eigenvalues --   169.47651 372.58492 542.06143
           X            0.99981   0.01931   0.00000
           Y           -0.01931   0.99981   0.00000
           Z           -0.00000  -0.00000   1.00000
 This molecule is an asymmetric top.
 Rotational symmetry number  1.
 Rotational temperatures (Kelvin)      0.51107     0.23247     0.15979
 Rotational constants (GHZ):          10.64892     4.84384     3.32940
 Zero-point vibrational energy     146790.0 (Joules/Mol)
                                   35.08364 (Kcal/Mol)
 Warning -- explicit consideration of   5 degrees of freedom as
           vibrations may cause significant error
 Vibrational temperatures:    187.01   514.98   691.73   808.21   864.97
          (Kelvin)            959.21  1169.47  1217.71  1533.44  1548.72
                             1761.05  1983.49  2173.22  2411.28  2600.26
                             4441.50  5086.37  5356.86

 Zero-point correction=                           0.055909 (Hartree/Particle)
 Thermal correction to Energy=                    0.060709
 Thermal correction to Enthalpy=                  0.061653
 Thermal correction to Gibbs Free Energy=         0.028151
 Sum of electronic and zero-point Energies=           -279.283993
 Sum of electronic and thermal Energies=              -279.279193
 Sum of electronic and thermal Enthalpies=            -279.278249
 Sum of electronic and thermal Free Energies=         -279.311751

                     E (Thermal)             CV                S
                      KCal/Mol        Cal/Mol-Kelvin    Cal/Mol-Kelvin
 Total                   38.095             16.033             70.510
 Electronic               0.000              0.000              0.000
 Translational            0.889              2.981             38.781
 Rotational               0.889              2.981             25.040
 Vibrational             36.318             10.072              6.689
 Vibration     1          0.612              1.923              2.946
 Vibration     2          0.733              1.559              1.131
 Vibration     3          0.837              1.293              0.708
 Vibration     4          0.917              1.114              0.520
 Vibration     5          0.959              1.029              0.448

 Optimization completed.
    -- Stationary point found.
 Normal termination of Gaussian 09 at Fri Aug 26 14:12:20 2022.

 -----------------------------------------------------------------
 #P Geom=AllCheck Guess=TCheck SCRF=Check CCSD(T,E4T,FrzG4)/GTBas1
 -----------------------------------------------------------------

 Structure from the checkpoint file:  "G4.Frag_860.chk"
 --------
 Frag_860
 --------
 Charge =  0 Multiplicity = 1

 SCF Done:  E(RHF) =  -277.745155353     A.U. after   14 cycles
 E2 =    -0.7849667668D+00 EUMP2 =    -0.27853012212007D+03
 CCSD(T)
 CCSD(T)= -0.27858354741D+03
 -278.5858319\MP4SDQ=-278.5551642\CCSD=-278.5545247\CCSD(T)=-278.583547
 Normal termination of Gaussian 09 at Fri Aug 26 14:13:05 2022.

 ---------------------------------------------------------
 #P Geom=AllCheck Guess=TCheck SCRF=Check MP4=FrzG4/GTBas2
 ---------------------------------------------------------

 Structure from the checkpoint file:  "G4.Frag_860.chk"
 --------
 Frag_860
 --------
 Charge =  0 Multiplicity = 1

 SCF Done:  E(RHF) =  -277.754277855     A.U. after   13 cycles
 E2 =    -0.7963343732D+00 EUMP2 =    -0.27855061222810D+03
 Normal termination of Gaussian 09 at Fri Aug 26 14:13:17 2022.

 ---------------------------------------------------------
 #P Geom=AllCheck Guess=TCheck SCRF=Check MP4=FrzG4/GTBas3
 ---------------------------------------------------------

 Structure from the checkpoint file:  "G4.Frag_860.chk"
 --------
 Frag_860
 --------
 Charge =  0 Multiplicity = 1

 SCF Done:  E(RHF) =  -277.781617738     A.U. after   12 cycles
 E2 =    -0.9378033300D+00 EUMP2 =    -0.27871942106800D+03
 Normal termination of Gaussian 09 at Fri Aug 26 14:14:06 2022.

 -----------------------------------------------------------
 #P Geom=AllCheck Guess=TCheck SCRF=Check MP2=Full/GTLargeXP
 -----------------------------------------------------------

 Structure from the checkpoint file:  "G4.Frag_860.chk"
 --------
 Frag_860
 --------
 Charge =  0 Multiplicity = 1

 SCF Done:  E(RHF) =  -277.857352983     A.U. after   13 cycles
 E2 =    -0.1222433135D+01 EUMP2 =    -0.27907978611780D+03
 Normal termination of Gaussian 09 at Fri Aug 26 14:14:41 2022.
 SCF Done:  E(RHF) =  -277.879386312     A.U. after    8 cycles
 Normal termination of Gaussian 09 at Fri Aug 26 14:15:13 2022.

                         Standard orientation:
 ---------------------------------------------------------------------
 Center     Atomic      Atomic             Coordinates (Angstroms)
 Number     Number       Type             X           Y           Z
 ---------------------------------------------------------------------
      1          7           0        1.854301   -0.112595    0.000001
      2          7           0        0.779644   -0.719303   -0.000005
      3          6           0       -0.442231    0.103444   -0.000004
      4          7           0       -0.392209    1.359550   -0.000003
      5          8           0       -1.523988   -0.679437    0.000004
      6          1           0        1.670850    0.920455    0.000037
      7          1           0       -1.310306    1.797337    0.000002
      8          1           0       -1.207406   -1.596527    0.000005
 ---------------------------------------------------------------------

 SCF Done:  E(RHF) =  -277.883831266     A.U. after    8 cycles

 The electronic state is 1-A.
 Alpha  occ. eigenvalues --  -20.63069 -15.65374 -15.65092 -15.56467 -11.39141
 Alpha  occ. eigenvalues --   -1.47164  -1.38489  -1.22291  -0.98215  -0.83364
 Alpha  occ. eigenvalues --   -0.80399  -0.72120  -0.64915  -0.63887  -0.58126
 Alpha  occ. eigenvalues --   -0.54205  -0.48555  -0.43414  -0.42957
 Alpha virt. eigenvalues --    0.04084   0.04821   0.05044   0.05736   0.05966
 Alpha virt. eigenvalues --    0.08336   0.09738   0.11180   0.11319   0.12283
 Alpha virt. eigenvalues --    0.13049   0.13486   0.13922   0.15143   0.15877

 Mulliken charges:
               1
     1  N   -0.273549
     2  N   -0.175310
     3  C    0.602032
     4  N   -0.672205
     5  O   -0.541116
     6  H    0.322672
     7  H    0.320092
     8  H    0.417385
 Sum of Mulliken charges =  -0.00000

 Dipole moment (field-independent basis, Debye):
    X=             -1.5346    Y=             -0.1405    Z=              0.0001  Tot=              1.5410
 Quadrupole moment (field-independent basis, Debye-Ang):
   XX=            -31.8911   YY=            -27.3601   ZZ=            -29.1871
   XY=              2.2509   XZ=              0.0001   YZ=              0.0000

 Normal termination of Gaussian 09 at Fri Aug 26 14:18:47 2022.
