 Gaussian 09, Revision E.01,
 Gaussian 09:  ES64L-G09RevE.01 30-Nov-2015

 -----
 #P G4
 -----

 ---------
 Frag_1159
 ---------
 Symbolic Z-matrix:
 Charge =  0 Multiplicity = 1

 SCF Done:  E(RB3LYP) =  -284.369831500     A.U. after   14 cycles
 SCF Done:  E(RB3LYP) =  -284.381444228     A.U. after   13 cycles
 SCF Done:  E(RB3LYP) =  -284.382174102     A.U. after   11 cycles
 SCF Done:  E(RB3LYP) =  -284.381240858     A.U. after   12 cycles
 SCF Done:  E(RB3LYP) =  -284.382277798     A.U. after    8 cycles
 SCF Done:  E(RB3LYP) =  -284.382525800     A.U. after   11 cycles
 SCF Done:  E(RB3LYP) =  -284.382747019     A.U. after   12 cycles
 SCF Done:  E(RB3LYP) =  -284.382891116     A.U. after   13 cycles
 SCF Done:  E(RB3LYP) =  -284.383018074     A.U. after   11 cycles
 SCF Done:  E(RB3LYP) =  -284.383137784     A.U. after   12 cycles
 SCF Done:  E(RB3LYP) =  -284.385618453     A.U. after   10 cycles
 SCF Done:  E(RB3LYP) =  -284.385619940     A.U. after    9 cycles
 SCF Done:  E(RB3LYP) =  -284.385621275     A.U. after    8 cycles
 Optimization completed.
    -- Stationary point found.
 Normal termination of Gaussian 09 at Fri Aug 26 07:12:51 2022.

 ----------------------------------------------------------
 #P Geom=AllCheck Guess=TCheck SCRF=Check B3LYP/GTBas3 Freq
 ----------------------------------------------------------

 Structure from the checkpoint file:  "G4.Frag_1159.chk"
 ---------
 Frag_1159
 ---------
 Charge =  0 Multiplicity = 1

 SCF Done:  E(RB3LYP) =  -284.385621275     A.U. after    1 cycles

  Exact polarizability:  46.614  -0.358  39.950  -1.522  -0.148  26.284
 Approx polarizability:  73.460   4.918  52.973  -2.669   0.380  38.640

                      1                      2                      3
                      A                      A                      A
 Frequencies --    145.6169               210.6005               288.9521
 Red. masses --      1.6543                 1.7870                 2.2928
 Frc consts  --      0.0207                 0.0467                 0.1128
 IR Inten    --      0.8800                 5.3688                13.4643

                      4                      5                      6
                      A                      A                      A
 Frequencies --    299.7539               393.4451               431.5618
 Red. masses --      3.4521                 1.1355                 4.8184
 Frc consts  --      0.1828                 0.1036                 0.5287
 IR Inten    --     23.0613                81.0847                20.5818

                      7                      8                      9
                      A                      A                      A
 Frequencies --    652.1496               853.7301              1032.8327
 Red. masses --      7.0014                 4.0819                 1.6019
 Frc consts  --      1.7544                 1.7529                 1.0068
 IR Inten    --      3.7152                18.2595                 1.9910

                     10                     11                     12
                      A                      A                      A
 Frequencies --   1072.5002              1156.5358              1196.2961
 Red. masses --      2.0658                 1.2855                 3.3406
 Frc consts  --      1.4000                 1.0131                 2.8168
 IR Inten    --     30.2286                 2.6159                74.3550

                     13                     14                     15
                      A                      A                      A
 Frequencies --   1374.8370              1390.3989              1426.4434
 Red. masses --      2.5579                 1.1844                 1.1666
 Frc consts  --      2.8486                 1.3491                 1.3986
 IR Inten    --     66.9290                46.1298                14.8805

                     16                     17                     18
                      A                      A                      A
 Frequencies --   1442.2981              1483.7378              1519.5980
 Red. masses --      1.4381                 1.0475                 1.1488
 Frc consts  --      1.7626                 1.3587                 1.5630
 IR Inten    --     29.4166                 9.1227                10.5675

                     19                     20                     21
                      A                      A                      A
 Frequencies --   1797.9185              2981.5612              3032.5717
 Red. masses --      8.7850                 1.0867                 1.0346
 Frc consts  --     16.7313                 5.6919                 5.6060
 IR Inten    --    285.0198                62.7414                34.3328

                     22                     23                     24
                      A                      A                      A
 Frequencies --   3093.3219              3155.5168              3743.3743
 Red. masses --      1.1048                 1.0992                 1.0684
 Frc consts  --      6.2287                 6.4484                 8.8211
 IR Inten    --     24.9920                 0.7403                30.0165

 - Thermochemistry -
 -------------------
 Temperature   298.150 Kelvin.  Pressure   1.00000 Atm.
 Atom     1 has atomic number  6 and mass  12.00000

 Molecular mass:    75.03203 amu.
 Principal axes and moments of inertia in atomic units:
                           1         2         3
     Eigenvalues --   196.96252 419.57253 596.90172
           X            0.99892  -0.04517  -0.01085
           Y            0.04501   0.99888  -0.01492
           Z            0.01151   0.01442   0.99983
 This molecule is an asymmetric top.
 Rotational symmetry number  1.
 Rotational temperatures (Kelvin)      0.43975     0.20643     0.14511
 Rotational constants (GHZ):           9.16287     4.30138     3.02351
 Zero-point vibrational energy     204415.2 (Joules/Mol)
                                   48.85640 (Kcal/Mol)
 Warning -- explicit consideration of   6 degrees of freedom as
           vibrations may cause significant error
 Vibrational temperatures:    209.51   303.01   415.74   431.28   566.08
          (Kelvin)            620.92   938.30  1228.33  1486.01  1543.09
                             1664.00  1721.20  1978.08  2000.47  2052.33
                             2075.14  2134.77  2186.36  2586.80  4289.80
                             4363.19  4450.59  4540.08  5385.87

 Zero-point correction=                           0.077858 (Hartree/Particle)
 Thermal correction to Energy=                    0.083671
 Thermal correction to Enthalpy=                  0.084615
 Thermal correction to Gibbs Free Energy=         0.049148
 Sum of electronic and zero-point Energies=           -284.307764
 Sum of electronic and thermal Energies=              -284.301951
 Sum of electronic and thermal Enthalpies=            -284.301006
 Sum of electronic and thermal Free Energies=         -284.336474

                     E (Thermal)             CV                S
                      KCal/Mol        Cal/Mol-Kelvin    Cal/Mol-Kelvin
 Total                   52.504             19.115             74.647
 Electronic               0.000              0.000              0.000
 Translational            0.889              2.981             38.862
 Rotational               0.889              2.981             25.404
 Vibrational             50.727             13.153             10.382
 Vibration     1          0.617              1.907              2.729
 Vibration     2          0.643              1.825              2.038
 Vibration     3          0.686              1.694              1.480
 Vibration     4          0.692              1.674              1.418
 Vibration     5          0.761              1.484              0.987
 Vibration     6          0.793              1.401              0.854

 Optimization completed.
    -- Stationary point found.
 Normal termination of Gaussian 09 at Fri Aug 26 07:13:10 2022.

 -----------------------------------------------------------------
 #P Geom=AllCheck Guess=TCheck SCRF=Check CCSD(T,E4T,FrzG4)/GTBas1
 -----------------------------------------------------------------

 Structure from the checkpoint file:  "G4.Frag_1159.chk"
 ---------
 Frag_1159
 ---------
 Charge =  0 Multiplicity = 1

 SCF Done:  E(RHF) =  -282.752226983     A.U. after   14 cycles
 E2 =    -0.7747822346D+00 EUMP2 =    -0.28352700921767D+03
 CCSD(T)
 CCSD(T)= -0.28358154869D+03
 Normal termination of Gaussian 09 at Fri Aug 26 07:14:06 2022.

 ---------------------------------------------------------
 #P Geom=AllCheck Guess=TCheck SCRF=Check MP4=FrzG4/GTBas2
 ---------------------------------------------------------

 Structure from the checkpoint file:  "G4.Frag_1159.chk"
 ---------
 Frag_1159
 ---------
 Charge =  0 Multiplicity = 1

 SCF Done:  E(RHF) =  -282.761344817     A.U. after   12 cycles
 E2 =    -0.7869220543D+00 EUMP2 =    -0.28354826687155D+03
 Normal termination of Gaussian 09 at Fri Aug 26 07:14:21 2022.

 ---------------------------------------------------------
 #P Geom=AllCheck Guess=TCheck SCRF=Check MP4=FrzG4/GTBas3
 ---------------------------------------------------------

 Structure from the checkpoint file:  "G4.Frag_1159.chk"
 ---------
 Frag_1159
 ---------
 Charge =  0 Multiplicity = 1

 SCF Done:  E(RHF) =  -282.786037537     A.U. after   12 cycles
 E2 =    -0.9495941525D+00 EUMP2 =    -0.28373563168948D+03
 Normal termination of Gaussian 09 at Fri Aug 26 07:15:30 2022.

 -----------------------------------------------------------
 #P Geom=AllCheck Guess=TCheck SCRF=Check MP2=Full/GTLargeXP
 -----------------------------------------------------------

 Structure from the checkpoint file:  "G4.Frag_1159.chk"
 ---------
 Frag_1159
 ---------
 Charge =  0 Multiplicity = 1

 SCF Done:  E(RHF) =  -282.864310609     A.U. after   12 cycles
 E2 =    -0.1239410372D+01 EUMP2 =    -0.28410372098088D+03
 Normal termination of Gaussian 09 at Fri Aug 26 07:16:12 2022.
 SCF Done:  E(RHF) =  -282.887258112     A.U. after    9 cycles
 Normal termination of Gaussian 09 at Fri Aug 26 07:17:00 2022.

                         Standard orientation:
 ---------------------------------------------------------------------
 Center     Atomic      Atomic             Coordinates (Angstroms)
 Number     Number       Type             X           Y           Z
 ---------------------------------------------------------------------
      1          6           0       -0.627768    1.368179   -0.028225
      2          7           0       -0.354224   -0.041772    0.148976
      3          8           0       -1.425298   -0.895786   -0.147504
      4          6           0        0.891461   -0.589215   -0.004114
      5          8           0        1.922065    0.046373   -0.009570
      6          1           0        0.328852    1.886498    0.051486
      7          1           0       -1.308726    1.730052    0.748710
      8          1           0       -1.072141    1.556643   -1.011736
      9          1           0       -1.848348   -1.070218    0.704180
     10          1           0        0.823640   -1.689054   -0.084846
 ---------------------------------------------------------------------

 SCF Done:  E(RHF) =  -282.892117478     A.U. after    8 cycles

 The electronic state is 1-A.
 Alpha  occ. eigenvalues --  -20.62814 -20.53461 -15.64605 -11.35694 -11.27049
 Alpha  occ. eigenvalues --   -1.45926  -1.38514  -1.17486  -0.97918  -0.80564
 Alpha  occ. eigenvalues --   -0.75529  -0.70598  -0.67136  -0.61470  -0.60030
 Alpha  occ. eigenvalues --   -0.56966  -0.54524  -0.53242  -0.44254  -0.39782
 Alpha virt. eigenvalues --    0.03664   0.04307   0.05138   0.05648   0.07095
 Alpha virt. eigenvalues --    0.07298   0.07790   0.09455   0.11066   0.13420
 Alpha virt. eigenvalues --    0.15034   0.15155   0.15811   0.16197   0.16796

 Mulliken charges:
               1
     1  C   -0.445021
     2  N   -0.012372
     3  O   -0.484033
     4  C    0.350388
     5  O   -0.601906
     6  H    0.240947
     7  H    0.171824
     8  H    0.187310
     9  H    0.398447
    10  H    0.194416
 Sum of Mulliken charges =  -0.00000

 Dipole moment (field-independent basis, Debye):
    X=             -3.4376    Y=             -0.3556    Z=              1.1635  Tot=              3.6466
 Quadrupole moment (field-independent basis, Debye-Ang):
   XX=            -35.8072   YY=            -26.0723   ZZ=            -28.8464
   XY=             -1.5307   XZ=             -3.0182   YZ=             -1.7401

 Normal termination of Gaussian 09 at Fri Aug 26 07:21:24 2022.
