 Gaussian 09, Revision E.01,
 Gaussian 09:  ES64L-G09RevE.01 30-Nov-2015

 -----
 #P G4
 -----

 ---------
 Frag_1136
 ---------
 Symbolic Z-matrix:
 Charge =  0 Multiplicity = 1

 SCF Done:  E(RB3LYP) =  -167.177735641     A.U. after   14 cycles
 SCF Done:  E(RB3LYP) =  -167.178623277     A.U. after   13 cycles
 SCF Done:  E(RB3LYP) =  -167.179469919     A.U. after   15 cycles
 SCF Done:  E(RB3LYP) =  -167.174634318     A.U. after   14 cycles
 SCF Done:  E(RB3LYP) =  -167.180752032     A.U. after   12 cycles
 SCF Done:  E(RB3LYP) =  -167.137304943     A.U. after   15 cycles
 SCF Done:  E(RB3LYP) =  -167.183607000     A.U. after   14 cycles
 SCF Done:  E(RB3LYP) =  -167.185910948     A.U. after   13 cycles
 SCF Done:  E(RB3LYP) =  -167.185579648     A.U. after   13 cycles
 SCF Done:  E(RB3LYP) =  -167.186386745     A.U. after   10 cycles
 SCF Done:  E(RB3LYP) =  -167.186551921     A.U. after    9 cycles
 SCF Done:  E(RB3LYP) =  -167.186552516     A.U. after    8 cycles
 SCF Done:  E(RB3LYP) =  -167.186552622     A.U. after    8 cycles
 Optimization completed.
    -- Stationary point found.
 Normal termination of Gaussian 09 at Thu Sep  1 17:20:17 2022.

 ----------------------------------------------------------
 #P Geom=AllCheck Guess=TCheck SCRF=Check B3LYP/GTBas3 Freq
 ----------------------------------------------------------

 Structure from the checkpoint file:  "G4.Frag_1136.chk"
 ---------
 Frag_1136
 ---------
 Charge =  0 Multiplicity = 1

 SCF Done:  E(RB3LYP) =  -167.186552622     A.U. after    1 cycles

  Exact polarizability:  33.383   2.529  29.000   0.002   0.002  18.220
 Approx polarizability:  39.003   1.037  47.190   0.002   0.001  26.010

                      1                      2                      3
                      A                      A                      A
 Frequencies --    195.8764               200.2430               241.8370
 Red. masses --      4.3349                 1.0474                 2.6394
 Frc consts  --      0.0980                 0.0247                 0.0910
 IR Inten    --     39.1914                12.7239               131.3088

                      4                      5                      6
                      A                      A                      A
 Frequencies --    274.2021               455.0727               487.0673
 Red. masses --      1.1362                 1.0785                 1.2520
 Frc consts  --      0.0503                 0.1316                 0.1750
 IR Inten    --     48.7360                 0.4255                74.1401

                      7                      8                      9
                      A                      A                      A
 Frequencies --   1074.2226              1131.9020              1371.6763
 Red. masses --      1.2648                 1.1646                 1.2775
 Frc consts  --      0.8599                 0.8791                 1.4162
 IR Inten    --     86.7360               170.4895                18.2427

                     10                     11                     12
                      A                      A                      A
 Frequencies --   1633.9134              1665.0919              1699.5170
 Red. masses --      3.9416                 1.2319                 1.0642
 Frc consts  --      6.1998                 2.0124                 1.8111
 IR Inten    --     29.7824                 2.7776                12.0048

                     13                     14                     15
                      A                      A                      A
 Frequencies --   1707.7029              2993.5907              3056.7394
 Red. masses --      1.1046                 1.0315                 1.1085
 Frc consts  --      1.8979                 5.4463                 6.1026
 IR Inten    --     10.8803               260.1483                 9.6542

                     16                     17                     18
                      A                      A                      A
 Frequencies --   3393.2073              3544.8863              3599.5072
 Red. masses --      1.0429                 1.0733                 1.0891
 Frc consts  --      7.0746                 7.9464                 8.3140
 IR Inten    --     81.1751                24.9602                 2.2926

 - Thermochemistry -
 -------------------
 Temperature   298.150 Kelvin.  Pressure   1.00000 Atm.
 Atom     1 has atomic number  7 and mass  14.00307

 Molecular mass:    47.04835 amu.
 Principal axes and moments of inertia in atomic units:
                           1         2         3
     Eigenvalues --    52.47145 340.68424 383.60606
           X            0.99924   0.03892   0.00000
           Y           -0.03892   0.99924   0.00007
           Z            0.00000  -0.00007   1.00000
 This molecule is an asymmetric top.
 Rotational symmetry number  1.
 Rotational temperatures (Kelvin)      1.65068     0.25423     0.22579
 Rotational constants (GHZ):          34.39473     5.29740     4.70467
 Zero-point vibrational energy     171821.2 (Joules/Mol)
                                   41.06624 (Kcal/Mol)
 Warning -- explicit consideration of   6 degrees of freedom as
           vibrations may cause significant error
 Vibrational temperatures:    281.82   288.10   347.95   394.52   654.75
          (Kelvin)            700.78  1545.56  1628.55  1973.53  2350.83
                             2395.69  2445.22  2457.00  4307.10  4397.96
                             4882.06  5100.29  5178.88

 Zero-point correction=                           0.065443 (Hartree/Particle)
 Thermal correction to Energy=                    0.070916
 Thermal correction to Enthalpy=                  0.071860
 Thermal correction to Gibbs Free Energy=         0.038499
 Sum of electronic and zero-point Energies=           -167.121109
 Sum of electronic and thermal Energies=              -167.115637
 Sum of electronic and thermal Enthalpies=            -167.114693
 Sum of electronic and thermal Free Energies=         -167.148053

                     E (Thermal)             CV                S
                      KCal/Mol        Cal/Mol-Kelvin    Cal/Mol-Kelvin
 Total                   44.500             16.606             70.213
 Electronic               0.000              0.000              0.000
 Translational            0.889              2.981             37.471
 Rotational               0.889              2.981             23.443
 Vibrational             42.723             10.645              9.300
 Vibration     1          0.636              1.846              2.171
 Vibration     2          0.638              1.840              2.131
 Vibration     3          0.658              1.776              1.789
 Vibration     4          0.677              1.721              1.570
 Vibration     5          0.813              1.350              0.781
 Vibration     6          0.843              1.279              0.691

 Optimization completed.
    -- Stationary point found.
 Normal termination of Gaussian 09 at Thu Sep  1 17:20:26 2022.

 -----------------------------------------------------------------
 #P Geom=AllCheck Guess=TCheck SCRF=Check CCSD(T,E4T,FrzG4)/GTBas1
 -----------------------------------------------------------------

 Structure from the checkpoint file:  "G4.Frag_1136.chk"
 ---------
 Frag_1136
 ---------
 Charge =  0 Multiplicity = 1

 SCF Done:  E(RHF) =  -166.156578001     A.U. after   12 cycles
 E2 =    -0.4840264183D+00 EUMP2 =    -0.16664060441911D+03
 CCSD(T)
 CCSD(T)= -0.16668952388D+03
 6874116\MP4SDQ=-166.6744181\CCSD=-166.6759614\CCSD(T)=-166.6895239\RMS
 Normal termination of Gaussian 09 at Thu Sep  1 17:20:36 2022.

 ---------------------------------------------------------
 #P Geom=AllCheck Guess=TCheck SCRF=Check MP4=FrzG4/GTBas2
 ---------------------------------------------------------

 Structure from the checkpoint file:  "G4.Frag_1136.chk"
 ---------
 Frag_1136
 ---------
 Charge =  0 Multiplicity = 1

 SCF Done:  E(RHF) =  -166.165299183     A.U. after   12 cycles
 E2 =    -0.4930540302D+00 EUMP2 =    -0.16665835321367D+03
 Normal termination of Gaussian 09 at Thu Sep  1 17:20:40 2022.

 ---------------------------------------------------------
 #P Geom=AllCheck Guess=TCheck SCRF=Check MP4=FrzG4/GTBas3
 ---------------------------------------------------------

 Structure from the checkpoint file:  "G4.Frag_1136.chk"
 ---------
 Frag_1136
 ---------
 Charge =  0 Multiplicity = 1

 SCF Done:  E(RHF) =  -166.184328946     A.U. after   11 cycles
 E2 =    -0.5923209355D+00 EUMP2 =    -0.16677664988185D+03
 Normal termination of Gaussian 09 at Thu Sep  1 17:20:52 2022.

 -----------------------------------------------------------
 #P Geom=AllCheck Guess=TCheck SCRF=Check MP2=Full/GTLargeXP
 -----------------------------------------------------------

 Structure from the checkpoint file:  "G4.Frag_1136.chk"
 ---------
 Frag_1136
 ---------
 Charge =  0 Multiplicity = 1

 SCF Done:  E(RHF) =  -166.233395183     A.U. after   11 cycles
 E2 =    -0.7693471387D+00 EUMP2 =    -0.16700274232175D+03
 Normal termination of Gaussian 09 at Thu Sep  1 17:21:00 2022.
 SCF Done:  E(RHF) =  -166.247275070     A.U. after    9 cycles
 Normal termination of Gaussian 09 at Thu Sep  1 17:21:12 2022.

                         Standard orientation:
 ---------------------------------------------------------------------
 Center     Atomic      Atomic             Coordinates (Angstroms)
 Number     Number       Type             X           Y           Z
 ---------------------------------------------------------------------
      1          7           0        1.075205    0.482853   -0.000136
      2          7           0        1.194673   -0.729911    0.000071
      3          7           0       -1.737879    0.065148   -0.000048
      4          1           0        1.888741    1.139724    0.000555
      5          1           0        0.133873    0.941778   -0.000633
      6          1           0       -2.333784   -0.045454   -0.814470
      7          1           0       -1.078792   -0.718985    0.000878
      8          1           0       -2.334024   -0.043691    0.814457
 ---------------------------------------------------------------------

 SCF Done:  E(RHF) =  -166.250106238     A.U. after    8 cycles

 The electronic state is 1-A.
 Alpha  occ. eigenvalues --  -15.65137 -15.56867 -15.54326  -1.34661  -1.14496
 Alpha  occ. eigenvalues --   -0.92848  -0.74371  -0.63327  -0.62749  -0.57490
 Alpha  occ. eigenvalues --   -0.52925  -0.44390  -0.34837
 Alpha virt. eigenvalues --    0.04953   0.05712   0.07325   0.07809   0.09971
 Alpha virt. eigenvalues --    0.10120   0.10155   0.10740   0.13232   0.14664
 Alpha virt. eigenvalues --    0.17448   0.19478   0.20320   0.21813   0.22001

 Mulliken charges:
               1
     1  N   -0.283551
     2  N   -0.361474
     3  N   -0.917660
     4  H    0.305327
     5  H    0.340734
     6  H    0.291566
     7  H    0.333521
     8  H    0.291538
 Sum of Mulliken charges =  -0.00000

 Dipole moment (field-independent basis, Debye):
    X=             -1.3863    Y=              2.1279    Z=              0.0012  Tot=              2.5397
 Quadrupole moment (field-independent basis, Debye-Ang):
   XX=            -16.8189   YY=            -20.6208   ZZ=            -18.4758
   XY=              5.8805   XZ=             -0.0011   YZ=              0.0026

 Normal termination of Gaussian 09 at Thu Sep  1 17:22:13 2022.
