 Gaussian 09, Revision E.01,
 Gaussian 09:  ES64L-G09RevE.01 30-Nov-2015

 -----
 #P G4
 -----

 --------
 Frag_671
 --------
 Symbolic Z-matrix:
 Charge =  0 Multiplicity = 1

 SCF Done:  E(RB3LYP) =  -263.302680976     A.U. after   15 cycles
 SCF Done:  E(RB3LYP) =  -263.323239897     A.U. after   12 cycles
 SCF Done:  E(RB3LYP) =  -263.325128058     A.U. after   12 cycles
 SCF Done:  E(RB3LYP) =  -263.325163851     A.U. after    9 cycles
 SCF Done:  E(RB3LYP) =  -263.325166189     A.U. after    8 cycles
 Optimization completed.
    -- Stationary point found.
 Normal termination of Gaussian 09 at Tue Aug 23 07:15:22 2022.

 ----------------------------------------------------------
 #P Geom=AllCheck Guess=TCheck SCRF=Check B3LYP/GTBas3 Freq
 ----------------------------------------------------------

 Structure from the checkpoint file:  "G4.Frag_671.chk"
 --------
 Frag_671
 --------
 Charge =  0 Multiplicity = 1

 SCF Done:  E(RB3LYP) =  -263.325166189     A.U. after    1 cycles

  Exact polarizability:  47.298  -0.682  46.575   0.000   0.000  20.066
 Approx polarizability:  71.222  -4.492  77.511   0.000   0.000  30.500

                      1                      2                      3
                      A                      A                      A
 Frequencies --    119.2761               301.9740               339.5429
 Red. masses --      2.9586                 4.0773                 1.1851
 Frc consts  --      0.0248                 0.2191                 0.0805
 IR Inten    --     18.3068                 5.6417                74.4848

                      4                      5                      6
                      A                      A                      A
 Frequencies --    498.1484               528.5669               650.6942
 Red. masses --      5.0167                 2.1906                 4.8765
 Frc consts  --      0.7335                 0.3606                 1.2165
 IR Inten    --      1.7508                12.9852                13.4731

                      7                      8                      9
                      A                      A                      A
 Frequencies --    847.5437               865.3833               915.6676
 Red. masses --      2.0385                 3.8642                 1.1389
 Frc consts  --      0.8628                 1.7050                 0.5626
 IR Inten    --      8.4977                45.4913               100.6436

                     10                     11                     12
                      A                      A                      A
 Frequencies --   1103.7696              1106.3526              1193.2326
 Red. masses --      1.2314                 1.7426                 1.1296
 Frc consts  --      0.8839                 1.2567                 0.9476
 IR Inten    --      6.5052               124.0469                32.6719

                     13                     14                     15
                      A                      A                      A
 Frequencies --   1247.7687              1390.1051              1436.5095
 Red. masses --      1.3134                 1.6867                 1.8132
 Frc consts  --      1.2048                 1.9204                 2.2046
 IR Inten    --    216.8118               108.5531                97.6075

                     16                     17                     18
                      A                      A                      A
 Frequencies --   1716.1636              1761.9857              2984.0552
 Red. masses --      7.6038                 7.6060                 1.0869
 Frc consts  --     13.1947                13.9127                 5.7021
 IR Inten    --     32.6046                52.1512                69.0695

                     19                     20                     21
                      A                      A                      A
 Frequencies --   3474.8383              3476.7383              3820.1920
 Red. masses --      1.0735                 1.0763                 1.0659
 Frc consts  --      7.6372                 7.6652                 9.1649
 IR Inten    --     12.0212                 4.1374                42.3164

 - Thermochemistry -
 -------------------
 Temperature   298.150 Kelvin.  Pressure   1.00000 Atm.
 Atom     1 has atomic number  7 and mass  14.00307

 Molecular mass:    72.03236 amu.
 Principal axes and moments of inertia in atomic units:
                           1         2         3
     Eigenvalues --   169.44676 421.99446 591.44122
           X            1.00000   0.00274   0.00000
           Y           -0.00274   1.00000  -0.00000
           Z           -0.00000   0.00000   1.00000
 This molecule is an asymmetric top.
 Rotational symmetry number  1.
 Rotational temperatures (Kelvin)      0.51116     0.20525     0.14645
 Rotational constants (GHZ):          10.65079     4.27669     3.05143
 Zero-point vibrational energy     178115.0 (Joules/Mol)
                                   42.57051 (Kcal/Mol)
 Warning -- explicit consideration of   5 degrees of freedom as
           vibrations may cause significant error
 Vibrational temperatures:    171.61   434.47   488.53   716.72   760.49
          (Kelvin)            936.20  1219.42  1245.09  1317.44  1588.08
                             1591.79  1716.79  1795.26  2000.05  2066.81
                             2469.17  2535.10  4293.38  4999.51  5002.24
                             5496.40

 Zero-point correction=                           0.067840 (Hartree/Particle)
 Thermal correction to Energy=                    0.073001
 Thermal correction to Enthalpy=                  0.073946
 Thermal correction to Gibbs Free Energy=         0.039712
 Sum of electronic and zero-point Energies=           -263.257326
 Sum of electronic and thermal Energies=              -263.252165
 Sum of electronic and thermal Enthalpies=            -263.251221
 Sum of electronic and thermal Free Energies=         -263.285455

                     E (Thermal)             CV                S
                      KCal/Mol        Cal/Mol-Kelvin    Cal/Mol-Kelvin
 Total                   45.809             17.335             72.051
 Electronic               0.000              0.000              0.000
 Translational            0.889              2.981             38.740
 Rotational               0.889              2.981             25.251
 Vibrational             44.032             11.374              8.060
 Vibration     1          0.609              1.933              3.112
 Vibration     2          0.694              1.670              1.406
 Vibration     3          0.719              1.596              1.214
 Vibration     4          0.854              1.254              0.663
 Vibration     5          0.884              1.187              0.590

 Optimization completed.
    -- Stationary point found.
 Normal termination of Gaussian 09 at Tue Aug 23 07:16:14 2022.

 -----------------------------------------------------------------
 #P Geom=AllCheck Guess=TCheck SCRF=Check CCSD(T,E4T,FrzG4)/GTBas1
 -----------------------------------------------------------------

 Structure from the checkpoint file:  "G4.Frag_671.chk"
 --------
 Frag_671
 --------
 Charge =  0 Multiplicity = 1

 SCF Done:  E(RHF) =  -261.775885711     A.U. after   13 cycles
 E2 =    -0.7504817529D+00 EUMP2 =    -0.26252636746383D+03
 CCSD(T)
 CCSD(T)= -0.26258249844D+03
 60588\CCSD=-262.555543\CCSD(T)=-262.5824984\RMSD=6.620e-09\PG=C01 [X(C
 Normal termination of Gaussian 09 at Tue Aug 23 07:17:28 2022.

 ---------------------------------------------------------
 #P Geom=AllCheck Guess=TCheck SCRF=Check MP4=FrzG4/GTBas2
 ---------------------------------------------------------

 Structure from the checkpoint file:  "G4.Frag_671.chk"
 --------
 Frag_671
 --------
 Charge =  0 Multiplicity = 1

 SCF Done:  E(RHF) =  -261.785921876     A.U. after   12 cycles
 E2 =    -0.7618469360D+00 EUMP2 =    -0.26254776881238D+03
 Normal termination of Gaussian 09 at Tue Aug 23 07:18:27 2022.

 ---------------------------------------------------------
 #P Geom=AllCheck Guess=TCheck SCRF=Check MP4=FrzG4/GTBas3
 ---------------------------------------------------------

 Structure from the checkpoint file:  "G4.Frag_671.chk"
 --------
 Frag_671
 --------
 Charge =  0 Multiplicity = 1

 SCF Done:  E(RHF) =  -261.812777486     A.U. after   13 cycles
 E2 =    -0.9029958856D+00 EUMP2 =    -0.26271577337195D+03
 Normal termination of Gaussian 09 at Tue Aug 23 07:45:21 2022.

 -----------------------------------------------------------
 #P Geom=AllCheck Guess=TCheck SCRF=Check MP2=Full/GTLargeXP
 -----------------------------------------------------------

 Structure from the checkpoint file:  "G4.Frag_671.chk"
 --------
 Frag_671
 --------
 Charge =  0 Multiplicity = 1

 SCF Done:  E(RHF) =  -261.884645097     A.U. after   12 cycles
 E2 =    -0.1183824654D+01 EUMP2 =    -0.26306846975032D+03
 Normal termination of Gaussian 09 at Tue Aug 23 07:47:05 2022.
 SCF Done:  E(RHF) =  -261.905181380     A.U. after    8 cycles
 Normal termination of Gaussian 09 at Tue Aug 23 07:49:13 2022.

                         Standard orientation:
 ---------------------------------------------------------------------
 Center     Atomic      Atomic             Coordinates (Angstroms)
 Number     Number       Type             X           Y           Z
 ---------------------------------------------------------------------
      1          7           0       -1.891489    0.081313    0.000000
      2          6           0       -0.814175   -0.584325    0.000001
      3          6           0        0.510782    0.124850   -0.000007
      4          7           0        0.667472    1.378543    0.000002
      5          8           0        1.600388   -0.682482   -0.000001
      6          1           0       -2.711372   -0.526756   -0.000003
      7          1           0       -0.775283   -1.685530   -0.000003
      8          1           0       -0.256141    1.816223    0.000010
      9          1           0        1.328163   -1.606224    0.000020
 ---------------------------------------------------------------------

 SCF Done:  E(RHF) =  -261.909524010     A.U. after    8 cycles

 The electronic state is 1-A.
 Alpha  occ. eigenvalues --  -20.60905 -15.59681 -15.54403 -11.35031 -11.32442
 Alpha  occ. eigenvalues --   -1.43643  -1.25783  -1.19365  -0.92890  -0.82527
 Alpha  occ. eigenvalues --   -0.73133  -0.70535  -0.65283  -0.61702  -0.58839
 Alpha  occ. eigenvalues --   -0.49599  -0.47878  -0.44126  -0.40351
 Alpha virt. eigenvalues --    0.02332   0.04280   0.05198   0.05794   0.06475
 Alpha virt. eigenvalues --    0.07314   0.07798   0.07970   0.10758   0.12035
 Alpha virt. eigenvalues --    0.12793   0.12987   0.14655   0.14951   0.15142

 Mulliken charges:
               1
     1  N   -0.536132
     2  C    0.011055
     3  C    0.465313
     4  N   -0.588994
     5  O   -0.504073
     6  H    0.306472
     7  H    0.158672
     8  H    0.315916
     9  H    0.371771
 Sum of Mulliken charges =  -0.00000

 Dipole moment (field-independent basis, Debye):
    X=             -2.8128    Y=             -4.6019    Z=              0.0000  Tot=              5.3934
 Quadrupole moment (field-independent basis, Debye-Ang):
   XX=            -32.1739   YY=            -26.3868   ZZ=            -30.7598
   XY=             -1.0219   XZ=              0.0001   YZ=             -0.0000

 Normal termination of Gaussian 09 at Tue Aug 23 08:54:18 2022.
