 Gaussian 09, Revision E.01,
 Gaussian 09:  ES64L-G09RevE.01 30-Nov-2015

 -----
 #P G4
 -----

 ---------
 Frag_1137
 ---------
 Symbolic Z-matrix:
 Charge =  0 Multiplicity = 1

 SCF Done:  E(RB3LYP) =  -355.624300162     A.U. after   16 cycles
 SCF Done:  E(RB3LYP) =  -355.651823947     A.U. after   13 cycles
 SCF Done:  E(RB3LYP) =  -355.656130901     A.U. after   13 cycles
 SCF Done:  E(RB3LYP) =  -355.656305120     A.U. after   12 cycles
 SCF Done:  E(RB3LYP) =  -355.656062315     A.U. after   12 cycles
 SCF Done:  E(RB3LYP) =  -355.656506426     A.U. after    9 cycles
 SCF Done:  E(RB3LYP) =  -355.656722837     A.U. after   12 cycles
 SCF Done:  E(RB3LYP) =  -355.659338003     A.U. after   14 cycles
 SCF Done:  E(RB3LYP) =  -355.663748324     A.U. after   14 cycles
 SCF Done:  E(RB3LYP) =  -355.666533506     A.U. after   13 cycles
 SCF Done:  E(RB3LYP) =  -355.671631606     A.U. after    9 cycles
 SCF Done:  E(RB3LYP) =  -355.671633246     A.U. after    8 cycles
 SCF Done:  E(RB3LYP) =  -355.671633573     A.U. after    8 cycles
 Optimization completed.
    -- Stationary point found.
 Normal termination of Gaussian 09 at Fri Aug 26 14:39:30 2022.

 ----------------------------------------------------------
 #P Geom=AllCheck Guess=TCheck SCRF=Check B3LYP/GTBas3 Freq
 ----------------------------------------------------------

 Structure from the checkpoint file:  "G4.Frag_1137.chk"
 ---------
 Frag_1137
 ---------
 Charge =  0 Multiplicity = 1

 SCF Done:  E(RB3LYP) =  -355.671633573     A.U. after    1 cycles

  Exact polarizability:  49.238   1.140  52.461  -1.741  -2.210  30.373
 Approx polarizability:  72.458  -3.357  97.915  -3.888 -11.027  47.673

                      1                      2                      3
                      A                      A                      A
 Frequencies --     93.9273               204.2720               338.1729
 Red. masses --      4.6542                 1.0769                 3.1871
 Frc consts  --      0.0242                 0.0265                 0.2147
 IR Inten    --      3.0266                 0.8441                 6.1131

                      4                      5                      6
                      A                      A                      A
 Frequencies --    381.6810               410.1013               471.4025
 Red. masses --      4.4000                 8.0970                 1.1118
 Frc consts  --      0.3777                 0.8023                 0.1456
 IR Inten    --      5.8750                23.5527                65.7321

                      7                      8                      9
                      A                      A                      A
 Frequencies --    510.3214               609.3573               743.5246
 Red. masses --      4.1615                 6.2551                 8.0647
 Frc consts  --      0.6385                 1.3685                 2.6268
 IR Inten    --      4.1123                 1.4317                12.9246

                     10                     11                     12
                      A                      A                      A
 Frequencies --    763.3371               862.5837               896.3448
 Red. masses --      6.7288                 1.1581                 3.7701
 Frc consts  --      2.3100                 0.5077                 1.7847
 IR Inten    --     27.5082                37.9719                38.5138

                     13                     14                     15
                      A                      A                      A
 Frequencies --   1097.1234              1149.3220              1179.5009
 Red. masses --      5.7248                 1.3885                 1.6963
 Frc consts  --      4.0600                 1.0807                 1.3904
 IR Inten    --     58.0665                 5.4120                 4.3772

                     16                     17                     18
                      A                      A                      A
 Frequencies --   1250.9641              1399.1505              1416.3027
 Red. masses --      3.2528                 1.2241                 1.1814
 Frc consts  --      2.9991                 1.4119                 1.3963
 IR Inten    --     59.5972                44.6318                30.1506

                     19                     20                     21
                      A                      A                      A
 Frequencies --   1453.6943              1485.3577              1494.3013
 Red. masses --      1.7130                 1.0484                 1.0667
 Frc consts  --      2.1329                 1.3628                 1.4034
 IR Inten    --    244.0163                 8.6482                 4.5441

                     22                     23                     24
                      A                      A                      A
 Frequencies --   1717.9118              3035.6382              3131.1479
 Red. masses --      6.9029                 1.0434                 1.0950
 Frc consts  --     12.0027                 5.6650                 6.3249
 IR Inten    --    200.6998                26.2342                12.9331

                     25                     26                     27
                      A                      A                      A
 Frequencies --   3192.5226              3432.2739              3774.7275
 Red. masses --      1.1005                 1.0701                 1.0678
 Frc consts  --      6.6083                 7.4273                 8.9646
 IR Inten    --      0.2090                32.0134                74.5696

 - Thermochemistry -
 -------------------
 Temperature   298.150 Kelvin.  Pressure   1.00000 Atm.
 Atom     1 has atomic number  6 and mass  12.00000

 Molecular mass:    91.03818 amu.
 Principal axes and moments of inertia in atomic units:
                           1         2         3
     Eigenvalues --   330.02446 485.42551 747.83561
           X            0.99517   0.09806   0.00439
           Y           -0.09815   0.99474   0.02938
           Z           -0.00149  -0.02967   0.99956
 This molecule is an asymmetric top.
 Rotational symmetry number  1.
 Rotational temperatures (Kelvin)      0.26245     0.17843     0.11582
 Rotational constants (GHZ):           5.46851     3.71785     2.41329
 Zero-point vibrational energy     218288.4 (Joules/Mol)
                                   52.17217 (Kcal/Mol)
 Warning -- explicit consideration of   8 degrees of freedom as
           vibrations may cause significant error
 Vibrational temperatures:    135.14   293.90   486.55   549.15   590.04
          (Kelvin)            678.24   734.24   876.73  1069.76  1098.27
                             1241.06  1289.64  1578.51  1653.62  1697.04
                             1799.86  2013.06  2037.74  2091.54  2137.10
                             2149.96  2471.69  4367.60  4505.02  4593.32
                             4938.27  5430.98

 Zero-point correction=                           0.083142 (Hartree/Particle)
 Thermal correction to Energy=                    0.089307
 Thermal correction to Enthalpy=                  0.090251
 Thermal correction to Gibbs Free Energy=         0.053454
 Sum of electronic and zero-point Energies=           -355.588492
 Sum of electronic and thermal Energies=              -355.582326
 Sum of electronic and thermal Enthalpies=            -355.581382
 Sum of electronic and thermal Free Energies=         -355.618180

                     E (Thermal)             CV                S
                      KCal/Mol        Cal/Mol-Kelvin    Cal/Mol-Kelvin
 Total                   56.041             21.777             77.446
 Electronic               0.000              0.000              0.000
 Translational            0.889              2.981             39.438
 Rotational               0.889              2.981             26.285
 Vibrational             54.264             15.816             11.723
 Vibration     1          0.603              1.954              3.577
 Vibration     2          0.640              1.834              2.094
 Vibration     3          0.718              1.599              1.221
 Vibration     4          0.751              1.509              1.032
 Vibration     5          0.774              1.448              0.926
 Vibration     6          0.828              1.313              0.734
 Vibration     7          0.865              1.227              0.633
 Vibration     8          0.968              1.012              0.434

 Optimization completed.
    -- Stationary point found.
 Normal termination of Gaussian 09 at Fri Aug 26 14:39:56 2022.

 -----------------------------------------------------------------
 #P Geom=AllCheck Guess=TCheck SCRF=Check CCSD(T,E4T,FrzG4)/GTBas1
 -----------------------------------------------------------------

 Structure from the checkpoint file:  "G4.Frag_1137.chk"
 ---------
 Frag_1137
 ---------
 Charge =  0 Multiplicity = 1

 SCF Done:  E(RHF) =  -353.623447457     A.U. after   14 cycles
 E2 =    -0.1009873761D+01 EUMP2 =    -0.35463332121881D+03
 CCSD(T)
 CCSD(T)= -0.35469290193D+03
 42\MP4SDQ=-354.6570509\CCSD=-354.6539403\CCSD(T)=-354.6929019\RMSD=7.3
 Normal termination of Gaussian 09 at Fri Aug 26 14:41:44 2022.

 ---------------------------------------------------------
 #P Geom=AllCheck Guess=TCheck SCRF=Check MP4=FrzG4/GTBas2
 ---------------------------------------------------------

 Structure from the checkpoint file:  "G4.Frag_1137.chk"
 ---------
 Frag_1137
 ---------
 Charge =  0 Multiplicity = 1

 SCF Done:  E(RHF) =  -353.636142455     A.U. after   14 cycles
 E2 =    -0.1025322033D+01 EUMP2 =    -0.35466146448747D+03
 Normal termination of Gaussian 09 at Fri Aug 26 14:42:17 2022.

 ---------------------------------------------------------
 #P Geom=AllCheck Guess=TCheck SCRF=Check MP4=FrzG4/GTBas3
 ---------------------------------------------------------

 Structure from the checkpoint file:  "G4.Frag_1137.chk"
 ---------
 Frag_1137
 ---------
 Charge =  0 Multiplicity = 1

 SCF Done:  E(RHF) =  -353.669010371     A.U. after   13 cycles
 E2 =    -0.1218064785D+01 EUMP2 =    -0.35488707515572D+03
 Normal termination of Gaussian 09 at Fri Aug 26 14:45:02 2022.

 -----------------------------------------------------------
 #P Geom=AllCheck Guess=TCheck SCRF=Check MP2=Full/GTLargeXP
 -----------------------------------------------------------

 Structure from the checkpoint file:  "G4.Frag_1137.chk"
 ---------
 Frag_1137
 ---------
 Charge =  0 Multiplicity = 1

 SCF Done:  E(RHF) =  -353.767017629     A.U. after   14 cycles
 E2 =    -0.1569357470D+01 EUMP2 =    -0.35533637509817D+03
 Normal termination of Gaussian 09 at Fri Aug 26 14:46:35 2022.
 SCF Done:  E(RHF) =  -353.796226073     A.U. after   10 cycles
 Normal termination of Gaussian 09 at Fri Aug 26 14:48:06 2022.

                         Standard orientation:
 ---------------------------------------------------------------------
 Center     Atomic      Atomic             Coordinates (Angstroms)
 Number     Number       Type             X           Y           Z
 ---------------------------------------------------------------------
      1          6           0       -1.258952   -1.142819   -0.328151
      2          7           0       -0.618041   -0.062693    0.434620
      3          8           0       -1.232805    1.143603    0.042856
      4          7           0        0.848870   -0.001027    0.037972
      5          7           0        1.354081    1.076808   -0.352305
      6          8           0        1.420755   -1.063741    0.229596
      7          1           0       -1.332074   -0.894281   -1.393721
      8          1           0       -2.258253   -1.283194    0.086193
      9          1           0       -0.667498   -2.043830   -0.183719
     10          1           0       -1.364826    1.607934    0.879914
     11          1           0        0.578386    1.739774   -0.441373
 ---------------------------------------------------------------------

 SCF Done:  E(RHF) =  -353.802314098     A.U. after    8 cycles

 The electronic state is 1-A.
 Alpha  occ. eigenvalues --  -20.64873 -20.56740 -15.82619 -15.70594 -15.61147
 Alpha  occ. eigenvalues --  -11.27999  -1.55867  -1.46779  -1.29574  -1.17823
 Alpha  occ. eigenvalues --   -0.96345  -0.84958  -0.80682  -0.75791  -0.70385
 Alpha  occ. eigenvalues --   -0.68831  -0.65255  -0.60237  -0.59442  -0.56781
 Alpha  occ. eigenvalues --   -0.50046  -0.47700  -0.44156  -0.40511
 Alpha virt. eigenvalues --    0.03410   0.04337   0.05131   0.05964   0.07877
 Alpha virt. eigenvalues --    0.08117   0.08766   0.09878   0.10671   0.11897
 Alpha virt. eigenvalues --    0.12891   0.13500   0.14418   0.15357   0.15613

 Mulliken charges:
               1
     1  C   -0.448863
     2  N    0.078947
     3  O   -0.509712
     4  N    0.457982
     5  N   -0.467381
     6  O   -0.478660
     7  H    0.190777
     8  H    0.191380
     9  H    0.241388
    10  H    0.415688
    11  H    0.328453
 Sum of Mulliken charges =  -0.00000

 Dipole moment (field-independent basis, Debye):
    X=             -4.4612    Y=              1.5159    Z=              0.3595  Tot=              4.7254
 Quadrupole moment (field-independent basis, Debye-Ang):
   XX=            -40.7308   YY=            -32.1588   ZZ=            -34.8485
   XY=              1.4371   XZ=             -1.1653   YZ=              3.7271

 Normal termination of Gaussian 09 at Fri Aug 26 14:53:40 2022.
