 Gaussian 09, Revision E.01,
 Gaussian 09:  ES64L-G09RevE.01 30-Nov-2015

 -----
 #P G4
 -----

 --------
 Frag_756
 --------
 Symbolic Z-matrix:
 Charge =  0 Multiplicity = 1

 SCF Done:  E(RB3LYP) =  -211.333837172     A.U. after   14 cycles
 SCF Done:  E(RB3LYP) =  -211.333948486     A.U. after   10 cycles
 SCF Done:  E(RB3LYP) =  -211.333919261     A.U. after   10 cycles
 SCF Done:  E(RB3LYP) =  -211.333956951     A.U. after    9 cycles
 SCF Done:  E(RB3LYP) =  -211.333959532     A.U. after    9 cycles
 SCF Done:  E(RB3LYP) =  -211.325069076     A.U. after   14 cycles
 SCF Done:  E(RB3LYP) =  -211.333959550     A.U. after    6 cycles
 SCF Done:  E(RB3LYP) =  -211.334656747     A.U. after   13 cycles
 SCF Done:  E(RB3LYP) =  -211.337661709     A.U. after   12 cycles
 SCF Done:  E(RB3LYP) =  -211.348279149     A.U. after   13 cycles
 SCF Done:  E(RB3LYP) =  -211.364305696     A.U. after    9 cycles
 SCF Done:  E(RB3LYP) =  -211.364306211     A.U. after    7 cycles
 SCF Done:  E(RB3LYP) =  -211.364306315     A.U. after    7 cycles
 Optimization completed.
    -- Stationary point found.
 Normal termination of Gaussian 09 at Thu Sep  1 15:49:56 2022.

 ----------------------------------------------------------
 #P Geom=AllCheck Guess=TCheck SCRF=Check B3LYP/GTBas3 Freq
 ----------------------------------------------------------

 Structure from the checkpoint file:  "G4.Frag_756.chk"
 --------
 Frag_756
 --------
 Charge =  0 Multiplicity = 1

 SCF Done:  E(RB3LYP) =  -211.364306315     A.U. after    1 cycles

  Exact polarizability:  77.015  -0.003  43.886  -1.633  -0.000  35.595
 Approx polarizability: 124.396  -0.007  56.722  -0.184  -0.001  52.035

                      1                      2                      3
                      A                      A                      A
 Frequencies --    180.0576               184.7644               188.6656
 Red. masses --      1.0372                 1.0767                 3.5041
 Frc consts  --      0.0198                 0.0217                 0.0735
 IR Inten    --      0.0007                 0.4162                 0.2453

                      4                      5                      6
                      A                      A                      A
 Frequencies --    289.4857               323.3164               492.3642
 Red. masses --      2.6175                 2.3112                 4.1199
 Frc consts  --      0.1292                 0.1423                 0.5885
 IR Inten    --      7.1210                 0.2316                10.8894

                      7                      8                      9
                      A                      A                      A
 Frequencies --    647.1089               739.0000               756.1853
 Red. masses --      5.7729                 4.0747                 1.1225
 Frc consts  --      1.4243                 1.3111                 0.3782
 IR Inten    --      2.3006                 0.2341                65.1181

                     10                     11                     12
                      A                      A                      A
 Frequencies --    983.5863              1022.5540              1030.9364
 Red. masses --      1.3755                 1.2334                 1.4730
 Frc consts  --      0.7840                 0.7599                 0.9224
 IR Inten    --      0.5581                 5.1234                42.3947

                     13                     14                     15
                      A                      A                      A
 Frequencies --   1077.5049              1102.2219              1211.6445
 Red. masses --      1.4050                 1.4512                 4.8564
 Frc consts  --      0.9611                 1.0388                 4.2006
 IR Inten    --    130.6344                51.2113                 0.4116

                     16                     17                     18
                      A                      A                      A
 Frequencies --   1392.3708              1402.3064              1420.9522
 Red. masses --      3.4033                 1.2111                 1.2357
 Frc consts  --      3.8875                 1.4032                 1.4700
 IR Inten    --     32.5367                 0.0261                 6.8067

                     19                     20                     21
                      A                      A                      A
 Frequencies --   1473.3395              1487.1471              1489.6824
 Red. masses --      1.0446                 1.0424                 1.0453
 Frc consts  --      1.3361                 1.3582                 1.3668
 IR Inten    --      0.0161                11.6300                 7.6665

                     22                     23                     24
                      A                      A                      A
 Frequencies --   1516.4897              2132.4706              3009.9803
 Red. masses --      1.1656                 9.9811                 1.0382
 Frc consts  --      1.5793                26.7419                 5.5420
 IR Inten    --      2.6030               320.4090                25.1829

                     25                     26                     27
                      A                      A                      A
 Frequencies --   3013.7729              3057.4464              3058.1849
 Red. masses --      1.0385                 1.1001                 1.1007
 Frc consts  --      5.5577                 6.0588                 6.0653
 IR Inten    --     60.9799                52.3815                 0.0683

                     28                     29                     30
                      A                      A                      A
 Frequencies --   3120.0651              3120.8368              3424.9811
 Red. masses --      1.0974                 1.0978                 1.0757
 Frc consts  --      6.2944                 6.2998                 7.4345
 IR Inten    --     15.8895                16.9114                 3.5259

 - Thermochemistry -
 -------------------
 Temperature   298.150 Kelvin.  Pressure   1.00000 Atm.
 Atom     1 has atomic number  6 and mass  12.00000

 Molecular mass:    69.05785 amu.
 Principal axes and moments of inertia in atomic units:
                           1         2         3
     Eigenvalues --   218.37381 478.09755 668.65665
           X            0.99988   0.00002  -0.01517
           Y           -0.00002   1.00000   0.00000
           Z            0.01517  -0.00000   0.99988
 This molecule is an asymmetric top.
 Rotational symmetry number  1.
 Rotational temperatures (Kelvin)      0.39663     0.18116     0.12953
 Rotational constants (GHZ):           8.26446     3.77484     2.69906
 Zero-point vibrational energy     265268.5 (Joules/Mol)
                                   63.40068 (Kcal/Mol)
 Warning -- explicit consideration of   6 degrees of freedom as
           vibrations may cause significant error
 Vibrational temperatures:    259.06   265.83   271.45   416.50   465.18
          (Kelvin)            708.40   931.04  1063.25  1087.98  1415.16
                             1471.23  1483.29  1550.29  1585.85  1743.28
                             2003.31  2017.60  2044.43  2119.80  2139.67
                             2143.32  2181.89  3068.15  4330.68  4336.14
                             4398.98  4400.04  4489.07  4490.18  4927.78

 Zero-point correction=                           0.101035 (Hartree/Particle)
 Thermal correction to Energy=                    0.107221
 Thermal correction to Enthalpy=                  0.108166
 Thermal correction to Gibbs Free Energy=         0.072016
 Sum of electronic and zero-point Energies=           -211.263271
 Sum of electronic and thermal Energies=              -211.257085
 Sum of electronic and thermal Enthalpies=            -211.256141
 Sum of electronic and thermal Free Energies=         -211.292291

                     E (Thermal)             CV                S
                      KCal/Mol        Cal/Mol-Kelvin    Cal/Mol-Kelvin
 Total                   67.282             21.047             76.084
 Electronic               0.000              0.000              0.000
 Translational            0.889              2.981             38.614
 Rotational               0.889              2.981             25.749
 Vibrational             65.505             15.085             11.721
 Vibration     1          0.629              1.867              2.328
 Vibration     2          0.631              1.861              2.280
 Vibration     3          0.633              1.855              2.241
 Vibration     4          0.686              1.693              1.477
 Vibration     5          0.708              1.629              1.293
 Vibration     6          0.848              1.267              0.677

 Optimization completed.
    -- Stationary point found.
 Normal termination of Gaussian 09 at Thu Sep  1 15:50:17 2022.

 -----------------------------------------------------------------
 #P Geom=AllCheck Guess=TCheck SCRF=Check CCSD(T,E4T,FrzG4)/GTBas1
 -----------------------------------------------------------------

 Structure from the checkpoint file:  "G4.Frag_756.chk"
 --------
 Frag_756
 --------
 Charge =  0 Multiplicity = 1

 SCF Done:  E(RHF) =  -209.943168503     A.U. after   12 cycles
 E2 =    -0.6716398271D+00 EUMP2 =    -0.21061480833029D+03
 CCSD(T)
 CCSD(T)= -0.21068593680D+03
 D=-210.6597187\CCSD(T)=-210.6859368\RMSD=9.847e-09\PG=C01 [X(C4H7N1)]\
 Normal termination of Gaussian 09 at Thu Sep  1 15:51:04 2022.

 ---------------------------------------------------------
 #P Geom=AllCheck Guess=TCheck SCRF=Check MP4=FrzG4/GTBas2
 ---------------------------------------------------------

 Structure from the checkpoint file:  "G4.Frag_756.chk"
 --------
 Frag_756
 --------
 Charge =  0 Multiplicity = 1

 SCF Done:  E(RHF) =  -209.948352116     A.U. after   13 cycles
 E2 =    -0.6785583243D+00 EUMP2 =    -0.21062691044062D+03
 Normal termination of Gaussian 09 at Thu Sep  1 15:51:18 2022.

 ---------------------------------------------------------
 #P Geom=AllCheck Guess=TCheck SCRF=Check MP4=FrzG4/GTBas3
 ---------------------------------------------------------

 Structure from the checkpoint file:  "G4.Frag_756.chk"
 --------
 Frag_756
 --------
 Charge =  0 Multiplicity = 1

 SCF Done:  E(RHF) =  -209.971973918     A.U. after   12 cycles
 E2 =    -0.8165533063D+00 EUMP2 =    -0.21078852722434D+03
 Normal termination of Gaussian 09 at Thu Sep  1 15:52:33 2022.

 -----------------------------------------------------------
 #P Geom=AllCheck Guess=TCheck SCRF=Check MP2=Full/GTLargeXP
 -----------------------------------------------------------

 Structure from the checkpoint file:  "G4.Frag_756.chk"
 --------
 Frag_756
 --------
 Charge =  0 Multiplicity = 1

 SCF Done:  E(RHF) =  -210.019368895     A.U. after   12 cycles
 E2 =    -0.1080437965D+01 EUMP2 =    -0.21109980685932D+03
 Normal termination of Gaussian 09 at Thu Sep  1 15:53:25 2022.
 SCF Done:  E(RHF) =  -210.035840499     A.U. after    9 cycles
 Normal termination of Gaussian 09 at Thu Sep  1 15:54:28 2022.

                         Standard orientation:
 ---------------------------------------------------------------------
 Center     Atomic      Atomic             Coordinates (Angstroms)
 Number     Number       Type             X           Y           Z
 ---------------------------------------------------------------------
      1          6           0       -1.129233    1.296250   -0.005973
      2          6           0       -0.352093   -0.000081   -0.001070
      3          6           0       -1.129907   -1.295909   -0.005964
      4          6           0        0.958279   -0.000156   -0.002582
      5          7           0        2.181624   -0.000258    0.125696
      6          1           0       -0.470955    2.167797    0.007325
      7          1           0       -1.787611    1.355915    0.870277
      8          1           0       -1.770032    1.366924   -0.894510
      9          1           0       -1.771382   -1.365821   -0.894077
     10          1           0       -1.787689   -1.355623    0.870738
     11          1           0       -0.472148   -2.167871    0.006330
     12          1           0        2.706179   -0.000133   -0.752416
 ---------------------------------------------------------------------

 SCF Done:  E(RHF) =  -210.039121731     A.U. after    8 cycles

 The electronic state is 1-A.
 Alpha  occ. eigenvalues --  -15.56993 -11.29736 -11.24031 -11.23253 -11.23249
 Alpha  occ. eigenvalues --   -1.23118  -1.08596  -0.94830  -0.89671  -0.73280
 Alpha  occ. eigenvalues --   -0.64619  -0.60258  -0.59369  -0.54540  -0.54399
 Alpha  occ. eigenvalues --   -0.52888  -0.51644  -0.45048  -0.32686
 Alpha virt. eigenvalues --    0.03895   0.04235   0.04369   0.05383   0.06950
 Alpha virt. eigenvalues --    0.07055   0.07624   0.07851   0.08068   0.10001
 Alpha virt. eigenvalues --    0.11156   0.11674   0.12231   0.12988   0.13905

 Mulliken charges:
               1
     1  C   -0.559843
     2  C    0.132493
     3  C   -0.559874
     4  C    0.250380
     5  N   -0.631756
     6  H    0.178888
     7  H    0.176371
     8  H    0.174309
     9  H    0.174305
    10  H    0.176402
    11  H    0.178866
    12  H    0.309459
 Sum of Mulliken charges =  -0.00000

 Dipole moment (field-independent basis, Debye):
    X=             -1.3915    Y=              0.0003    Z=             -1.4671  Tot=              2.0221
 Quadrupole moment (field-independent basis, Debye-Ang):
   XX=            -32.3375   YY=            -30.8660   ZZ=            -32.1871
   XY=              0.0014   XZ=             -4.5709   YZ=              0.0005

 Normal termination of Gaussian 09 at Thu Sep  1 16:00:46 2022.
