 Gaussian 09, Revision E.01,
 Gaussian 09:  ES64L-G09RevE.01 30-Nov-2015

 -----
 #P G4
 -----

 --------
 Frag_768
 --------
 Symbolic Z-matrix:
 Charge =  0 Multiplicity = 1

 SCF Done:  E(RB3LYP) =  -227.422725673     A.U. after   13 cycles
 SCF Done:  E(RB3LYP) =  -227.426057483     A.U. after   12 cycles
 SCF Done:  E(RB3LYP) =  -227.426170258     A.U. after   10 cycles
 SCF Done:  E(RB3LYP) =  -227.426182549     A.U. after    9 cycles
 SCF Done:  E(RB3LYP) =  -227.426187277     A.U. after    8 cycles
 SCF Done:  E(RB3LYP) =  -227.426189077     A.U. after    8 cycles
 SCF Done:  E(RB3LYP) =  -227.426189500     A.U. after    7 cycles
 SCF Done:  E(RB3LYP) =  -227.426189628     A.U. after    7 cycles
 Optimization completed.
    -- Stationary point found.
 Normal termination of Gaussian 09 at Sun Aug 21 10:30:41 2022.

 ----------------------------------------------------------
 #P Geom=AllCheck Guess=TCheck SCRF=Check B3LYP/GTBas3 Freq
 ----------------------------------------------------------

 Structure from the checkpoint file:  "G4.Frag_768.chk"
 --------
 Frag_768
 --------
 Charge =  0 Multiplicity = 1

 SCF Done:  E(RB3LYP) =  -227.426189628     A.U. after    1 cycles

  Exact polarizability:  53.286   1.101  39.324  -2.177   0.984  35.687
 Approx polarizability:  81.696   2.975  52.658  -6.801   1.447  53.193

                      1                      2                      3
                      A                      A                      A
 Frequencies --    194.3218               212.8339               246.6824
 Red. masses --      3.3970                 1.6043                 1.0393
 Frc consts  --      0.0756                 0.0428                 0.0373
 IR Inten    --      5.0659                15.5746                15.9557

                      4                      5                      6
                      A                      A                      A
 Frequencies --    296.8017               378.2680               565.1415
 Red. masses --      2.1061                 2.5597                 3.8189
 Frc consts  --      0.1093                 0.2158                 0.7186
 IR Inten    --     17.0502                 5.9186                 2.9480

                      7                      8                      9
                      A                      A                      A
 Frequencies --    584.6303               782.8191               856.1759
 Red. masses --      6.0513                 3.1065                 1.6775
 Frc consts  --      1.2186                 1.1216                 0.7245
 IR Inten    --      2.6699                 2.4293               145.1110

                     10                     11                     12
                      A                      A                      A
 Frequencies --    937.5608              1025.5202              1082.3962
 Red. masses --      1.4911                 1.5048                 3.0248
 Frc consts  --      0.7722                 0.9325                 2.0879
 IR Inten    --     22.5534                 3.6794                24.8922

                     13                     14                     15
                      A                      A                      A
 Frequencies --   1163.8991              1225.3826              1331.4164
 Red. masses --      1.5059                 1.6467                 1.2740
 Frc consts  --      1.2019                 1.4568                 1.3306
 IR Inten    --     10.0882                 8.0014                 6.1590

                     16                     17                     18
                      A                      A                      A
 Frequencies --   1405.3536              1406.7158              1487.5718
 Red. masses --      1.2260                 1.3358                 1.0454
 Frc consts  --      1.4267                 1.5574                 1.3630
 IR Inten    --      2.8610                10.5831                 3.2039

                     19                     20                     21
                      A                      A                      A
 Frequencies --   1496.1616              1657.3710              2363.3720
 Red. masses --      1.0657                 1.0870                12.6601
 Frc consts  --      1.4055                 1.7593                41.6631
 IR Inten    --      3.1533                21.2992                 2.4062

                     22                     23                     24
                      A                      A                      A
 Frequencies --   3035.8114              3038.4040              3116.7446
 Red. masses --      1.0775                 1.0388                 1.1028
 Frc consts  --      5.8507                 5.6505                 6.3116
 IR Inten    --      6.5516                13.7231                18.7718

                     25                     26                     27
                      A                      A                      A
 Frequencies --   3120.5101              3487.5858              3571.4340
 Red. masses --      1.1027                 1.0487                 1.0930
 Frc consts  --      6.3267                 7.5157                 8.2138
 IR Inten    --     18.1401                 0.6324                 1.8977

 - Thermochemistry -
 -------------------
 Temperature   298.150 Kelvin.  Pressure   1.00000 Atm.
 Atom     1 has atomic number  6 and mass  12.00000

 Molecular mass:    70.05310 amu.
 Principal axes and moments of inertia in atomic units:
                           1         2         3
     Eigenvalues --   219.67550 449.28110 613.42804
           X            0.99972  -0.02236   0.00734
           Y            0.02231   0.99973   0.00689
           Z           -0.00749  -0.00673   0.99995
 This molecule is an asymmetric top.
 Rotational symmetry number  1.
 Rotational temperatures (Kelvin)      0.39428     0.19278     0.14120
 Rotational constants (GHZ):           8.21549     4.01695     2.94206
 Zero-point vibrational energy     239677.1 (Joules/Mol)
                                   57.28421 (Kcal/Mol)
 Warning -- explicit consideration of   7 degrees of freedom as
           vibrations may cause significant error
 Vibrational temperatures:    279.59   306.22   354.92   427.03   544.24
          (Kelvin)            813.11   841.15  1126.30  1231.84  1348.94
                             1475.49  1557.32  1674.59  1763.05  1915.61
                             2021.99  2023.95  2140.28  2152.64  2384.58
                             3400.36  4367.85  4371.58  4484.29  4489.71
                             5017.85  5138.49

 Zero-point correction=                           0.091288 (Hartree/Particle)
 Thermal correction to Energy=                    0.097152
 Thermal correction to Enthalpy=                  0.098097
 Thermal correction to Gibbs Free Energy=         0.062685
 Sum of electronic and zero-point Energies=           -227.334901
 Sum of electronic and thermal Energies=              -227.329037
 Sum of electronic and thermal Enthalpies=            -227.328093
 Sum of electronic and thermal Free Energies=         -227.363505

                     E (Thermal)             CV                S
                      KCal/Mol        Cal/Mol-Kelvin    Cal/Mol-Kelvin
 Total                   60.964             20.064             74.530
 Electronic               0.000              0.000              0.000
 Translational            0.889              2.981             38.657
 Rotational               0.889              2.981             25.607
 Vibrational             59.187             14.103             10.265
 Vibration     1          0.635              1.848              2.186
 Vibration     2          0.644              1.821              2.019
 Vibration     3          0.661              1.768              1.754
 Vibration     4          0.690              1.680              1.435
 Vibration     5          0.749              1.516              1.046
 Vibration     6          0.921              1.107              0.514
 Vibration     7          0.942              1.065              0.477

 Optimization completed.
    -- Stationary point found.
 Normal termination of Gaussian 09 at Sun Aug 21 10:31:54 2022.

 -----------------------------------------------------------------
 #P Geom=AllCheck Guess=TCheck SCRF=Check CCSD(T,E4T,FrzG4)/GTBas1
 -----------------------------------------------------------------

 Structure from the checkpoint file:  "G4.Frag_768.chk"
 --------
 Frag_768
 --------
 Charge =  0 Multiplicity = 1

 SCF Done:  E(RHF) =  -225.976920161     A.U. after   13 cycles
 E2 =    -0.7054686617D+00 EUMP2 =    -0.22668238882249D+03
 CCSD(T)
 CCSD(T)= -0.22674454207D+03
 MP4SDQ=-226.7195836\CCSD=-226.7191241\CCSD(T)=-226.7445421\RMSD=7.866e
 Normal termination of Gaussian 09 at Sun Aug 21 10:33:27 2022.

 ---------------------------------------------------------
 #P Geom=AllCheck Guess=TCheck SCRF=Check MP4=FrzG4/GTBas2
 ---------------------------------------------------------

 Structure from the checkpoint file:  "G4.Frag_768.chk"
 --------
 Frag_768
 --------
 Charge =  0 Multiplicity = 1

 SCF Done:  E(RHF) =  -225.984191311     A.U. after   13 cycles
 E2 =    -0.7138102352D+00 EUMP2 =    -0.22669800154641D+03
 Normal termination of Gaussian 09 at Sun Aug 21 10:34:54 2022.

 ---------------------------------------------------------
 #P Geom=AllCheck Guess=TCheck SCRF=Check MP4=FrzG4/GTBas3
 ---------------------------------------------------------

 Structure from the checkpoint file:  "G4.Frag_768.chk"
 --------
 Frag_768
 --------
 Charge =  0 Multiplicity = 1

 SCF Done:  E(RHF) =  -226.005389058     A.U. after   12 cycles
 E2 =    -0.8501149105D+00 EUMP2 =    -0.22685550396840D+03
 Normal termination of Gaussian 09 at Sun Aug 21 11:08:35 2022.

 -----------------------------------------------------------
 #P Geom=AllCheck Guess=TCheck SCRF=Check MP2=Full/GTLargeXP
 -----------------------------------------------------------

 Structure from the checkpoint file:  "G4.Frag_768.chk"
 --------
 Frag_768
 --------
 Charge =  0 Multiplicity = 1

 SCF Done:  E(RHF) =  -226.060582823     A.U. after   12 cycles
 E2 =    -0.1118303830D+01 EUMP2 =    -0.22717888665386D+03
 Normal termination of Gaussian 09 at Sun Aug 21 11:10:52 2022.
 SCF Done:  E(RHF) =  -226.077764522     A.U. after    9 cycles
 Normal termination of Gaussian 09 at Sun Aug 21 11:13:51 2022.

                         Standard orientation:
 ---------------------------------------------------------------------
 Center     Atomic      Atomic             Coordinates (Angstroms)
 Number     Number       Type             X           Y           Z
 ---------------------------------------------------------------------
      1          6           0       -1.035432    1.237760   -0.151176
      2          6           0       -0.371747   -0.044764    0.390211
      3          7           0       -0.930694   -1.308101   -0.101521
      4          6           0        1.072967   -0.020831    0.102920
      5          7           0        2.200813    0.029446   -0.141760
      6          1           0       -2.099393    1.231863    0.104405
      7          1           0       -0.938399    1.289874   -1.239699
      8          1           0       -0.580378    2.135368    0.277924
      9          1           0       -0.472507   -0.055383    1.482989
     10          1           0       -1.916110   -1.348868    0.141982
     11          1           0       -0.878775   -1.335257   -1.116361
 ---------------------------------------------------------------------

 SCF Done:  E(RHF) =  -226.081244865     A.U. after    8 cycles

 The electronic state is 1-A.
 Alpha  occ. eigenvalues --  -15.57323 -15.56871 -11.31978 -11.27035 -11.24933
 Alpha  occ. eigenvalues --   -1.23697  -1.20208  -1.03557  -0.90538  -0.73896
 Alpha  occ. eigenvalues --   -0.65923  -0.62048  -0.61786  -0.57815  -0.55079
 Alpha  occ. eigenvalues --   -0.53921  -0.46549  -0.46369  -0.42656
 Alpha virt. eigenvalues --    0.02809   0.04052   0.04578   0.05179   0.07120
 Alpha virt. eigenvalues --    0.07463   0.07531   0.07861   0.08430   0.10188
 Alpha virt. eigenvalues --    0.11737   0.12562   0.12973   0.14182   0.14619

 Mulliken charges:
               1
     1  C   -0.524291
     2  C    0.027795
     3  N   -0.664047
     4  C    0.271531
     5  N   -0.446934
     6  H    0.172282
     7  H    0.182069
     8  H    0.187127
     9  H    0.201389
    10  H    0.294199
    11  H    0.298879
 Sum of Mulliken charges =  -0.00000

 Dipole moment (field-independent basis, Debye):
    X=             -4.9388    Y=              1.0393    Z=              0.1641  Tot=              5.0497
 Quadrupole moment (field-independent basis, Debye-Ang):
   XX=            -37.1925   YY=            -33.0860   ZZ=            -28.6706
   XY=              0.6282   XZ=              0.9072   YZ=              1.4502

 Normal termination of Gaussian 09 at Sun Aug 21 12:33:58 2022.
