 Gaussian 09, Revision E.01,
 Gaussian 09:  ES64L-G09RevE.01 30-Nov-2015

 -----
 #P G4
 -----

 ---------
 Frag_1008
 ---------
 Symbolic Z-matrix:
 Charge =  0 Multiplicity = 1

 SCF Done:  E(RB3LYP) =  -323.656871816     A.U. after   14 cycles
 SCF Done:  E(RB3LYP) =  -323.664629029     A.U. after   12 cycles
 SCF Done:  E(RB3LYP) =  -323.666532693     A.U. after   12 cycles
 SCF Done:  E(RB3LYP) =  -323.666811416     A.U. after   11 cycles
 SCF Done:  E(RB3LYP) =  -323.666872973     A.U. after    9 cycles
 SCF Done:  E(RB3LYP) =  -323.666878638     A.U. after    8 cycles
 Optimization completed.
    -- Stationary point found.
 Normal termination of Gaussian 09 at Mon Aug 22 22:54:09 2022.

 ----------------------------------------------------------
 #P Geom=AllCheck Guess=TCheck SCRF=Check B3LYP/GTBas3 Freq
 ----------------------------------------------------------

 Structure from the checkpoint file:  "G4.Frag_1008.chk"
 ---------
 Frag_1008
 ---------
 Charge =  0 Multiplicity = 1

 SCF Done:  E(RB3LYP) =  -323.666878638     A.U. after    1 cycles

  Exact polarizability:  53.166  -0.000  44.139   0.390   0.000  43.355
 Approx polarizability:  82.287   0.000  58.220  -3.409  -0.000  65.386

                      1                      2                      3
                      A                      A                      A
 Frequencies --     52.1239               158.8535               205.4170
 Red. masses --      6.8974                 1.0566                 1.0993
 Frc consts  --      0.0110                 0.0157                 0.0273
 IR Inten    --      0.0203               106.6221                 0.0001

                      4                      5                      6
                      A                      A                      A
 Frequencies --    246.4932               279.3215               313.3807
 Red. masses --      1.0455                 3.5285                 3.1862
 Frc consts  --      0.0374                 0.1622                 0.1844
 IR Inten    --      0.2526                 1.1734                 0.1314

                      7                      8                      9
                      A                      A                      A
 Frequencies --    356.9133               435.7733               453.4935
 Red. masses --      2.5803                 3.6398                 3.6863
 Frc consts  --      0.1937                 0.4072                 0.4467
 IR Inten    --      0.0667                 2.8847                15.1480

                     10                     11                     12
                      A                      A                      A
 Frequencies --    590.5014               750.2219               833.5886
 Red. masses --      3.8602                 5.2330                 4.1991
 Frc consts  --      0.7930                 1.7353                 1.7191
 IR Inten    --      0.2208                 4.2267                25.0422

                     13                     14                     15
                      A                      A                      A
 Frequencies --    928.0103               990.6949               991.3911
 Red. masses --      1.5209                 1.2829                 1.8206
 Frc consts  --      0.7717                 0.7419                 1.0543
 IR Inten    --      0.0276                 0.0010                 6.9984

                     16                     17                     18
                      A                      A                      A
 Frequencies --   1117.6910              1177.3660              1253.9981
 Red. masses --      1.4465                 3.5774                 3.5647
 Frc consts  --      1.0646                 2.9218                 3.3027
 IR Inten    --     66.7419                28.4906               125.1742

                     19                     20                     21
                      A                      A                      A
 Frequencies --   1328.1585              1381.3650              1399.3314
 Red. masses --      1.5201                 1.2458                 1.2280
 Frc consts  --      1.5799                 1.4006                 1.4167
 IR Inten    --     32.4723                 8.2708                 4.6132

                     22                     23                     24
                      A                      A                      A
 Frequencies --   1476.2822              1479.9632              1494.1930
 Red. masses --      1.0453                 1.0492                 1.0612
 Frc consts  --      1.3422                 1.3540                 1.3959
 IR Inten    --      0.6788                 0.7077                 2.6085

                     25                     26                     27
                      A                      A                      A
 Frequencies --   1504.7716              1684.3029              3039.5286
 Red. masses --      1.0640                13.8904                 1.0350
 Frc consts  --      1.4195                23.2170                 5.6339
 IR Inten    --     10.0287                65.5450                10.9464

                     28                     29                     30
                      A                      A                      A
 Frequencies --   3042.9761              3113.0360              3116.4378
 Red. masses --      1.0352                 1.1005                 1.1007
 Frc consts  --      5.6475                 6.2837                 6.2983
 IR Inten    --     15.3642                 5.8806                21.1291

                     31                     32                     33
                      A                      A                      A
 Frequencies --   3134.4322              3137.6090              3830.8992
 Red. masses --      1.1029                 1.1023                 1.0661
 Frc consts  --      6.3844                 6.3937                 9.2183
 IR Inten    --      5.2080                15.1894                26.5191

 - Thermochemistry -
 -------------------
 Temperature   298.150 Kelvin.  Pressure   1.00000 Atm.
 Atom     1 has atomic number  6 and mass  12.00000

 Molecular mass:    89.04768 amu.
 Principal axes and moments of inertia in atomic units:
                           1         2         3
     Eigenvalues --   383.45899 591.86305 605.33635
           X            0.99977   0.00000   0.02125
           Y           -0.00000   1.00000   0.00002
           Z           -0.02125  -0.00002   0.99977
 This molecule is an asymmetric top.
 Rotational symmetry number  1.
 Rotational temperatures (Kelvin)      0.22588     0.14634     0.14308
 Rotational constants (GHZ):           4.70648     3.04925     2.98139
 Zero-point vibrational energy     270945.3 (Joules/Mol)
                                   64.75749 (Kcal/Mol)
 Warning -- explicit consideration of  10 degrees of freedom as
           vibrations may cause significant error
 Vibrational temperatures:     74.99   228.55   295.55   354.65   401.88
          (Kelvin)            450.88   513.52   626.98   652.48   849.60
                             1079.40  1199.35  1335.20  1425.39  1426.39
                             1608.11  1693.96  1804.22  1910.92  1987.47
                             2013.32  2124.04  2129.33  2149.81  2165.03
                             2423.33  4373.20  4378.16  4478.96  4483.85
                             4509.74  4514.31  5511.80

 Zero-point correction=                           0.103198 (Hartree/Particle)
 Thermal correction to Energy=                    0.110830
 Thermal correction to Enthalpy=                  0.111774
 Thermal correction to Gibbs Free Energy=         0.071841
 Sum of electronic and zero-point Energies=           -323.563681
 Sum of electronic and thermal Energies=              -323.556048
 Sum of electronic and thermal Enthalpies=            -323.555104
 Sum of electronic and thermal Free Energies=         -323.595037

                     E (Thermal)             CV                S
                      KCal/Mol        Cal/Mol-Kelvin    Cal/Mol-Kelvin
 Total                   69.547             26.083             84.046
 Electronic               0.000              0.000              0.000
 Translational            0.889              2.981             39.372
 Rotational               0.889              2.981             26.421
 Vibrational             67.770             20.122             18.253
 Vibration     1          0.596              1.977              4.735
 Vibration     2          0.621              1.893              2.563
 Vibration     3          0.640              1.832              2.084
 Vibration     4          0.661              1.769              1.756
 Vibration     5          0.680              1.712              1.538
 Vibration     6          0.701              1.648              1.344
 Vibration     7          0.732              1.561              1.136
 Vibration     8          0.796              1.392              0.840
 Vibration     9          0.812              1.353              0.785
 Vibration    10          0.948              1.052              0.466

 Normal termination of Gaussian 09 at Mon Aug 22 22:56:17 2022.

 -----------------------------------------------------------------
 #P Geom=AllCheck Guess=TCheck SCRF=Check CCSD(T,E4T,FrzG4)/GTBas1
 -----------------------------------------------------------------

 Structure from the checkpoint file:  "G4.Frag_1008.chk"
 ---------
 Frag_1008
 ---------
 Charge =  0 Multiplicity = 1

 SCF Done:  E(RHF) =  -321.752899887     A.U. after   13 cycles
 E2 =    -0.9135711210D+00 EUMP2 =    -0.32266647100824D+03
 CCSD(T)
 CCSD(T)= -0.32274078227D+03
 01\MP4SDTQ=-322.7434505\MP4SDQ=-322.7113771\CCSD=-322.7101161\CCSD(T)=
 Normal termination of Gaussian 09 at Mon Aug 22 23:01:59 2022.

 ---------------------------------------------------------
 #P Geom=AllCheck Guess=TCheck SCRF=Check MP4=FrzG4/GTBas2
 ---------------------------------------------------------

 Structure from the checkpoint file:  "G4.Frag_1008.chk"
 ---------
 Frag_1008
 ---------
 Charge =  0 Multiplicity = 1

 SCF Done:  E(RHF) =  -321.762769936     A.U. after   13 cycles
 E2 =    -0.9275332349D+00 EUMP2 =    -0.32269030317090D+03
 Normal termination of Gaussian 09 at Mon Aug 22 23:07:16 2022.

 ---------------------------------------------------------
 #P Geom=AllCheck Guess=TCheck SCRF=Check MP4=FrzG4/GTBas3
 ---------------------------------------------------------

 Structure from the checkpoint file:  "G4.Frag_1008.chk"
 ---------
 Frag_1008
 ---------
 Charge =  0 Multiplicity = 1

 SCF Done:  E(RHF) =  -321.791996715     A.U. after   12 cycles
 E2 =    -0.1119860657D+01 EUMP2 =    -0.32291185737150D+03
 Normal termination of Gaussian 09 at Tue Aug 23 01:23:44 2022.

 -----------------------------------------------------------
 #P Geom=AllCheck Guess=TCheck SCRF=Check MP2=Full/GTLargeXP
 -----------------------------------------------------------

 Structure from the checkpoint file:  "G4.Frag_1008.chk"
 ---------
 Frag_1008
 ---------
 Charge =  0 Multiplicity = 1

 SCF Done:  E(RHF) =  -321.876972994     A.U. after   13 cycles
 E2 =    -0.1461642672D+01 EUMP2 =    -0.32333861566595D+03
 Normal termination of Gaussian 09 at Tue Aug 23 01:29:00 2022.
 SCF Done:  E(RHF) =  -321.903043514     A.U. after   10 cycles
 Normal termination of Gaussian 09 at Tue Aug 23 01:35:11 2022.

                         Standard orientation:
 ---------------------------------------------------------------------
 Center     Atomic      Atomic             Coordinates (Angstroms)
 Number     Number       Type             X           Y           Z
 ---------------------------------------------------------------------
      1          6           0        0.426286   -1.279161    0.799104
      2          6           0        0.348759   -0.000003   -0.036741
      3          6           0        0.426327    1.279131    0.799138
      4          8           0        1.279660   -0.000003   -1.097023
      5          7           0       -0.980447    0.000042   -0.785465
      6          8           0       -1.930013    0.000004   -0.050279
      7          1           0       -0.399594   -1.314471    1.513764
      8          1           0        1.370395   -1.311039    1.352639
      9          1           0        0.375743   -2.154923    0.146721
     10          1           0        0.375769    2.154914    0.146785
     11          1           0       -0.399529    1.314428    1.513828
     12          1           0        1.370454    1.310982    1.352645
     13          1           0        2.164481    0.000003   -0.718722
 ---------------------------------------------------------------------

 SCF Done:  E(RHF) =  -321.908541768     A.U. after    8 cycles

 The electronic state is 1-A.
 Alpha  occ. eigenvalues --  -20.62992 -20.57573 -15.69875 -11.33608 -11.23751
 Alpha  occ. eigenvalues --  -11.23750  -1.52344  -1.39206  -1.09020  -0.96579
 Alpha  occ. eigenvalues --   -0.96521  -0.79949  -0.71762  -0.69844  -0.64574
 Alpha  occ. eigenvalues --   -0.62957  -0.60231  -0.59709  -0.57228  -0.54690
 Alpha  occ. eigenvalues --   -0.53151  -0.53128  -0.46239  -0.39299
 Alpha virt. eigenvalues --    0.03012   0.03989   0.04607   0.05797   0.06766
 Alpha virt. eigenvalues --    0.07108   0.07370   0.07798   0.08847   0.08931
 Alpha virt. eigenvalues --    0.10146   0.11431   0.13029   0.14372   0.15445

 Mulliken charges:
               1
     1  C   -0.576454
     2  C    0.441730
     3  C   -0.576454
     4  O   -0.585221
     5  N    0.049079
     6  O   -0.269062
     7  H    0.204574
     8  H    0.171244
     9  H    0.197499
    10  H    0.197499
    11  H    0.204572
    12  H    0.171243
    13  H    0.369753
 Sum of Mulliken charges =  -0.00000

 Dipole moment (field-independent basis, Debye):
    X=              2.8355    Y=             -0.0000    Z=              2.5327  Tot=              3.8019
 Quadrupole moment (field-independent basis, Debye-Ang):
   XX=            -36.6182   YY=            -34.6715   ZZ=            -40.2508
   XY=              0.0001   XZ=              0.7458   YZ=              0.0002

 Normal termination of Gaussian 09 at Tue Aug 23 04:09:26 2022.
