 Gaussian 09, Revision E.01,
 Gaussian 09:  ES64L-G09RevE.01 30-Nov-2015

 -----
 #P G4
 -----

 --------
 Frag_492
 --------
 Symbolic Z-matrix:
 Charge =  0 Multiplicity = 1

 SCF Done:  E(RB3LYP) =  -230.265027153     A.U. after   12 cycles
 SCF Done:  E(RB3LYP) =  -230.268828523     A.U. after   11 cycles
 SCF Done:  E(RB3LYP) =  -230.269104461     A.U. after   10 cycles
 SCF Done:  E(RB3LYP) =  -230.269137983     A.U. after    9 cycles
 SCF Done:  E(RB3LYP) =  -230.269144410     A.U. after    8 cycles
 SCF Done:  E(RB3LYP) =  -230.269147123     A.U. after    7 cycles
 SCF Done:  E(RB3LYP) =  -230.269148639     A.U. after    7 cycles
 SCF Done:  E(RB3LYP) =  -230.269148780     A.U. after    6 cycles
 Optimization completed.
    -- Stationary point found.
 Normal termination of Gaussian 09 at Fri Aug 26 07:29:59 2022.

 ----------------------------------------------------------
 #P Geom=AllCheck Guess=TCheck SCRF=Check B3LYP/GTBas3 Freq
 ----------------------------------------------------------

 Structure from the checkpoint file:  "G4.Frag_492.chk"
 --------
 Frag_492
 --------
 Charge =  0 Multiplicity = 1

 SCF Done:  E(RB3LYP) =  -230.269148780     A.U. after    1 cycles

  Exact polarizability:  35.638  -1.748  29.517   1.003   1.063  29.716
 Approx polarizability:  43.549  -0.138  40.484   0.649  -0.006  42.063

                      1                      2                      3
                      A                      A                      A
 Frequencies --    149.7038               195.7434               366.3566
 Red. masses --      1.2837                 1.9236                 1.7090
 Frc consts  --      0.0170                 0.0434                 0.1351
 IR Inten    --      2.5576                 5.8349                51.8292

                      4                      5                      6
                      A                      A                      A
 Frequencies --    393.4954               590.7405               945.1966
 Red. masses --      1.4426                 3.7012                 4.4283
 Frc consts  --      0.1316                 0.7610                 2.3309
 IR Inten    --     69.8811                27.3996                26.2297

                      7                      8                      9
                      A                      A                      A
 Frequencies --   1036.9207              1066.2983              1151.2577
 Red. masses --      1.7130                 3.8603                 3.2240
 Frc consts  --      1.0852                 2.5860                 2.5176
 IR Inten    --     90.1758               132.2208               134.5771

                     10                     11                     12
                      A                      A                      A
 Frequencies --   1180.5452              1206.7962              1306.0799
 Red. masses --      1.3052                 1.4611                 1.3235
 Frc consts  --      1.0718                 1.2537                 1.3302
 IR Inten    --      7.8393                28.4971                16.7025

                     13                     14                     15
                      A                      A                      A
 Frequencies --   1394.4265              1438.5327              1480.0320
 Red. masses --      1.2291                 1.1368                 1.1596
 Frc consts  --      1.4080                 1.3860                 1.4965
 IR Inten    --     12.8446                28.9235                13.4813

                     16                     17                     18
                      A                      A                      A
 Frequencies --   1483.9713              1510.0674              1516.6480
 Red. masses --      1.0508                 1.0671                 1.0870
 Frc consts  --      1.3634                 1.4336                 1.4731
 IR Inten    --      2.3728                 3.2200                 2.4250

                     19                     20                     21
                      A                      A                      A
 Frequencies --   2989.5790              2998.0508              3048.0993
 Red. masses --      1.0448                 1.0532                 1.1101
 Frc consts  --      5.5017                 5.5776                 6.0766
 IR Inten    --     52.9483                65.5962                52.1148

                     22                     23                     24
                      A                      A                      A
 Frequencies --   3064.4825              3125.6939              3802.5414
 Red. masses --      1.0926                 1.1006                 1.0656
 Frc consts  --      6.0454                 6.3355                 9.0778
 IR Inten    --     38.9489                24.9014                22.6233

 - Thermochemistry -
 -------------------
 Temperature   298.150 Kelvin.  Pressure   1.00000 Atm.
 Atom     1 has atomic number  6 and mass  12.00000

 Molecular mass:    62.03678 amu.
 Principal axes and moments of inertia in atomic units:
                           1         2         3
     Eigenvalues --   104.61807 323.45592 374.76616
           X            0.99784  -0.06269   0.01951
           Y            0.06116   0.99558   0.07133
           Z           -0.02390  -0.06998   0.99726
 This molecule is an asymmetric top.
 Rotational symmetry number  1.
 Rotational temperatures (Kelvin)      0.82790     0.26778     0.23111
 Rotational constants (GHZ):          17.25076     5.57956     4.81565
 Zero-point vibrational energy     223948.5 (Joules/Mol)
                                   53.52497 (Kcal/Mol)
 Warning -- explicit consideration of   5 degrees of freedom as
           vibrations may cause significant error
 Vibrational temperatures:    215.39   281.63   527.10   566.15   849.94
          (Kelvin)           1359.93  1491.90  1534.16  1656.40  1698.54
                             1736.31  1879.16  2006.27  2069.73  2129.43
                             2135.10  2172.65  2182.12  4301.33  4313.52
                             4385.53  4409.10  4497.17  5471.00

 Zero-point correction=                           0.085297 (Hartree/Particle)
 Thermal correction to Energy=                    0.090371
 Thermal correction to Enthalpy=                  0.091315
 Thermal correction to Gibbs Free Energy=         0.057934
 Sum of electronic and zero-point Energies=           -230.183851
 Sum of electronic and thermal Energies=              -230.178778
 Sum of electronic and thermal Enthalpies=            -230.177833
 Sum of electronic and thermal Free Energies=         -230.211215

                     E (Thermal)             CV                S
                      KCal/Mol        Cal/Mol-Kelvin    Cal/Mol-Kelvin
 Total                   56.709             16.184             70.258
 Electronic               0.000              0.000              0.000
 Translational            0.889              2.981             38.295
 Rotational               0.889              2.981             24.054
 Vibrational             54.931             10.222              7.909
 Vibration     1          0.618              1.903              2.676
 Vibration     2          0.636              1.846              2.173
 Vibration     3          0.739              1.541              1.095
 Vibration     4          0.761              1.484              0.987
 Vibration     5          0.948              1.052              0.466

 Optimization completed.
    -- Stationary point found.
 Normal termination of Gaussian 09 at Fri Aug 26 07:30:14 2022.

 -----------------------------------------------------------------
 #P Geom=AllCheck Guess=TCheck SCRF=Check CCSD(T,E4T,FrzG4)/GTBas1
 -----------------------------------------------------------------

 Structure from the checkpoint file:  "G4.Frag_492.chk"
 --------
 Frag_492
 --------
 Charge =  0 Multiplicity = 1

 SCF Done:  E(RHF) =  -228.925714365     A.U. after   11 cycles
 E2 =    -0.6168887252D+00 EUMP2 =    -0.22954260309054D+03
 CCSD(T)
 CCSD(T)= -0.22959264169D+03
 CCSD(T)=-229.5926417\RMSD=8.004e-09\PG=C01 [X(C2H6O2)]\\@
 Normal termination of Gaussian 09 at Fri Aug 26 07:30:39 2022.

 ---------------------------------------------------------
 #P Geom=AllCheck Guess=TCheck SCRF=Check MP4=FrzG4/GTBas2
 ---------------------------------------------------------

 Structure from the checkpoint file:  "G4.Frag_492.chk"
 --------
 Frag_492
 --------
 Charge =  0 Multiplicity = 1

 SCF Done:  E(RHF) =  -228.933796525     A.U. after   11 cycles
 E2 =    -0.6279818339D+00 EUMP2 =    -0.22956177835890D+03
 Normal termination of Gaussian 09 at Fri Aug 26 07:30:48 2022.

 ---------------------------------------------------------
 #P Geom=AllCheck Guess=TCheck SCRF=Check MP4=FrzG4/GTBas3
 ---------------------------------------------------------

 Structure from the checkpoint file:  "G4.Frag_492.chk"
 --------
 Frag_492
 --------
 Charge =  0 Multiplicity = 1

 SCF Done:  E(RHF) =  -228.955528522     A.U. after   10 cycles
 E2 =    -0.7740973943D+00 EUMP2 =    -0.22972962591662D+03
 Normal termination of Gaussian 09 at Fri Aug 26 07:31:20 2022.

 -----------------------------------------------------------
 #P Geom=AllCheck Guess=TCheck SCRF=Check MP2=Full/GTLargeXP
 -----------------------------------------------------------

 Structure from the checkpoint file:  "G4.Frag_492.chk"
 --------
 Frag_492
 --------
 Charge =  0 Multiplicity = 1

 SCF Done:  E(RHF) =  -229.021301208     A.U. after   10 cycles
 E2 =    -0.1009463636D+01 EUMP2 =    -0.23003076484374D+03
 Normal termination of Gaussian 09 at Fri Aug 26 07:31:40 2022.
 SCF Done:  E(RHF) =  -229.040289305     A.U. after    8 cycles
 Normal termination of Gaussian 09 at Fri Aug 26 07:32:05 2022.

                         Standard orientation:
 ---------------------------------------------------------------------
 Center     Atomic      Atomic             Coordinates (Angstroms)
 Number     Number       Type             X           Y           Z
 ---------------------------------------------------------------------
      1          6           0        1.476125   -0.407340    0.106152
      2          8           0        0.577156    0.574238   -0.381537
      3          6           0       -0.669353    0.552396    0.252089
      4          8           0       -1.412085   -0.611963   -0.009466
      5          1           0        2.406981   -0.295531   -0.453821
      6          1           0        1.682795   -0.259490    1.177081
      7          1           0        1.084157   -1.421065   -0.036087
      8          1           0       -0.562664    0.584459    1.346335
      9          1           0       -1.185120    1.456143   -0.097801
     10          1           0       -1.587348   -0.633047   -0.957119
 ---------------------------------------------------------------------

 SCF Done:  E(RHF) =  -229.044559801     A.U. after    8 cycles

 The electronic state is 1-A.
 Alpha  occ. eigenvalues --  -20.56599 -20.56270 -11.33002 -11.27108  -1.41478
 Alpha  occ. eigenvalues --   -1.34248  -0.96553  -0.87057  -0.71760  -0.68073
 Alpha  occ. eigenvalues --   -0.66943  -0.59672  -0.58299  -0.54656  -0.48234
 Alpha  occ. eigenvalues --   -0.47440  -0.44522
 Alpha virt. eigenvalues --    0.04188   0.04799   0.04990   0.05720   0.07364
 Alpha virt. eigenvalues --    0.07735   0.08297   0.11901   0.12798   0.13937
 Alpha virt. eigenvalues --    0.16858   0.17097   0.17546   0.19367   0.19511

 Mulliken charges:
               1
     1  C   -0.334036
     2  O   -0.360396
     3  C    0.084219
     4  O   -0.567362
     5  H    0.179001
     6  H    0.147875
     7  H    0.183479
     8  H    0.145904
     9  H    0.157350
    10  H    0.363967
 Sum of Mulliken charges =  -0.00000

 Dipole moment (field-independent basis, Debye):
    X=              0.2547    Y=              0.0607    Z=             -0.1775  Tot=              0.3163
 Quadrupole moment (field-independent basis, Debye-Ang):
   XX=            -24.3712   YY=            -26.0740   ZZ=            -23.3738
   XY=             -3.0369   XZ=              3.0821   YZ=              2.0198

 Normal termination of Gaussian 09 at Fri Aug 26 07:35:00 2022.
