 Gaussian 09, Revision E.01,
 Gaussian 09:  ES64L-G09RevE.01 30-Nov-2015

 -----
 #P G4
 -----

 --------
 Frag_711
 --------
 Symbolic Z-matrix:
 Charge =  0 Multiplicity = 1

 SCF Done:  E(RB3LYP) =  -209.108409202     A.U. after   13 cycles
 SCF Done:  E(RB3LYP) =  -209.118283583     A.U. after   12 cycles
 SCF Done:  E(RB3LYP) =  -209.120645955     A.U. after   12 cycles
 SCF Done:  E(RB3LYP) =  -209.121731258     A.U. after   12 cycles
 SCF Done:  E(RB3LYP) =  -209.121996943     A.U. after   11 cycles
 SCF Done:  E(RB3LYP) =  -209.122075033     A.U. after   10 cycles
 SCF Done:  E(RB3LYP) =  -209.122120705     A.U. after   10 cycles
 SCF Done:  E(RB3LYP) =  -209.122151118     A.U. after   10 cycles
 SCF Done:  E(RB3LYP) =  -209.122183796     A.U. after   10 cycles
 SCF Done:  E(RB3LYP) =  -209.122203205     A.U. after   10 cycles
 SCF Done:  E(RB3LYP) =  -209.122209025     A.U. after    8 cycles
 SCF Done:  E(RB3LYP) =  -209.122209077     A.U. after    7 cycles
 SCF Done:  E(RB3LYP) =  -209.122209083     A.U. after    6 cycles
 Optimization completed.
    -- Stationary point found.
 Normal termination of Gaussian 09 at Mon Aug 22 20:34:30 2022.

 ----------------------------------------------------------
 #P Geom=AllCheck Guess=TCheck SCRF=Check B3LYP/GTBas3 Freq
 ----------------------------------------------------------

 Structure from the checkpoint file:  "G4.Frag_711.chk"
 --------
 Frag_711
 --------
 Charge =  0 Multiplicity = 1

 SCF Done:  E(RB3LYP) =  -209.122209083     A.U. after    1 cycles

  Exact polarizability:  54.896  -2.243  28.772  -0.000   0.000  21.530
 Approx polarizability:  74.306  -5.168  41.206  -0.000   0.000  30.943

                      1                      2                      3
                      A                      A                      A
 Frequencies --     54.8183               217.2243               343.9108
 Red. masses --      2.5204                 1.1714                 2.7057
 Frc consts  --      0.0045                 0.0326                 0.1885
 IR Inten    --      6.3628                43.9741                 3.6378

                      4                      5                      6
                      A                      A                      A
 Frequencies --    552.8683               699.7479               838.4758
 Red. masses --      3.5885                 1.4306                 1.4370
 Frc consts  --      0.6463                 0.4127                 0.5952
 IR Inten    --      4.3673                 3.7174                46.8541

                      7                      8                      9
                      A                      A                      A
 Frequencies --    873.1847              1003.8426              1005.9563
 Red. masses --      2.4230                 3.4807                 1.1180
 Frc consts  --      1.0885                 2.0666                 0.6666
 IR Inten    --      7.0216                40.6416                15.2239

                     10                     11                     12
                      A                      A                      A
 Frequencies --   1149.0877              1287.1699              1318.6499
 Red. masses --      1.7953                 1.9417                 1.1656
 Frc consts  --      1.3966                 1.8955                 1.1941
 IR Inten    --     65.2858               131.8910                 4.1584

                     13                     14                     15
                      A                      A                      A
 Frequencies --   1334.0656              1425.6924              1659.7053
 Red. masses --      1.1057                 1.1935                 1.0702
 Frc consts  --      1.1594                 1.4293                 1.7369
 IR Inten    --      0.8256                 8.5360                15.0180

                     16                     17                     18
                      A                      A                      A
 Frequencies --   1711.3151              3173.6055              3195.1600
 Red. masses --      4.9943                 1.0578                 1.0962
 Frc consts  --      8.6176                 6.2770                 6.5939
 IR Inten    --    144.1841                 2.3246                 5.0673

                     19                     20                     21
                      A                      A                      A
 Frequencies --   3268.6801              3429.6324              3511.1135
 Red. masses --      1.1155                 1.0477                 1.0953
 Frc consts  --      7.0218                 7.2610                 7.9558
 IR Inten    --      5.3151                 0.5992                 0.7495

 - Thermochemistry -
 -------------------
 Temperature   298.150 Kelvin.  Pressure   1.00000 Atm.
 Atom     1 has atomic number  6 and mass  12.00000

 Molecular mass:    59.03711 amu.
 Principal axes and moments of inertia in atomic units:
                           1         2         3
     Eigenvalues --    40.63214 401.09419 432.26414
           X            0.99999   0.00436   0.00000
           Y           -0.00436   0.99999   0.00001
           Z           -0.00000  -0.00001   1.00000
 This molecule is an asymmetric top.
 Rotational symmetry number  1.
 Rotational temperatures (Kelvin)      2.13166     0.21594     0.20037
 Rotational constants (GHZ):          44.41659     4.49954     4.17509
 Zero-point vibrational energy     191724.9 (Joules/Mol)
                                   45.82336 (Kcal/Mol)
 Warning -- explicit consideration of   4 degrees of freedom as
           vibrations may cause significant error
 Vibrational temperatures:     78.87   312.54   494.81   795.45  1006.78
          (Kelvin)           1206.38  1256.32  1444.30  1447.34  1653.28
                             1851.95  1897.24  1919.42  2051.25  2387.94
                             2462.20  4566.10  4597.12  4702.90  4934.47
                             5051.70

 Zero-point correction=                           0.073024 (Hartree/Particle)
 Thermal correction to Energy=                    0.078148
 Thermal correction to Enthalpy=                  0.079092
 Thermal correction to Gibbs Free Energy=         0.045384
 Sum of electronic and zero-point Energies=           -209.049185
 Sum of electronic and thermal Energies=              -209.044061
 Sum of electronic and thermal Enthalpies=            -209.043117
 Sum of electronic and thermal Free Energies=         -209.076825

                     E (Thermal)             CV                S
                      KCal/Mol        Cal/Mol-Kelvin    Cal/Mol-Kelvin
 Total                   49.039             16.015             70.946
 Electronic               0.000              0.000              0.000
 Translational            0.889              2.981             38.147
 Rotational               0.889              2.981             23.470
 Vibrational             47.261             10.053              9.329
 Vibration     1          0.596              1.976              4.636
 Vibration     2          0.646              1.815              1.982
 Vibration     3          0.723              1.588              1.194
 Vibration     4          0.908              1.133              0.538

 Optimization completed.
    -- Stationary point found.
 Normal termination of Gaussian 09 at Mon Aug 22 20:35:01 2022.

 -----------------------------------------------------------------
 #P Geom=AllCheck Guess=TCheck SCRF=Check CCSD(T,E4T,FrzG4)/GTBas1
 -----------------------------------------------------------------

 Structure from the checkpoint file:  "G4.Frag_711.chk"
 --------
 Frag_711
 --------
 Charge =  0 Multiplicity = 1

 SCF Done:  E(RHF) =  -207.853913142     A.U. after   13 cycles
 E2 =    -0.5952506906D+00 EUMP2 =    -0.20844916383243D+03
 CCSD(T)
 CCSD(T)= -0.20850379449D+03
 8842\CCSD=-208.4843934\CCSD(T)=-208.5037945\RMSD=2.602e-09\PG=C01 [X(C
 Normal termination of Gaussian 09 at Mon Aug 22 20:35:26 2022.

 ---------------------------------------------------------
 #P Geom=AllCheck Guess=TCheck SCRF=Check MP4=FrzG4/GTBas2
 ---------------------------------------------------------

 Structure from the checkpoint file:  "G4.Frag_711.chk"
 --------
 Frag_711
 --------
 Charge =  0 Multiplicity = 1

 SCF Done:  E(RHF) =  -207.862547757     A.U. after   12 cycles
 E2 =    -0.6042285295D+00 EUMP2 =    -0.20846677628644D+03
 Normal termination of Gaussian 09 at Mon Aug 22 20:35:37 2022.

 ---------------------------------------------------------
 #P Geom=AllCheck Guess=TCheck SCRF=Check MP4=FrzG4/GTBas3
 ---------------------------------------------------------

 Structure from the checkpoint file:  "G4.Frag_711.chk"
 --------
 Frag_711
 --------
 Charge =  0 Multiplicity = 1

 SCF Done:  E(RHF) =  -207.880449202     A.U. after   11 cycles
 E2 =    -0.7299847432D+00 EUMP2 =    -0.20861043394501D+03
 Normal termination of Gaussian 09 at Mon Aug 22 20:39:26 2022.

 -----------------------------------------------------------
 #P Geom=AllCheck Guess=TCheck SCRF=Check MP2=Full/GTLargeXP
 -----------------------------------------------------------

 Structure from the checkpoint file:  "G4.Frag_711.chk"
 --------
 Frag_711
 --------
 Charge =  0 Multiplicity = 1

 SCF Done:  E(RHF) =  -207.938441414     A.U. after   12 cycles
 E2 =    -0.9550077708D+00 EUMP2 =    -0.20889344918500D+03
 Normal termination of Gaussian 09 at Mon Aug 22 20:40:08 2022.
 SCF Done:  E(RHF) =  -207.955587922     A.U. after    9 cycles
 Normal termination of Gaussian 09 at Mon Aug 22 20:41:30 2022.

                         Standard orientation:
 ---------------------------------------------------------------------
 Center     Atomic      Atomic             Coordinates (Angstroms)
 Number     Number       Type             X           Y           Z
 ---------------------------------------------------------------------
      1          6           0        1.860848   -0.073540   -0.000010
      2          6           0        0.606304    0.362086    0.000010
      3          8           0       -0.455815   -0.496096    0.000016
      4          7           0       -1.696660    0.230623   -0.000009
      5          1           0        2.673763    0.639501   -0.000009
      6          1           0        2.101087   -1.129625   -0.000027
      7          1           0        0.320277    1.408704    0.000028
      8          1           0       -2.187426   -0.147710   -0.810757
      9          1           0       -2.187477   -0.147733    0.810696
 ---------------------------------------------------------------------

 SCF Done:  E(RHF) =  -207.959183995     A.U. after    8 cycles

 The electronic state is 1-A.
 Alpha  occ. eigenvalues --  -20.60733 -15.62327 -11.28684 -11.20665  -1.43459
 Alpha  occ. eigenvalues --   -1.12984  -0.99571  -0.78995  -0.71057  -0.69685
 Alpha  occ. eigenvalues --   -0.64264  -0.56887  -0.54323  -0.52820  -0.44816
 Alpha  occ. eigenvalues --   -0.34197
 Alpha virt. eigenvalues --    0.04286   0.04967   0.05646   0.06704   0.07647
 Alpha virt. eigenvalues --    0.08287   0.08361   0.10490   0.10916   0.11525
 Alpha virt. eigenvalues --    0.14439   0.15511   0.16384   0.18113   0.19445

 Mulliken charges:
               1
     1  C   -0.497418
     2  C    0.023405
     3  O   -0.258474
     4  N   -0.508004
     5  H    0.197873
     6  H    0.191946
     7  H    0.220994
     8  H    0.314838
     9  H    0.314839
 Sum of Mulliken charges =  -0.00000

 Dipole moment (field-independent basis, Debye):
    X=             -1.6098    Y=             -0.0185    Z=             -0.0001  Tot=              1.6099
 Quadrupole moment (field-independent basis, Debye-Ang):
   XX=            -18.9064   YY=            -25.3922   ZZ=            -25.2955
   XY=              1.9108   XZ=              0.0001   YZ=              0.0001

 Normal termination of Gaussian 09 at Mon Aug 22 21:18:47 2022.
