 Gaussian 09, Revision E.01,
 Gaussian 09:  ES64L-G09RevE.01 30-Nov-2015

 -----
 #P G4
 -----

 --------
 Frag_690
 --------
 Symbolic Z-matrix:
 Charge =  0 Multiplicity = 1

 SCF Done:  E(RB3LYP) =  -190.428065095     A.U. after   14 cycles
 SCF Done:  E(RB3LYP) =  -190.435127223     A.U. after   11 cycles
 SCF Done:  E(RB3LYP) =  -190.435828695     A.U. after   10 cycles
 SCF Done:  E(RB3LYP) =  -190.435939780     A.U. after   10 cycles
 SCF Done:  E(RB3LYP) =  -190.435948807     A.U. after    8 cycles
 Optimization completed.
    -- Stationary point found.
 Normal termination of Gaussian 09 at Mon Aug 22 18:30:55 2022.

 ----------------------------------------------------------
 #P Geom=AllCheck Guess=TCheck SCRF=Check B3LYP/GTBas3 Freq
 ----------------------------------------------------------

 Structure from the checkpoint file:  "G4.Frag_690.chk"
 --------
 Frag_690
 --------
 Charge =  0 Multiplicity = 1

 SCF Done:  E(RB3LYP) =  -190.435948807     A.U. after    1 cycles

  Exact polarizability:  54.960  -2.623  39.684   0.002  -0.000  37.722
 Approx polarizability:  67.815  -5.286  60.992  -0.000  -0.000  53.974

                      1                      2                      3
                      A                      A                      A
 Frequencies --    147.3875               227.1819               283.3405
 Red. masses --      2.7073                 1.0509                 2.4476
 Frc consts  --      0.0347                 0.0320                 0.1158
 IR Inten    --     26.8540                 0.0646                25.4087

                      4                      5                      6
                      A                      A                      A
 Frequencies --    331.0034               472.8368               799.1649
 Red. masses --      1.1323                 2.7446                 5.0706
 Frc consts  --      0.0731                 0.3615                 1.9080
 IR Inten    --      2.1350                 2.3852                53.6464

                      7                      8                      9
                      A                      A                      A
 Frequencies --    827.1273               918.6094              1071.1231
 Red. masses --      1.0786                 2.1642                 2.0198
 Frc consts  --      0.4348                 1.0760                 1.3653
 IR Inten    --      0.0116                18.8510                 2.6302

                     10                     11                     12
                      A                      A                      A
 Frequencies --   1091.2770              1092.1520              1172.9224
 Red. masses --      1.2119                 1.7161                 1.5383
 Frc consts  --      0.8503                 1.2060                 1.2469
 IR Inten    --     21.0617                29.1443                 8.6424

                     13                     14                     15
                      A                      A                      A
 Frequencies --   1229.8603              1260.7972              1379.7855
 Red. masses --      2.4769                 1.1677                 1.3314
 Frc consts  --      2.2074                 1.0936                 1.4935
 IR Inten    --     21.0733                 3.5217                35.2744

                     16                     17                     18
                      A                      A                      A
 Frequencies --   1404.7533              1480.6792              1483.2668
 Red. masses --      1.3763                 1.1319                 1.0421
 Frc consts  --      1.6001                 1.4622                 1.3508
 IR Inten    --     20.0460                 8.6101                 2.6762

                     19                     20                     21
                      A                      A                      A
 Frequencies --   1501.1640              1531.8684              1592.8139
 Red. masses --      1.0450                 1.1161                 1.0590
 Frc consts  --      1.3874                 1.5430                 1.5829
 IR Inten    --      6.2411                20.7445                21.2419

                     22                     23                     24
                      A                      A                      A
 Frequencies --   1665.6250              2698.5944              2741.3191
 Red. masses --      1.0506                 1.0972                 1.0502
 Frc consts  --      1.7173                 4.7076                 4.6500
 IR Inten    --     40.0018               283.5348               154.6034

                     25                     26                     27
                      A                      A                      A
 Frequencies --   2939.2282              3033.0889              3039.0296
 Red. masses --      1.0944                 1.0349                 1.0344
 Frc consts  --      5.5704                 5.6092                 5.6285
 IR Inten    --     75.3330               279.4771                 3.7040

                     28                     29                     30
                      A                      A                      A
 Frequencies --   3110.5135              3112.2659              3501.2859
 Red. masses --      1.1017                 1.1017                 1.0764
 Frc consts  --      6.2802                 6.2871                 7.7744
 IR Inten    --     35.0264                31.9663                29.9814

 - Thermochemistry -
 -------------------
 Temperature   298.150 Kelvin.  Pressure   1.00000 Atm.
 Atom     1 has atomic number  6 and mass  12.00000

 Molecular mass:    60.06875 amu.
 Principal axes and moments of inertia in atomic units:
                           1         2         3
     Eigenvalues --    64.10173 447.03981 478.85734
           X            0.99993  -0.01222  -0.00000
           Y            0.01222   0.99993  -0.00000
           Z            0.00000   0.00000   1.00000
 This molecule is an asymmetric top.
 Rotational symmetry number  1.
 Rotational temperatures (Kelvin)      1.35119     0.19375     0.18088
 Rotational constants (GHZ):          28.15433     4.03709     3.76885
 Zero-point vibrational energy     281960.2 (Joules/Mol)
                                   67.39011 (Kcal/Mol)
 Warning -- explicit consideration of   5 degrees of freedom as
           vibrations may cause significant error
 Vibrational temperatures:    212.06   326.86   407.66   476.24   680.31
          (Kelvin)           1149.82  1190.05  1321.67  1541.11  1570.10
                             1571.36  1687.57  1769.49  1814.00  1985.20
                             2021.12  2130.36  2134.09  2159.84  2204.01
                             2291.70  2396.46  3882.67  3944.14  4228.89
                             4363.93  4372.48  4475.33  4477.85  5037.56

 Zero-point correction=                           0.107393 (Hartree/Particle)
 Thermal correction to Energy=                    0.112829
 Thermal correction to Enthalpy=                  0.113773
 Thermal correction to Gibbs Free Energy=         0.079862
 Sum of electronic and zero-point Energies=           -190.328556
 Sum of electronic and thermal Energies=              -190.323120
 Sum of electronic and thermal Enthalpies=            -190.322176
 Sum of electronic and thermal Free Energies=         -190.356087

                     E (Thermal)             CV                S
                      KCal/Mol        Cal/Mol-Kelvin    Cal/Mol-Kelvin
 Total                   70.801             18.103             71.373
 Electronic               0.000              0.000              0.000
 Translational            0.889              2.981             38.199
 Rotational               0.889              2.981             24.132
 Vibrational             69.024             12.142              9.042
 Vibration     1          0.617              1.906              2.706
 Vibration     2          0.651              1.800              1.901
 Vibration     3          0.682              1.705              1.513
 Vibration     4          0.713              1.614              1.255
 Vibration     5          0.830              1.310              0.730

 Normal termination of Gaussian 09 at Mon Aug 22 18:31:44 2022.

 -----------------------------------------------------------------
 #P Geom=AllCheck Guess=TCheck SCRF=Check CCSD(T,E4T,FrzG4)/GTBas1
 -----------------------------------------------------------------

 Structure from the checkpoint file:  "G4.Frag_690.chk"
 --------
 Frag_690
 --------
 Charge =  0 Multiplicity = 1

 SCF Done:  E(RHF) =  -189.158875734     A.U. after   12 cycles
 E2 =    -0.5965448935D+00 EUMP2 =    -0.18975542062748D+03
 CCSD(T)
 CCSD(T)= -0.18981916761D+03
 D=-189.8012049\CCSD(T)=-189.8191676\RMSD=9.526e-09\PG=C01 [X(C2H8N2)]\
 Normal termination of Gaussian 09 at Mon Aug 22 18:32:28 2022.

 ---------------------------------------------------------
 #P Geom=AllCheck Guess=TCheck SCRF=Check MP4=FrzG4/GTBas2
 ---------------------------------------------------------

 Structure from the checkpoint file:  "G4.Frag_690.chk"
 --------
 Frag_690
 --------
 Charge =  0 Multiplicity = 1

 SCF Done:  E(RHF) =  -189.168678173     A.U. after   12 cycles
 E2 =    -0.6067161099D+00 EUMP2 =    -0.18977539428335D+03
 Normal termination of Gaussian 09 at Mon Aug 22 18:32:49 2022.

 ---------------------------------------------------------
 #P Geom=AllCheck Guess=TCheck SCRF=Check MP4=FrzG4/GTBas3
 ---------------------------------------------------------

 Structure from the checkpoint file:  "G4.Frag_690.chk"
 --------
 Frag_690
 --------
 Charge =  0 Multiplicity = 1

 SCF Done:  E(RHF) =  -189.187587563     A.U. after   11 cycles
 E2 =    -0.7389511440D+00 EUMP2 =    -0.18992653870713D+03
 Normal termination of Gaussian 09 at Mon Aug 22 18:52:04 2022.

 -----------------------------------------------------------
 #P Geom=AllCheck Guess=TCheck SCRF=Check MP2=Full/GTLargeXP
 -----------------------------------------------------------

 Structure from the checkpoint file:  "G4.Frag_690.chk"
 --------
 Frag_690
 --------
 Charge =  0 Multiplicity = 1

 SCF Done:  E(RHF) =  -189.239691179     A.U. after   12 cycles
 E2 =    -0.9646656297D+00 EUMP2 =    -0.19020435680883D+03
 Normal termination of Gaussian 09 at Mon Aug 22 18:53:22 2022.
 SCF Done:  E(RHF) =  -189.254741776     A.U. after    9 cycles
 Normal termination of Gaussian 09 at Mon Aug 22 18:55:29 2022.

                         Standard orientation:
 ---------------------------------------------------------------------
 Center     Atomic      Atomic             Coordinates (Angstroms)
 Number     Number       Type             X           Y           Z
 ---------------------------------------------------------------------
      1          6           0        1.895173   -0.129483    0.000000
      2          6           0        0.483943    0.451777    0.000000
      3          7           0       -0.473055   -0.614783    0.000000
      4          7           0       -1.737765    0.042271    0.000000
      5          1           0        2.652195    0.660837   -0.000004
      6          1           0        2.044475   -0.756755    0.883937
      7          1           0        2.044472   -0.756759   -0.883934
      8          1           0        0.380338    1.137413    0.883895
      9          1           0        0.380337    1.137413   -0.883894
     10          1           0       -2.461928   -0.675159   -0.000004
     11          1           0       -1.919425    0.663415    0.824601
     12          1           0       -1.919421    0.663420   -0.824598
 ---------------------------------------------------------------------

 SCF Done:  E(RHF) =  -189.258131765     A.U. after    8 cycles

 The electronic state is 1-A.
 Alpha  occ. eigenvalues --  -15.68962 -15.48309 -11.22082 -11.18636  -1.31339
 Alpha  occ. eigenvalues --   -1.06656  -0.93197  -0.79624  -0.73142  -0.72646
 Alpha  occ. eigenvalues --   -0.62372  -0.57930  -0.50243  -0.47820  -0.46842
 Alpha  occ. eigenvalues --   -0.39069  -0.29132
 Alpha virt. eigenvalues --    0.02407   0.05137   0.05552   0.05601   0.07846
 Alpha virt. eigenvalues --    0.08106   0.08127   0.10137   0.10215   0.10952
 Alpha virt. eigenvalues --    0.12667   0.14621   0.14904   0.17865   0.18579

 Mulliken charges:
               1
     1  C   -0.498903
     2  C   -0.086620
     3  N   -0.590632
     4  N   -0.428093
     5  H    0.148866
     6  H    0.170564
     7  H    0.170564
     8  H    0.058159
     9  H    0.058159
    10  H    0.361832
    11  H    0.318052
    12  H    0.318052
 Sum of Mulliken charges =  -0.00000

 Dipole moment (field-independent basis, Debye):
    X=             -4.3379    Y=              2.5660    Z=             -0.0000  Tot=              5.0400
 Quadrupole moment (field-independent basis, Debye-Ang):
   XX=            -16.0436   YY=            -29.9363   ZZ=            -27.4455
   XY=             -1.4803   XZ=              0.0000   YZ=              0.0000

 Normal termination of Gaussian 09 at Mon Aug 22 19:50:29 2022.
