 Gaussian 09, Revision E.01,
 Gaussian 09:  ES64L-G09RevE.01 30-Nov-2015

 -----
 #P G4
 -----

 --------
 Frag_787
 --------
 Symbolic Z-matrix:
 Charge =  0 Multiplicity = 1

 SCF Done:  E(RB3LYP) =  -400.180974379     A.U. after   12 cycles
 SCF Done:  E(RB3LYP) =  -400.188171306     A.U. after   11 cycles
 SCF Done:  E(RB3LYP) =  -400.189827265     A.U. after   11 cycles
 SCF Done:  E(RB3LYP) =  -400.190451275     A.U. after   10 cycles
 SCF Done:  E(RB3LYP) =  -400.191280032     A.U. after   11 cycles
 SCF Done:  E(RB3LYP) =  -400.192461015     A.U. after   11 cycles
 SCF Done:  E(RB3LYP) =  -400.194010035     A.U. after   11 cycles
 SCF Done:  E(RB3LYP) =  -400.195852741     A.U. after   12 cycles
 SCF Done:  E(RB3LYP) =  -400.197276019     A.U. after   11 cycles
 SCF Done:  E(RB3LYP) =  -400.198784144     A.U. after   11 cycles
 SCF Done:  E(RB3LYP) =  -400.199940580     A.U. after   10 cycles
 SCF Done:  E(RB3LYP) =  -400.199950299     A.U. after    8 cycles
 SCF Done:  E(RB3LYP) =  -400.199951900     A.U. after    7 cycles
 Optimization completed.
    -- Stationary point found.
 Normal termination of Gaussian 09 at Fri Aug 26 06:18:12 2022.

 ----------------------------------------------------------
 #P Geom=AllCheck Guess=TCheck SCRF=Check B3LYP/GTBas3 Freq
 ----------------------------------------------------------

 Structure from the checkpoint file:  "G4.Frag_787.chk"
 --------
 Frag_787
 --------
 Charge =  0 Multiplicity = 1

 SCF Done:  E(RB3LYP) =  -400.199951900     A.U. after    1 cycles

  Exact polarizability:  56.515  -0.887  51.544  -0.058   0.303  49.000
 Approx polarizability:  74.319  -2.389  71.555  -1.431  -0.015  72.702

                      1                      2                      3
                      A                      A                      A
 Frequencies --    105.3797               230.2115               248.4456
 Red. masses --      3.5845                 1.6098                 1.6798
 Frc consts  --      0.0235                 0.0503                 0.0611
 IR Inten    --      4.9097                 2.9830                 6.7234

                      4                      5                      6
                      A                      A                      A
 Frequencies --    255.5129               258.6613               281.0873
 Red. masses --      1.5474                 1.2146                 1.4394
 Frc consts  --      0.0595                 0.0479                 0.0670
 IR Inten    --     56.2854                39.0609                50.4081

                      7                      8                      9
                      A                      A                      A
 Frequencies --    331.3714               349.9725               444.6355
 Red. masses --      1.4425                 3.0293                 3.1648
 Frc consts  --      0.0933                 0.2186                 0.3686
 IR Inten    --     20.1640                 3.7825                21.0693

                     10                     11                     12
                      A                      A                      A
 Frequencies --    471.0930               527.8529               582.1554
 Red. masses --      3.0539                 3.3536                 3.1796
 Frc consts  --      0.3993                 0.5505                 0.6349
 IR Inten    --     10.3326                 5.1925                 5.2127

                     13                     14                     15
                      A                      A                      A
 Frequencies --    616.5550               655.7077               776.3907
 Red. masses --      2.7334                 1.4661                 3.7195
 Frc consts  --      0.6122                 0.3714                 1.3210
 IR Inten    --     21.7813                95.8430                 2.7141

                     16                     17                     18
                      A                      A                      A
 Frequencies --    887.2392               934.8793               997.1909
 Red. masses --      2.2455                 1.2711                 1.6728
 Frc consts  --      1.0415                 0.6545                 0.9800
 IR Inten    --     72.7994                59.3513                84.1922

                     19                     20                     21
                      A                      A                      A
 Frequencies --   1014.0070              1054.8638              1097.5554
 Red. masses --      2.7732                 1.6274                 3.2497
 Frc consts  --      1.6800                 1.0669                 2.3065
 IR Inten    --     57.3632                82.1315               148.7159

                     22                     23                     24
                      A                      A                      A
 Frequencies --   1133.2414              1179.7075              1239.6874
 Red. masses --      2.5962                 1.8963                 1.8139
 Frc consts  --      1.9645                 1.5549                 1.6425
 IR Inten    --     25.2785               101.4858                59.6375

                     25                     26                     27
                      A                      A                      A
 Frequencies --   1313.9035              1340.1626              1375.8212
 Red. masses --      1.3741                 1.4663                 1.5140
 Frc consts  --      1.3976                 1.5516                 1.6885
 IR Inten    --     36.6325                67.2374                57.6703

                     28                     29                     30
                      A                      A                      A
 Frequencies --   1403.7691              1404.9304              1472.1670
 Red. masses --      1.2790                 1.2990                 1.6155
 Frc consts  --      1.4850                 1.5107                 2.0629
 IR Inten    --      4.4677                36.3724               165.4292

                     31                     32                     33
                      A                      A                      A
 Frequencies --   1487.4141              1507.9110              1645.0514
 Red. masses --      1.0647                 1.1353                 1.0960
 Frc consts  --      1.3879                 1.5209                 1.7475
 IR Inten    --      8.2166                23.8712                36.5864

                     34                     35                     36
                      A                      A                      A
 Frequencies --   3039.5368              3046.2226              3110.9853
 Red. masses --      1.0377                 1.0830                 1.1000
 Frc consts  --      5.6485                 5.9211                 6.2727
 IR Inten    --     23.6100                19.9302                23.2894

                     37                     38                     39
                      A                      A                      A
 Frequencies --   3127.8460              3491.8661              3575.8494
 Red. masses --      1.1016                 1.0491                 1.0926
 Frc consts  --      6.3499                 7.5368                 8.2316
 IR Inten    --     17.7471                 0.8804                 2.7002

                     40                     41                     42
                      A                      A                      A
 Frequencies --   3647.9808              3799.9220              3823.3325
 Red. masses --      1.0643                 1.0650                 1.0651
 Frc consts  --      8.3448                 9.0603                 9.1729
 IR Inten    --    120.6428                32.8628                47.1183

 - Thermochemistry -
 -------------------
 Temperature   298.150 Kelvin.  Pressure   1.00000 Atm.
 Atom     1 has atomic number  6 and mass  12.00000

 Molecular mass:   107.05824 amu.
 Principal axes and moments of inertia in atomic units:
                           1         2         3
     Eigenvalues --   531.27731 746.56024 916.49841
           X            0.99954   0.03004   0.00492
           Y           -0.03010   0.99946   0.01281
           Z           -0.00453  -0.01296   0.99991
 This molecule is an asymmetric top.
 Rotational symmetry number  1.
 Warning -- assumption of classical behavior for rotation
           may cause significant error
 Rotational temperatures (Kelvin)      0.16303     0.11602     0.09451
 Rotational constants (GHZ):           3.39699     2.41741     1.96917
 Zero-point vibrational energy     354621.4 (Joules/Mol)
                                   84.75656 (Kcal/Mol)
 Warning -- explicit consideration of  13 degrees of freedom as
           vibrations may cause significant error
 Vibrational temperatures:    151.62   331.22   357.46   367.63   372.16
          (Kelvin)            404.42   476.77   503.53   639.73   677.80
                              759.46   837.59   887.08   943.42  1117.05
                             1276.54  1345.08  1434.73  1458.93  1517.71
                             1579.14  1630.48  1697.33  1783.63  1890.41
                             1928.19  1979.50  2019.71  2021.38  2118.12
                             2140.05  2169.54  2366.86  4373.21  4382.83
                             4476.01  4500.27  5024.01  5144.84  5248.62
                             5467.23  5500.92

 Zero-point correction=                           0.135068 (Hartree/Particle)
 Thermal correction to Energy=                    0.143374
 Thermal correction to Enthalpy=                  0.144318
 Thermal correction to Gibbs Free Energy=         0.103412
 Sum of electronic and zero-point Energies=           -400.064884
 Sum of electronic and thermal Energies=              -400.056578
 Sum of electronic and thermal Enthalpies=            -400.055634
 Sum of electronic and thermal Free Energies=         -400.096540

                     E (Thermal)             CV                S
                      KCal/Mol        Cal/Mol-Kelvin    Cal/Mol-Kelvin
 Total                   89.968             31.256             86.094
 Electronic               0.000              0.000              0.000
 Translational            0.889              2.981             39.921
 Rotational               0.889              2.981             27.388
 Vibrational             88.191             25.295             18.785
 Vibration     1          0.605              1.945              3.352
 Vibration     2          0.652              1.795              1.877
 Vibration     3          0.662              1.765              1.742
 Vibration     4          0.666              1.753              1.692
 Vibration     5          0.667              1.748              1.671
 Vibration     6          0.681              1.709              1.527
 Vibration     7          0.714              1.613              1.253
 Vibration     8          0.727              1.575              1.166
 Vibration     9          0.804              1.373              0.812
 Vibration    10          0.828              1.314              0.734
 Vibration    11          0.883              1.188              0.592
 Vibration    12          0.939              1.070              0.481
 Vibration    13          0.976              0.997              0.422

 Optimization completed.
    -- Stationary point found.
 Normal termination of Gaussian 09 at Fri Aug 26 06:19:00 2022.

 -----------------------------------------------------------------
 #P Geom=AllCheck Guess=TCheck SCRF=Check CCSD(T,E4T,FrzG4)/GTBas1
 -----------------------------------------------------------------

 Structure from the checkpoint file:  "G4.Frag_787.chk"
 --------
 Frag_787
 --------
 Charge =  0 Multiplicity = 1

 SCF Done:  E(RHF) =  -397.875667765     A.U. after   12 cycles
 E2 =    -0.1096839339D+01 EUMP2 =    -0.39897250710419D+03
 CCSD(T)
 CCSD(T)= -0.39905190160D+03
 TQ=-399.0527407\MP4SDQ=-399.0223669\CCSD=-399.0223812\CCSD(T)=-399.051
 Normal termination of Gaussian 09 at Fri Aug 26 06:23:11 2022.

 ---------------------------------------------------------
 #P Geom=AllCheck Guess=TCheck SCRF=Check MP4=FrzG4/GTBas2
 ---------------------------------------------------------

 Structure from the checkpoint file:  "G4.Frag_787.chk"
 --------
 Frag_787
 --------
 Charge =  0 Multiplicity = 1

 SCF Done:  E(RHF) =  -397.889655310     A.U. after   11 cycles
 E2 =    -0.1117789826D+01 EUMP2 =    -0.39900744513542D+03
 Normal termination of Gaussian 09 at Fri Aug 26 06:24:35 2022.

 ---------------------------------------------------------
 #P Geom=AllCheck Guess=TCheck SCRF=Check MP4=FrzG4/GTBas3
 ---------------------------------------------------------

 Structure from the checkpoint file:  "G4.Frag_787.chk"
 --------
 Frag_787
 --------
 Charge =  0 Multiplicity = 1

 SCF Done:  E(RHF) =  -397.932951890     A.U. after   10 cycles
 E2 =    -0.1362208121D+01 EUMP2 =    -0.39929516001079D+03
 Normal termination of Gaussian 09 at Fri Aug 26 06:34:59 2022.

 -----------------------------------------------------------
 #P Geom=AllCheck Guess=TCheck SCRF=Check MP2=Full/GTLargeXP
 -----------------------------------------------------------

 Structure from the checkpoint file:  "G4.Frag_787.chk"
 --------
 Frag_787
 --------
 Charge =  0 Multiplicity = 1

 SCF Done:  E(RHF) =  -398.044534958     A.U. after   11 cycles
 E2 =    -0.1773359284D+01 EUMP2 =    -0.39981789424208D+03
 Normal termination of Gaussian 09 at Fri Aug 26 06:38:41 2022.
 SCF Done:  E(RHF) =  -398.076729562     A.U. after    8 cycles
 Normal termination of Gaussian 09 at Fri Aug 26 06:41:40 2022.

                         Standard orientation:
 ---------------------------------------------------------------------
 Center     Atomic      Atomic             Coordinates (Angstroms)
 Number     Number       Type             X           Y           Z
 ---------------------------------------------------------------------
      1          6           0       -1.615829   -1.214089   -0.025705
      2          6           0       -0.824830    0.020455   -0.459654
      3          7           0       -1.362275    1.314037   -0.004267
      4          6           0        0.648390   -0.024071    0.003652
      5          8           0        1.352504   -1.102963   -0.546793
      6          8           0        1.308416    1.144013   -0.392536
      7          8           0        0.625997   -0.172800    1.392122
      8          1           0       -1.127210   -2.125533   -0.380767
      9          1           0       -2.630853   -1.183138   -0.435288
     10          1           0       -1.678761   -1.265887    1.064598
     11          1           0       -0.783790    0.061902   -1.554299
     12          1           0       -1.508748    1.275873    1.001172
     13          1           0       -2.264577    1.495876   -0.431418
     14          1           0        1.813890   -0.754787   -1.317734
     15          1           0        0.627694    1.836697   -0.329371
     16          1           0        1.546555   -0.179031    1.680883
 ---------------------------------------------------------------------

 SCF Done:  E(RHF) =  -398.083892024     A.U. after    7 cycles

 The electronic state is 1-A.
 Alpha  occ. eigenvalues --  -20.56600 -20.56465 -20.56164 -15.55609 -11.38879
 Alpha  occ. eigenvalues --  -11.26579 -11.21455  -1.45699  -1.34578  -1.34006
 Alpha  occ. eigenvalues --   -1.19661  -1.00871  -0.90498  -0.81175  -0.75843
 Alpha  occ. eigenvalues --   -0.72723  -0.67310  -0.64847  -0.63863  -0.59873
 Alpha  occ. eigenvalues --   -0.56920  -0.56328  -0.55491  -0.52709  -0.51434
 Alpha  occ. eigenvalues --   -0.50237  -0.47972  -0.45569  -0.41201
 Alpha virt. eigenvalues --    0.03491   0.04333   0.04686   0.04915   0.06603
 Alpha virt. eigenvalues --    0.07022   0.07339   0.07773   0.08689   0.10121
 Alpha virt. eigenvalues --    0.11873   0.12342   0.12662   0.13640   0.13958

 Mulliken charges:
               1
     1  C   -0.553567
     2  C    0.061000
     3  N   -0.763956
     4  C    0.646718
     5  O   -0.632003
     6  O   -0.649436
     7  O   -0.607706
     8  H    0.192835
     9  H    0.157583
    10  H    0.186450
    11  H    0.162904
    12  H    0.313877
    13  H    0.298450
    14  H    0.393018
    15  H    0.413925
    16  H    0.379907
 Sum of Mulliken charges =  -0.00000

 Dipole moment (field-independent basis, Debye):
    X=             -1.5686    Y=              0.6110    Z=             -0.7085  Tot=              1.8265
 Quadrupole moment (field-independent basis, Debye-Ang):
   XX=            -38.4600   YY=            -46.4060   ZZ=            -40.0486
   XY=             -1.9829   XZ=              1.0962   YZ=              1.1843

 Normal termination of Gaussian 09 at Fri Aug 26 06:51:50 2022.
