 Gaussian 09, Revision E.01,
 Gaussian 09:  ES64L-G09RevE.01 30-Nov-2015

 -----
 #P G4
 -----

 ---------
 Frag_1152
 ---------
 Symbolic Z-matrix:
 Charge =  0 Multiplicity = 1

 SCF Done:  E(RB3LYP) =  -226.118943165     A.U. after   14 cycles
 SCF Done:  E(RB3LYP) =  -226.149318278     A.U. after   13 cycles
 SCF Done:  E(RB3LYP) =  -226.157864928     A.U. after   13 cycles
 SCF Done:  E(RB3LYP) =  -226.150682389     A.U. after   15 cycles
 SCF Done:  E(RB3LYP) =  -226.159290945     A.U. after   12 cycles
 SCF Done:  E(RB3LYP) =  -226.159427213     A.U. after   12 cycles
 SCF Done:  E(RB3LYP) =  -226.159603766     A.U. after   12 cycles
 SCF Done:  E(RB3LYP) =  -226.160168398     A.U. after   12 cycles
 SCF Done:  E(RB3LYP) =  -226.160175147     A.U. after    9 cycles
 SCF Done:  E(RB3LYP) =  -226.160169656     A.U. after   10 cycles
 SCF Done:  E(RB3LYP) =  -226.160180213     A.U. after    9 cycles
 SCF Done:  E(RB3LYP) =  -226.160181030     A.U. after    8 cycles
 Optimization completed.
    -- Stationary point found.
 Normal termination of Gaussian 09 at Tue Aug 30 12:06:55 2022.

 ----------------------------------------------------------
 #P Geom=AllCheck Guess=TCheck SCRF=Check B3LYP/GTBas3 Freq
 ----------------------------------------------------------

 Structure from the checkpoint file:  "G4.Frag_1152.chk"
 ---------
 Frag_1152
 ---------
 Charge =  0 Multiplicity = 1

 SCF Done:  E(RB3LYP) =  -226.160181030     A.U. after    1 cycles

  Exact polarizability:  66.451  -4.618  41.896   0.198   0.230  21.729
 Approx polarizability: 106.386 -13.503  69.784  -0.009  -0.621  32.382

                      1                      2                      3
                      A                      A                      A
 Frequencies --    195.5005               269.0198               395.3864
 Red. masses --      3.9341                 3.2069                 1.0858
 Frc consts  --      0.0886                 0.1367                 0.1000
 IR Inten    --      6.7819                11.5550                23.1973

                      4                      5                      6
                      A                      A                      A
 Frequencies --    455.2333               488.7862               601.0229
 Red. masses --      1.4521                 2.4871                 5.6092
 Frc consts  --      0.1773                 0.3501                 1.1938
 IR Inten    --    169.3743                57.9785                14.8558

                      7                      8                      9
                      A                      A                      A
 Frequencies --    650.1292               664.3668               715.1626
 Red. masses --      1.3800                 1.2477                 4.1847
 Frc consts  --      0.3437                 0.3245                 1.2610
 IR Inten    --     31.9210                40.5495                 9.1789

                     10                     11                     12
                      A                      A                      A
 Frequencies --    813.6758               859.0510              1102.5356
 Red. masses --      3.6401                 1.3098                 1.8165
 Frc consts  --      1.4199                 0.5695                 1.3009
 IR Inten    --     18.3519                67.3695                11.6336

                     13                     14                     15
                      A                      A                      A
 Frequencies --   1134.3888              1401.6356              1632.8646
 Red. masses --      1.3542                 2.6848                 1.1872
 Frc consts  --      1.0268                 3.1076                 1.8650
 IR Inten    --     63.5066               169.3456                63.4440

                     16                     17                     18
                      A                      A                      A
 Frequencies --   1696.2770              2240.8169              3442.4363
 Red. masses --      6.4090                 5.9472                 1.0742
 Frc consts  --     10.8651                17.5943                 7.5001
 IR Inten    --    190.9236                17.8349                 4.6470

                     19                     20                     21
                      A                      A                      A
 Frequencies --   3500.9534              3573.4555              3690.3179
 Red. masses --      1.1629                 1.0464                 1.1007
 Frc consts  --      8.3980                 7.8724                 8.8318
 IR Inten    --     59.5121                25.1016                20.3798

 - Thermochemistry -
 -------------------
 Temperature   298.150 Kelvin.  Pressure   1.00000 Atm.
 Atom     1 has atomic number  6 and mass  12.00000

 Molecular mass:    68.03745 amu.
 Principal axes and moments of inertia in atomic units:
                           1         2         3
     Eigenvalues --   167.42917 433.56023 599.93101
           X            0.99992   0.01194   0.00419
           Y           -0.01200   0.99983   0.01428
           Z           -0.00402  -0.01433   0.99989
 This molecule is an asymmetric top.
 Rotational symmetry number  1.
 Rotational temperatures (Kelvin)      0.51732     0.19977     0.14437
 Rotational constants (GHZ):          10.77913     4.16261     3.00825
 Zero-point vibrational energy     176586.9 (Joules/Mol)
                                   42.20527 (Kcal/Mol)
 Warning -- explicit consideration of   6 degrees of freedom as
           vibrations may cause significant error
 Vibrational temperatures:    281.28   387.06   568.87   654.98   703.25
          (Kelvin)            864.74   935.39   955.87  1028.96  1170.70
                             1235.98  1586.30  1632.13  2016.64  2349.33
                             2440.56  3224.03  4952.89  5037.08  5141.40
                             5309.54

 Zero-point correction=                           0.067258 (Hartree/Particle)
 Thermal correction to Energy=                    0.072650
 Thermal correction to Enthalpy=                  0.073594
 Thermal correction to Gibbs Free Energy=         0.039366
 Sum of electronic and zero-point Energies=           -226.092923
 Sum of electronic and thermal Energies=              -226.087531
 Sum of electronic and thermal Enthalpies=            -226.086587
 Sum of electronic and thermal Free Energies=         -226.120815

                     E (Thermal)             CV                S
                      KCal/Mol        Cal/Mol-Kelvin    Cal/Mol-Kelvin
 Total                   45.588             19.209             72.040
 Electronic               0.000              0.000              0.000
 Translational            0.889              2.981             38.570
 Rotational               0.889              2.981             25.280
 Vibrational             43.811             13.248              8.190
 Vibration     1          0.636              1.846              2.175
 Vibration     2          0.673              1.730              1.603
 Vibration     3          0.762              1.480              0.980
 Vibration     4          0.814              1.349              0.780
 Vibration     5          0.845              1.275              0.687
 Vibration     6          0.959              1.030              0.448

 Normal termination of Gaussian 09 at Tue Aug 30 12:07:12 2022.

 -----------------------------------------------------------------
 #P Geom=AllCheck Guess=TCheck SCRF=Check CCSD(T,E4T,FrzG4)/GTBas1
 -----------------------------------------------------------------

 Structure from the checkpoint file:  "G4.Frag_1152.chk"
 ---------
 Frag_1152
 ---------
 Charge =  0 Multiplicity = 1

 SCF Done:  E(RHF) =  -224.741747201     A.U. after   15 cycles
 E2 =    -0.6965001931D+00 EUMP2 =    -0.22543824739415D+03
 CCSD(T)
 CCSD(T)= -0.22549465478D+03
 5.4665278\CCSD=-225.4663945\CCSD(T)=-225.4946548\RMSD=4.410e-09\PG=C01
 Normal termination of Gaussian 09 at Tue Aug 30 12:07:52 2022.

 ---------------------------------------------------------
 #P Geom=AllCheck Guess=TCheck SCRF=Check MP4=FrzG4/GTBas2
 ---------------------------------------------------------

 Structure from the checkpoint file:  "G4.Frag_1152.chk"
 ---------
 Frag_1152
 ---------
 Charge =  0 Multiplicity = 1

 SCF Done:  E(RHF) =  -224.752011724     A.U. after   16 cycles
 E2 =    -0.7052386627D+00 EUMP2 =    -0.22545725038655D+03
 Normal termination of Gaussian 09 at Tue Aug 30 12:08:04 2022.

 ---------------------------------------------------------
 #P Geom=AllCheck Guess=TCheck SCRF=Check MP4=FrzG4/GTBas3
 ---------------------------------------------------------

 Structure from the checkpoint file:  "G4.Frag_1152.chk"
 ---------
 Frag_1152
 ---------
 Charge =  0 Multiplicity = 1

 SCF Done:  E(RHF) =  -224.773305494     A.U. after   13 cycles
 E2 =    -0.8276805461D+00 EUMP2 =    -0.22560098603981D+03
 Normal termination of Gaussian 09 at Tue Aug 30 12:08:56 2022.

 -----------------------------------------------------------
 #P Geom=AllCheck Guess=TCheck SCRF=Check MP2=Full/GTLargeXP
 -----------------------------------------------------------

 Structure from the checkpoint file:  "G4.Frag_1152.chk"
 ---------
 Frag_1152
 ---------
 Charge =  0 Multiplicity = 1

 SCF Done:  E(RHF) =  -224.830972297     A.U. after   14 cycles
 E2 =    -0.1093720507D+01 EUMP2 =    -0.22592469280420D+03
 Normal termination of Gaussian 09 at Tue Aug 30 12:09:33 2022.
 SCF Done:  E(RHF) =  -224.848179378     A.U. after    9 cycles
 Normal termination of Gaussian 09 at Tue Aug 30 12:10:12 2022.

                         Standard orientation:
 ---------------------------------------------------------------------
 Center     Atomic      Atomic             Coordinates (Angstroms)
 Number     Number       Type             X           Y           Z
 ---------------------------------------------------------------------
      1          6           0       -2.175526    0.002878    0.005046
      2          6           0       -0.976590   -0.078761   -0.004866
      3          6           0        0.465836   -0.121451   -0.003066
      4          7           0        1.058894   -1.254955    0.010654
      5          7           0        1.050952    1.135522   -0.071053
      6          1           0       -3.237185    0.042156    0.010300
      7          1           0        2.074462   -1.132915    0.010032
      8          1           0        2.022914    1.193181    0.193641
      9          1           0        0.488561    1.917612    0.226132
 ---------------------------------------------------------------------

 SCF Done:  E(RHF) =  -224.851569470     A.U. after    8 cycles

 The electronic state is 1-A.
 Alpha  occ. eigenvalues --  -15.58933 -15.54062 -11.34724 -11.25117 -11.24724
 Alpha  occ. eigenvalues --   -1.27759  -1.15606  -1.04798  -0.88501  -0.74289
 Alpha  occ. eigenvalues --   -0.71722  -0.70590  -0.62090  -0.56131  -0.44858
 Alpha  occ. eigenvalues --   -0.42214  -0.41602  -0.37397
 Alpha virt. eigenvalues --    0.03279   0.03681   0.05384   0.05554   0.06993
 Alpha virt. eigenvalues --    0.07199   0.07915   0.09979   0.10465   0.10566
 Alpha virt. eigenvalues --    0.11325   0.11472   0.12362   0.13555   0.14704

 Mulliken charges:
               1
     1  C   -0.443283
     2  C    0.252703
     3  C    0.314727
     4  N   -0.610152
     5  N   -0.672839
     6  H    0.256617
     7  H    0.261060
     8  H    0.314118
     9  H    0.327050
 Sum of Mulliken charges =  -0.00000

 Dipole moment (field-independent basis, Debye):
    X=              0.3294    Y=              3.2588    Z=              0.8302  Tot=              3.3790
 Quadrupole moment (field-independent basis, Debye-Ang):
   XX=            -18.0271   YY=            -32.5492   ZZ=            -32.5131
   XY=              1.7503   XZ=              1.1157   YZ=              1.6618

 Normal termination of Gaussian 09 at Tue Aug 30 12:14:03 2022.
