 Gaussian 09, Revision E.01,
 Gaussian 09:  ES64L-G09RevE.01 30-Nov-2015

 -----
 #P G4
 -----

 --------
 Frag_979
 --------
 Symbolic Z-matrix:
 Charge =  0 Multiplicity = 1

 SCF Done:  E(RB3LYP) =  -324.503580760     A.U. after   12 cycles
 SCF Done:  E(RB3LYP) =  -324.510863677     A.U. after   11 cycles
 SCF Done:  E(RB3LYP) =  -324.511367372     A.U. after   10 cycles
 SCF Done:  E(RB3LYP) =  -324.511566405     A.U. after   10 cycles
 SCF Done:  E(RB3LYP) =  -324.511734860     A.U. after   10 cycles
 SCF Done:  E(RB3LYP) =  -324.511850693     A.U. after   10 cycles
 SCF Done:  E(RB3LYP) =  -324.512000835     A.U. after   10 cycles
 SCF Done:  E(RB3LYP) =  -324.512312118     A.U. after   10 cycles
 SCF Done:  E(RB3LYP) =  -324.510987321     A.U. after   11 cycles
 SCF Done:  E(RB3LYP) =  -324.512600904     A.U. after   10 cycles
 SCF Done:  E(RB3LYP) =  -324.517156746     A.U. after    9 cycles
 SCF Done:  E(RB3LYP) =  -324.517158100     A.U. after    7 cycles
 SCF Done:  E(RB3LYP) =  -324.517158185     A.U. after    6 cycles
 Optimization completed.
    -- Stationary point found.
 Normal termination of Gaussian 09 at Fri Aug 26 06:56:27 2022.

 ----------------------------------------------------------
 #P Geom=AllCheck Guess=TCheck SCRF=Check B3LYP/GTBas3 Freq
 ----------------------------------------------------------

 Structure from the checkpoint file:  "G4.Frag_979.chk"
 --------
 Frag_979
 --------
 Charge =  0 Multiplicity = 1

 SCF Done:  E(RB3LYP) =  -324.517158185     A.U. after    1 cycles

  Exact polarizability:  73.599  -0.406  67.151  -0.280  -0.015  61.374
 Approx polarizability:  96.824   0.210  92.206  -1.525   0.601  91.735

                      1                      2                      3
                      A                      A                      A
 Frequencies --    109.1081               213.1567               218.9732
 Red. masses --      2.7892                 1.2395                 1.0479
 Frc consts  --      0.0196                 0.0332                 0.0296
 IR Inten    --      1.2456                 6.7136                14.8784

                      4                      5                      6
                      A                      A                      A
 Frequencies --    255.7429               265.0640               277.6814
 Red. masses --      1.6402                 1.1172                 1.4340
 Frc consts  --      0.0632                 0.0462                 0.0651
 IR Inten    --      3.0885                10.9005                12.1534

                      7                      8                      9
                      A                      A                      A
 Frequencies --    301.6907               338.7455               385.3911
 Red. masses --      1.1658                 1.8656                 2.4619
 Frc consts  --      0.0625                 0.1261                 0.2154
 IR Inten    --     19.1896                10.8162                 4.2551

                     10                     11                     12
                      A                      A                      A
 Frequencies --    402.8394               425.1765               493.9973
 Red. masses --      2.5134                 2.1081                 2.3004
 Frc consts  --      0.2403                 0.2245                 0.3308
 IR Inten    --      5.4855                 4.2851                11.3504

                     13                     14                     15
                      A                      A                      A
 Frequencies --    526.7963               563.4921               720.3460
 Red. masses --      3.2465                 2.9865                 3.4770
 Frc consts  --      0.5308                 0.5587                 1.0630
 IR Inten    --     12.3131                 4.3586                11.6365

                     16                     17                     18
                      A                      A                      A
 Frequencies --    815.6140               887.9610               912.1023
 Red. masses --      2.3554                 1.7340                 1.4316
 Frc consts  --      0.9232                 0.8055                 0.7017
 IR Inten    --     81.8848               138.3877                28.4516

                     19                     20                     21
                      A                      A                      A
 Frequencies --    947.8797               998.4221              1018.0351
 Red. masses --      1.5503                 1.9659                 1.7793
 Frc consts  --      0.8207                 1.1546                 1.0865
 IR Inten    --      2.4218                64.6561                34.0822

                     22                     23                     24
                      A                      A                      A
 Frequencies --   1066.8177              1080.3266              1119.1684
 Red. masses --      1.6707                 1.4959                 1.2543
 Frc consts  --      1.1203                 1.0287                 0.9256
 IR Inten    --      6.9691                15.1621                 2.7557

                     25                     26                     27
                      A                      A                      A
 Frequencies --   1186.8107              1197.6067              1243.6074
 Red. masses --      1.5707                 2.2677                 2.6659
 Frc consts  --      1.3035                 1.9163                 2.4292
 IR Inten    --      7.1937                44.1150                29.4283

                     28                     29                     30
                      A                      A                      A
 Frequencies --   1280.9353              1312.8507              1349.0734
 Red. masses --      1.8946                 2.3289                 1.9783
 Frc consts  --      1.8316                 2.3650                 2.1214
 IR Inten    --      8.8955                46.3153                46.8705

                     31                     32                     33
                      A                      A                      A
 Frequencies --   1400.8487              1430.3668              1466.4302
 Red. masses --      1.3300                 1.1501                 1.1754
 Frc consts  --      1.5378                 1.3864                 1.4893
 IR Inten    --     20.5811                 1.1483                 8.8488

                     34                     35                     36
                      A                      A                      A
 Frequencies --   1484.3744              1485.6100              1501.7166
 Red. masses --      1.0507                 1.0491                 1.0581
 Frc consts  --      1.3640                 1.3642                 1.4059
 IR Inten    --      3.9640                 4.1840                 7.0286

                     37                     38                     39
                      A                      A                      A
 Frequencies --   1509.0316              1515.8821              1528.2619
 Red. masses --      1.0531                 1.0542                 1.0542
 Frc consts  --      1.4129                 1.4272                 1.4507
 IR Inten    --      1.9777                 0.2895                10.6460

                     40                     41                     42
                      A                      A                      A
 Frequencies --   1626.7013              1654.1697              2952.5263
 Red. masses --      1.1088                 1.0975                 1.0584
 Frc consts  --      1.7288                 1.7694                 5.4363
 IR Inten    --     31.3181                32.1782                61.6516

                     43                     44                     45
                      A                      A                      A
 Frequencies --   2974.8807              3040.0393              3066.4198
 Red. masses --      1.0548                 1.0370                 1.0792
 Frc consts  --      5.5002                 5.6464                 5.9786
 IR Inten    --     60.3373                15.4413                32.9878

                     46                     47                     48
                      A                      A                      A
 Frequencies --   3076.5493              3106.4816              3116.4093
 Red. masses --      1.0791                 1.1003                 1.0993
 Frc consts  --      6.0176                 6.2557                 6.2902
 IR Inten    --     36.9079                33.9484                26.3029

                     49                     50                     51
                      A                      A                      A
 Frequencies --   3132.3992              3146.4124              3478.2038
 Red. masses --      1.1024                 1.0960                 1.0489
 Frc consts  --      6.3728                 6.3925                 7.4761
 IR Inten    --     19.1164                 9.8945                 0.5507

                     52                     53                     54
                      A                      A                      A
 Frequencies --   3494.4285              3567.2513              3575.3106
 Red. masses --      1.0486                 1.0924                 1.0927
 Frc consts  --      7.5439                 8.1900                 8.2294
 IR Inten    --      0.2871                 0.0509                 1.3269

 - Thermochemistry -
 -------------------
 Temperature   298.150 Kelvin.  Pressure   1.00000 Atm.
 Atom     1 has atomic number  6 and mass  12.00000

 Molecular mass:   103.11095 amu.
 Principal axes and moments of inertia in atomic units:
                           1         2         3
     Eigenvalues --   559.19472 755.14326 921.56236
           X            0.99942  -0.03107   0.01410
           Y            0.03139   0.99923  -0.02367
           Z           -0.01335   0.02410   0.99962
 This molecule is an asymmetric top.
 Rotational symmetry number  1.
 Warning -- assumption of classical behavior for rotation
           may cause significant error
 Rotational temperatures (Kelvin)      0.15489     0.11470     0.09399
 Rotational constants (GHZ):           3.22739     2.38993     1.95835
 Zero-point vibrational energy     479978.4 (Joules/Mol)
                                  114.71758 (Kcal/Mol)
 Warning -- explicit consideration of  14 degrees of freedom as
           vibrations may cause significant error
 Vibrational temperatures:    156.98   306.68   315.05   367.96   381.37
          (Kelvin)            399.52   434.07   487.38   554.49   579.60
                              611.73   710.75   757.94   810.74  1036.42
                             1173.49  1277.58  1312.31  1363.79  1436.50
                             1464.72  1534.91  1554.35  1610.23  1707.55
                             1723.09  1789.27  1842.98  1888.90  1941.01
                             2015.51  2057.98  2109.86  2135.68  2137.46
                             2160.63  2171.16  2181.01  2198.83  2340.46
                             2379.98  4248.02  4280.18  4373.93  4411.89
                             4426.46  4469.53  4483.81  4506.82  4526.98
                             5004.35  5027.70  5132.47  5144.07

 Zero-point correction=                           0.182814 (Hartree/Particle)
 Thermal correction to Energy=                    0.191768
 Thermal correction to Enthalpy=                  0.192712
 Thermal correction to Gibbs Free Energy=         0.150790
 Sum of electronic and zero-point Energies=           -324.334344
 Sum of electronic and thermal Energies=              -324.325390
 Sum of electronic and thermal Enthalpies=            -324.324446
 Sum of electronic and thermal Free Energies=         -324.366368

                     E (Thermal)             CV                S
                      KCal/Mol        Cal/Mol-Kelvin    Cal/Mol-Kelvin
 Total                  120.336             34.262             88.234
 Electronic               0.000              0.000              0.000
 Translational            0.889              2.981             39.809
 Rotational               0.889              2.981             27.456
 Vibrational            118.559             28.300             20.968
 Vibration     1          0.606              1.942              3.285
 Vibration     2          0.644              1.821              2.016
 Vibration     3          0.647              1.812              1.968
 Vibration     4          0.666              1.753              1.691
 Vibration     5          0.671              1.737              1.628
 Vibration     6          0.679              1.715              1.548
 Vibration     7          0.694              1.670              1.408
 Vibration     8          0.719              1.598              1.218
 Vibration     9          0.754              1.501              1.018
 Vibration    10          0.768              1.464              0.952
 Vibration    11          0.787              1.415              0.875
 Vibration    12          0.850              1.263              0.673
 Vibration    13          0.882              1.191              0.594
 Vibration    14          0.919              1.110              0.517

 Optimization completed.
    -- Stationary point found.
 Normal termination of Gaussian 09 at Fri Aug 26 06:57:28 2022.

 -----------------------------------------------------------------
 #P Geom=AllCheck Guess=TCheck SCRF=Check CCSD(T,E4T,FrzG4)/GTBas1
 -----------------------------------------------------------------

 Structure from the checkpoint file:  "G4.Frag_979.chk"
 --------
 Frag_979
 --------
 Charge =  0 Multiplicity = 1

 SCF Done:  E(RHF) =  -322.353720306     A.U. after   12 cycles
 E2 =    -0.1026383050D+01 EUMP2 =    -0.32338010335573D+03
 CCSD(T)
 CCSD(T)= -0.32348368713D+03
 D=-323.4517657\CCSD(T)=-323.4836871\RMSD=2.867e-09\PG=C01 [X(C4H13N3)]
 Normal termination of Gaussian 09 at Fri Aug 26 07:02:28 2022.

 ---------------------------------------------------------
 #P Geom=AllCheck Guess=TCheck SCRF=Check MP4=FrzG4/GTBas2
 ---------------------------------------------------------

 Structure from the checkpoint file:  "G4.Frag_979.chk"
 --------
 Frag_979
 --------
 Charge =  0 Multiplicity = 1

 SCF Done:  E(RHF) =  -322.363826213     A.U. after   12 cycles
 E2 =    -0.1043031945D+01 EUMP2 =    -0.32340685815742D+03
 Normal termination of Gaussian 09 at Fri Aug 26 07:04:09 2022.

 ---------------------------------------------------------
 #P Geom=AllCheck Guess=TCheck SCRF=Check MP4=FrzG4/GTBas3
 ---------------------------------------------------------

 Structure from the checkpoint file:  "G4.Frag_979.chk"
 --------
 Frag_979
 --------
 Charge =  0 Multiplicity = 1

 SCF Done:  E(RHF) =  -322.400492300     A.U. after   10 cycles
 E2 =    -0.1270665839D+01 EUMP2 =    -0.32367115813964D+03
 Normal termination of Gaussian 09 at Fri Aug 26 07:18:29 2022.

 -----------------------------------------------------------
 #P Geom=AllCheck Guess=TCheck SCRF=Check MP2=Full/GTLargeXP
 -----------------------------------------------------------

 Structure from the checkpoint file:  "G4.Frag_979.chk"
 --------
 Frag_979
 --------
 Charge =  0 Multiplicity = 1

 SCF Done:  E(RHF) =  -322.478243286     A.U. after   11 cycles
 E2 =    -0.1658846474D+01 EUMP2 =    -0.32413708975956D+03
 Normal termination of Gaussian 09 at Fri Aug 26 07:23:11 2022.
 SCF Done:  E(RHF) =  -322.502875785     A.U. after    9 cycles
 Normal termination of Gaussian 09 at Fri Aug 26 07:28:08 2022.

                         Standard orientation:
 ---------------------------------------------------------------------
 Center     Atomic      Atomic             Coordinates (Angstroms)
 Number     Number       Type             X           Y           Z
 ---------------------------------------------------------------------
      1          6           0        1.485106    1.273146    0.006824
      2          7           0        0.810516    0.052140   -0.419924
      3          6           0        1.607403   -1.115509   -0.042345
      4          6           0       -0.596144   -0.041587   -0.000930
      5          6           0       -1.354795    1.244456   -0.377319
      6          7           0       -0.723553   -0.227574    1.450230
      7          7           0       -1.133879   -1.220341   -0.706484
      8          1           0        1.034230    2.155428   -0.452687
      9          1           0        1.481674    1.405382    1.101460
     10          1           0        2.525835    1.228876   -0.327836
     11          1           0        2.565576   -1.076409   -0.570685
     12          1           0        1.086201   -2.027987   -0.331203
     13          1           0        1.824628   -1.158746    1.039544
     14          1           0       -1.082531    2.090359    0.257963
     15          1           0       -1.159031    1.505214   -1.420532
     16          1           0       -2.430381    1.072949   -0.263028
     17          1           0       -0.569136   -1.206709    1.671968
     18          1           0       -1.664242   -0.002571    1.758369
     19          1           0       -2.134019   -1.283637   -0.540603
     20          1           0       -0.999819   -1.094762   -1.706851
 ---------------------------------------------------------------------

 SCF Done:  E(RHF) =  -322.508314059     A.U. after    8 cycles

 The electronic state is 1-A.
 Alpha  occ. eigenvalues --  -15.53669 -15.53589 -15.53503 -11.31494 -11.22991
 Alpha  occ. eigenvalues --  -11.22646 -11.21598  -1.26406  -1.16071  -1.12265
 Alpha  occ. eigenvalues --   -0.98206  -0.93080  -0.87559  -0.75342  -0.68145
 Alpha  occ. eigenvalues --   -0.65874  -0.64862  -0.61112  -0.59689  -0.58089
 Alpha  occ. eigenvalues --   -0.54275  -0.54113  -0.52636  -0.51534  -0.49769
 Alpha  occ. eigenvalues --   -0.48917  -0.41041  -0.39431  -0.35514
 Alpha virt. eigenvalues --    0.03177   0.04176   0.04377   0.05075   0.05902
 Alpha virt. eigenvalues --    0.06732   0.07026   0.07106   0.08017   0.09292
 Alpha virt. eigenvalues --    0.09343   0.09747   0.10978   0.11352   0.12128

 Mulliken charges:
               1
     1  C   -0.544345
     2  N    0.005778
     3  C   -0.557765
     4  C    0.496763
     5  C   -0.604246
     6  N   -0.808157
     7  N   -0.757220
     8  H    0.163260
     9  H    0.177370
    10  H    0.167278
    11  H    0.166534
    12  H    0.209490
    13  H    0.148340
    14  H    0.187351
    15  H    0.190112
    16  H    0.167746
    17  H    0.314119
    18  H    0.287109
    19  H    0.286542
    20  H    0.303940
 Sum of Mulliken charges =  -0.00000

 Dipole moment (field-independent basis, Debye):
    X=             -1.6026    Y=              0.2843    Z=             -0.2125  Tot=              1.6414
 Quadrupole moment (field-independent basis, Debye-Ang):
   XX=            -40.9715   YY=            -47.1318   ZZ=            -47.1742
   XY=              0.2745   XZ=             -0.4216   YZ=             -1.4145

 Normal termination of Gaussian 09 at Fri Aug 26 07:43:38 2022.
