 Gaussian 09, Revision E.01,
 Gaussian 09:  ES64L-G09RevE.01 30-Nov-2015

 -----
 #P G4
 -----

 --------
 Frag_785
 --------
 Symbolic Z-matrix:
 Charge =  0 Multiplicity = 1

 SCF Done:  E(RB3LYP) =  -360.808167454     A.U. after   13 cycles
 SCF Done:  E(RB3LYP) =  -360.816594870     A.U. after   12 cycles
 SCF Done:  E(RB3LYP) =  -360.817893603     A.U. after   11 cycles
 SCF Done:  E(RB3LYP) =  -360.818278423     A.U. after   10 cycles
 SCF Done:  E(RB3LYP) =  -360.818415930     A.U. after   10 cycles
 SCF Done:  E(RB3LYP) =  -360.818491518     A.U. after   10 cycles
 SCF Done:  E(RB3LYP) =  -360.818573417     A.U. after   11 cycles
 SCF Done:  E(RB3LYP) =  -360.818630990     A.U. after    9 cycles
 SCF Done:  E(RB3LYP) =  -360.818651105     A.U. after    9 cycles
 SCF Done:  E(RB3LYP) =  -360.818670239     A.U. after    9 cycles
 SCF Done:  E(RB3LYP) =  -360.818867722     A.U. after   10 cycles
 SCF Done:  E(RB3LYP) =  -360.818874816     A.U. after    9 cycles
 SCF Done:  E(RB3LYP) =  -360.818875169     A.U. after    7 cycles
 Optimization completed.
    -- Stationary point found.
 Normal termination of Gaussian 09 at Fri Aug 26 14:11:02 2022.

 ----------------------------------------------------------
 #P Geom=AllCheck Guess=TCheck SCRF=Check B3LYP/GTBas3 Freq
 ----------------------------------------------------------

 Structure from the checkpoint file:  "G4.Frag_785.chk"
 --------
 Frag_785
 --------
 Charge =  0 Multiplicity = 1

 SCF Done:  E(RB3LYP) =  -360.818875169     A.U. after    1 cycles

  Exact polarizability:  50.563   0.002  39.298   2.100  -1.098  39.076
 Approx polarizability:  67.294   3.275  53.878   3.909  -1.895  58.072

                      1                      2                      3
                      A                      A                      A
 Frequencies --    117.8926               199.2036               233.6330
 Red. masses --      3.6058                 1.0992                 1.0586
 Frc consts  --      0.0295                 0.0257                 0.0340
 IR Inten    --      1.1721                63.2357                38.6935

                      4                      5                      6
                      A                      A                      A
 Frequencies --    260.5623               304.3676               379.4308
 Red. masses --      1.0664                 3.7211                 3.5883
 Frc consts  --      0.0427                 0.2031                 0.3044
 IR Inten    --      5.9357                 2.9620                 4.9867

                      7                      8                      9
                      A                      A                      A
 Frequencies --    390.8891               486.3063               526.9557
 Red. masses --      3.2928                 3.5138                 1.2569
 Frc consts  --      0.2964                 0.4896                 0.2056
 IR Inten    --      1.6970                 8.6970               107.7678

                     10                     11                     12
                      A                      A                      A
 Frequencies --    570.2408               613.9030               781.7301
 Red. masses --      5.2255                 3.3589                 5.1986
 Frc consts  --      1.0011                 0.7459                 1.8718
 IR Inten    --      8.9902                30.3229                27.0600

                     13                     14                     15
                      A                      A                      A
 Frequencies --    893.8359               952.3695               994.0061
 Red. masses --      3.1532                 5.9686                 1.6414
 Frc consts  --      1.4843                 3.1896                 0.9556
 IR Inten    --     68.3214                 2.6322                21.2152

                     16                     17                     18
                      A                      A                      A
 Frequencies --   1097.4717              1122.4913              1186.7255
 Red. masses --      1.8261                 1.9161                 2.1345
 Frc consts  --      1.2959                 1.4225                 1.7711
 IR Inten    --     95.4625               116.5791               261.5402

                     19                     20                     21
                      A                      A                      A
 Frequencies --   1221.4407              1311.0834              1388.0506
 Red. masses --      1.7271                 1.1236                 1.3718
 Frc consts  --      1.5181                 1.1380                 1.5572
 IR Inten    --     41.1965                 3.7644               103.3944

                     22                     23                     24
                      A                      A                      A
 Frequencies --   1406.2074              1419.7712              1490.8144
 Red. masses --      1.5730                 1.6609                 1.0981
 Frc consts  --      1.8326                 1.9725                 1.4380
 IR Inten    --    126.9719                62.9166                 8.2362

                     25                     26                     27
                      A                      A                      A
 Frequencies --   1497.2949              1654.7014              3040.8712
 Red. masses --      1.1132                 1.0679                 1.0369
 Frc consts  --      1.4705                 1.7227                 5.6490
 IR Inten    --      4.1548                23.1058                11.2808

                     28                     29                     30
                      A                      A                      A
 Frequencies --   3114.2530              3137.6305              3441.1498
 Red. masses --      1.0995                 1.1023                 1.0480
 Frc consts  --      6.2830                 6.3935                 7.3119
 IR Inten    --     21.1497                14.6764                 0.9272

                     31                     32                     33
                      A                      A                      A
 Frequencies --   3525.9919              3732.7376              3838.0113
 Red. masses --      1.0956                 1.0638                 1.0655
 Frc consts  --      8.0256                 8.7334                 9.2470
 IR Inten    --      2.4510                75.0722                37.9307

 - Thermochemistry -
 -------------------
 Temperature   298.150 Kelvin.  Pressure   1.00000 Atm.
 Atom     1 has atomic number  6 and mass  12.00000

 Molecular mass:    93.04259 amu.
 Principal axes and moments of inertia in atomic units:
                           1         2         3
     Eigenvalues --   361.91097 607.58988 626.20828
           X            0.99852  -0.05101   0.01892
           Y            0.05084   0.99866   0.00943
           Z           -0.01938  -0.00845   0.99978
 This molecule is an asymmetric top.
 Rotational symmetry number  1.
 Rotational temperatures (Kelvin)      0.23932     0.14255     0.13831
 Rotational constants (GHZ):           4.98670     2.97033     2.88201
 Zero-point vibrational energy     277127.0 (Joules/Mol)
                                   66.23495 (Kcal/Mol)
 Warning -- explicit consideration of  11 degrees of freedom as
           vibrations may cause significant error
 Vibrational temperatures:    169.62   286.61   336.15   374.89   437.92
          (Kelvin)            545.92   562.40   699.69   758.17   820.45
                              883.27  1124.73  1286.03  1370.25  1430.15
                             1579.01  1615.01  1707.43  1757.38  1886.35
                             1997.09  2023.22  2042.73  2144.95  2154.27
                             2380.74  4375.13  4480.71  4514.34  4951.04
                             5073.11  5370.57  5522.04

 Zero-point correction=                           0.105552 (Hartree/Particle)
 Thermal correction to Energy=                    0.112809
 Thermal correction to Enthalpy=                  0.113753
 Thermal correction to Gibbs Free Energy=         0.075151
 Sum of electronic and zero-point Energies=           -360.713323
 Sum of electronic and thermal Energies=              -360.706067
 Sum of electronic and thermal Enthalpies=            -360.705122
 Sum of electronic and thermal Free Energies=         -360.743724

                     E (Thermal)             CV                S
                      KCal/Mol        Cal/Mol-Kelvin    Cal/Mol-Kelvin
 Total                   70.788             26.116             81.245
 Electronic               0.000              0.000              0.000
 Translational            0.889              2.981             39.503
 Rotational               0.889              2.981             26.424
 Vibrational             69.011             20.154             15.318
 Vibration     1          0.608              1.934              3.135
 Vibration     2          0.637              1.841              2.140
 Vibration     3          0.654              1.789              1.851
 Vibration     4          0.669              1.745              1.658
 Vibration     5          0.695              1.665              1.393
 Vibration     6          0.749              1.514              1.041
 Vibration     7          0.759              1.490              0.997
 Vibration     8          0.842              1.280              0.693
 Vibration     9          0.882              1.190              0.594
 Vibration    10          0.926              1.096              0.504
 Vibration    11          0.973              1.002              0.426

 Optimization completed.
    -- Stationary point found.
 Normal termination of Gaussian 09 at Fri Aug 26 14:11:43 2022.

 -----------------------------------------------------------------
 #P Geom=AllCheck Guess=TCheck SCRF=Check CCSD(T,E4T,FrzG4)/GTBas1
 -----------------------------------------------------------------

 Structure from the checkpoint file:  "G4.Frag_785.chk"
 --------
 Frag_785
 --------
 Charge =  0 Multiplicity = 1

 SCF Done:  E(RHF) =  -358.772461808     A.U. after   12 cycles
 E2 =    -0.9651156764D+00 EUMP2 =    -0.35973757748398D+03
 CCSD(T)
 CCSD(T)= -0.35980469336D+03
 Normal termination of Gaussian 09 at Fri Aug 26 14:13:56 2022.

 ---------------------------------------------------------
 #P Geom=AllCheck Guess=TCheck SCRF=Check MP4=FrzG4/GTBas2
 ---------------------------------------------------------

 Structure from the checkpoint file:  "G4.Frag_785.chk"
 --------
 Frag_785
 --------
 Charge =  0 Multiplicity = 1

 SCF Done:  E(RHF) =  -358.785125308     A.U. after   12 cycles
 E2 =    -0.9832955068D+00 EUMP2 =    -0.35976842081450D+03
 Normal termination of Gaussian 09 at Fri Aug 26 14:14:37 2022.

 ---------------------------------------------------------
 #P Geom=AllCheck Guess=TCheck SCRF=Check MP4=FrzG4/GTBas3
 ---------------------------------------------------------

 Structure from the checkpoint file:  "G4.Frag_785.chk"
 --------
 Frag_785
 --------
 Charge =  0 Multiplicity = 1

 SCF Done:  E(RHF) =  -358.821697311     A.U. after   12 cycles
 E2 =    -0.1196378676D+01 EUMP2 =    -0.36001807598773D+03
 Normal termination of Gaussian 09 at Fri Aug 26 14:18:07 2022.

 -----------------------------------------------------------
 #P Geom=AllCheck Guess=TCheck SCRF=Check MP2=Full/GTLargeXP
 -----------------------------------------------------------

 Structure from the checkpoint file:  "G4.Frag_785.chk"
 --------
 Frag_785
 --------
 Charge =  0 Multiplicity = 1

 SCF Done:  E(RHF) =  -358.924917081     A.U. after   12 cycles
 E2 =    -0.1553041051D+01 EUMP2 =    -0.36047795813192D+03
 Normal termination of Gaussian 09 at Fri Aug 26 14:19:51 2022.
 SCF Done:  E(RHF) =  -358.954262383     A.U. after    9 cycles
 Normal termination of Gaussian 09 at Fri Aug 26 14:21:45 2022.

                         Standard orientation:
 ---------------------------------------------------------------------
 Center     Atomic      Atomic             Coordinates (Angstroms)
 Number     Number       Type             X           Y           Z
 ---------------------------------------------------------------------
      1          6           0       -0.730057    1.435884    0.106743
      2          6           0       -0.433730   -0.065558    0.032251
      3          8           0       -0.291745   -0.634755    1.281989
      4          8           0       -1.436821   -0.778096   -0.597081
      5          8           0        0.753453   -0.286927   -0.770246
      6          7           0        1.911913    0.076149   -0.008953
      7          1           0       -0.861388    1.856438   -0.895890
      8          1           0       -1.638087    1.598658    0.691213
      9          1           0        0.098006    1.960168    0.591303
     10          1           0        0.587026   -0.355084    1.578829
     11          1           0       -1.661560   -0.318120   -1.412135
     12          1           0        2.350412    0.831563   -0.534745
     13          1           0        2.525830   -0.730395   -0.107164
 ---------------------------------------------------------------------

 SCF Done:  E(RHF) =  -358.960796788     A.U. after    8 cycles

 The electronic state is 1-A.
 Alpha  occ. eigenvalues --  -20.59267 -20.56757 -20.55864 -15.62378 -11.39333
 Alpha  occ. eigenvalues --  -11.22630  -1.46522  -1.37537  -1.34648  -1.10595
 Alpha  occ. eigenvalues --   -0.99688  -0.84314  -0.73764  -0.71301  -0.69299
 Alpha  occ. eigenvalues --   -0.66418  -0.63624  -0.59181  -0.57143  -0.54681
 Alpha  occ. eigenvalues --   -0.53905  -0.50015  -0.48345  -0.45977  -0.43381
 Alpha virt. eigenvalues --    0.03298   0.04337   0.05249   0.05946   0.07209
 Alpha virt. eigenvalues --    0.07535   0.07565   0.08614   0.09169   0.11370
 Alpha virt. eigenvalues --    0.13441   0.14811   0.15073   0.16189   0.17014

 Mulliken charges:
               1
     1  C   -0.564617
     2  C    0.672865
     3  O   -0.592489
     4  O   -0.556492
     5  O   -0.331617
     6  N   -0.591978
     7  H    0.169247
     8  H    0.196055
     9  H    0.182149
    10  H    0.390609
    11  H    0.369835
    12  H    0.325777
    13  H    0.330656
 Sum of Mulliken charges =  -0.00000

 Dipole moment (field-independent basis, Debye):
    X=              2.4500    Y=              2.8312    Z=             -1.2604  Tot=              3.9506
 Quadrupole moment (field-independent basis, Debye-Ang):
   XX=            -29.7737   YY=            -37.6307   ZZ=            -35.9198
   XY=             -3.2249   XZ=              2.9119   YZ=             -0.4775

 Normal termination of Gaussian 09 at Fri Aug 26 14:28:27 2022.
