 Gaussian 09, Revision E.01,
 Gaussian 09:  ES64L-G09RevE.01 30-Nov-2015

 -----
 #P G4
 -----

 --------
 Frag_998
 --------
 Symbolic Z-matrix:
 Charge =  0 Multiplicity = 1

 SCF Done:  E(RB3LYP) =  -323.706816090     A.U. after   13 cycles
 SCF Done:  E(RB3LYP) =  -323.721994570     A.U. after   12 cycles
 SCF Done:  E(RB3LYP) =  -323.723143206     A.U. after   11 cycles
 SCF Done:  E(RB3LYP) =  -323.723678367     A.U. after   11 cycles
 SCF Done:  E(RB3LYP) =  -323.721935293     A.U. after   13 cycles
 SCF Done:  E(RB3LYP) =  -323.724086083     A.U. after   11 cycles
 SCF Done:  E(RB3LYP) =  -323.724414029     A.U. after   11 cycles
 SCF Done:  E(RB3LYP) =  -323.724818983     A.U. after   11 cycles
 SCF Done:  E(RB3LYP) =  -323.725068782     A.U. after   11 cycles
 SCF Done:  E(RB3LYP) =  -323.725162597     A.U. after   10 cycles
 SCF Done:  E(RB3LYP) =  -323.725201100     A.U. after    8 cycles
 SCF Done:  E(RB3LYP) =  -323.725202380     A.U. after    7 cycles
 SCF Done:  E(RB3LYP) =  -323.725202746     A.U. after    7 cycles
 Optimization completed.
    -- Stationary point found.
 Normal termination of Gaussian 09 at Fri Aug 26 06:54:12 2022.

 ----------------------------------------------------------
 #P Geom=AllCheck Guess=TCheck SCRF=Check B3LYP/GTBas3 Freq
 ----------------------------------------------------------

 Structure from the checkpoint file:  "G4.Frag_998.chk"
 --------
 Frag_998
 --------
 Charge =  0 Multiplicity = 1

 SCF Done:  E(RB3LYP) =  -323.725202746     A.U. after    1 cycles

  Exact polarizability:  59.672  -7.249  46.683  -2.182   3.357  38.996
 Approx polarizability:  82.545 -12.704  70.142  -6.614   7.298  59.012

                      1                      2                      3
                      A                      A                      A
 Frequencies --     56.9521               217.5591               259.5224
 Red. masses --      3.6976                 1.2466                 3.0597
 Frc consts  --      0.0071                 0.0348                 0.1214
 IR Inten    --      5.5952                24.5459                13.6577

                      4                      5                      6
                      A                      A                      A
 Frequencies --    289.5250               312.0329               390.7472
 Red. masses --      1.1989                 3.3610                 2.6390
 Frc consts  --      0.0592                 0.1928                 0.2374
 IR Inten    --     51.0554                27.9743                 8.5658

                      7                      8                      9
                      A                      A                      A
 Frequencies --    490.2937               646.5432               686.3139
 Red. masses --      2.7865                 3.4675                 3.1588
 Frc consts  --      0.3947                 0.8540                 0.8766
 IR Inten    --      8.2003                14.7074                12.5137

                     10                     11                     12
                      A                      A                      A
 Frequencies --    696.4592               767.6019               826.9326
 Red. masses --      1.2902                 1.0811                 1.8905
 Frc consts  --      0.3687                 0.3753                 0.7617
 IR Inten    --     18.9491                42.8669                61.1663

                     13                     14                     15
                      A                      A                      A
 Frequencies --    842.8367               952.0428               986.6756
 Red. masses --      1.4844                 1.7712                 2.2076
 Frc consts  --      0.6213                 0.9459                 1.2662
 IR Inten    --     36.6391               111.9727                24.6094

                     16                     17                     18
                      A                      A                      A
 Frequencies --    997.8834              1064.1570              1225.8965
 Red. masses --      2.5887                 2.9141                 1.3714
 Frc consts  --      1.5187                 1.9443                 1.2143
 IR Inten    --     62.6209                97.4934                 5.9780

                     19                     20                     21
                      A                      A                      A
 Frequencies --   1261.9472              1291.3977              1375.8463
 Red. masses --      1.4736                 1.3162                 1.3039
 Frc consts  --      1.3826                 1.2932                 1.4543
 IR Inten    --     37.9554                34.7735                26.6775

                     22                     23                     24
                      A                      A                      A
 Frequencies --   1410.3855              1425.6919              1456.5600
 Red. masses --      2.0169                 1.4411                 1.2127
 Frc consts  --      2.3638                 1.7258                 1.5159
 IR Inten    --    147.2247               142.0786                59.9379

                     25                     26                     27
                      A                      A                      A
 Frequencies --   1631.0203              1749.9127              2958.2380
 Red. masses --      1.1016                 5.1789                 1.0841
 Frc consts  --      1.7265                 9.3438                 5.5895
 IR Inten    --     34.5071                73.2410                69.8992

                     28                     29                     30
                      A                      A                      A
 Frequencies --   3171.5261              3260.7387              3509.2313
 Red. masses --      1.0600                 1.1163                 1.0489
 Frc consts  --      6.2817                 6.9929                 7.6106
 IR Inten    --      0.2138                 5.0597                13.1137

                     31                     32                     33
                      A                      A                      A
 Frequencies --   3558.2457              3596.7766              3825.7110
 Red. masses --      1.0642                 1.0936                 1.0662
 Frc consts  --      7.9389                 8.3356                 9.1939
 IR Inten    --    229.8248                 9.2306                30.9495

 - Thermochemistry -
 -------------------
 Temperature   298.150 Kelvin.  Pressure   1.00000 Atm.
 Atom     1 has atomic number  6 and mass  12.00000

 Molecular mass:    89.04768 amu.
 Principal axes and moments of inertia in atomic units:
                           1         2         3
     Eigenvalues --   348.05765 601.31094 740.49440
           X            0.99727  -0.07353   0.00660
           Y            0.07348   0.99727   0.00709
           Z           -0.00710  -0.00658   0.99995
 This molecule is an asymmetric top.
 Rotational symmetry number  1.
 Rotational temperatures (Kelvin)      0.24885     0.14404     0.11697
 Rotational constants (GHZ):           5.18518     3.00134     2.43721
 Zero-point vibrational energy     282278.0 (Joules/Mol)
                                   67.46607 (Kcal/Mol)
 Warning -- explicit consideration of   7 degrees of freedom as
           vibrations may cause significant error
 Vibrational temperatures:     81.94   313.02   373.39   416.56   448.95
          (Kelvin)            562.20   705.42   930.23   987.45  1002.05
                             1104.41  1189.77  1212.65  1369.78  1419.60
                             1435.73  1531.08  1763.79  1815.66  1858.03
                             1979.53  2029.23  2051.25  2095.66  2346.67
                             2517.73  4256.24  4563.11  4691.47  5048.99
                             5119.52  5174.95  5504.34

 Zero-point correction=                           0.107514 (Hartree/Particle)
 Thermal correction to Energy=                    0.114378
 Thermal correction to Enthalpy=                  0.115322
 Thermal correction to Gibbs Free Energy=         0.076938
 Sum of electronic and zero-point Energies=           -323.617689
 Sum of electronic and thermal Energies=              -323.610824
 Sum of electronic and thermal Enthalpies=            -323.609880
 Sum of electronic and thermal Free Energies=         -323.648265

                     E (Thermal)             CV                S
                      KCal/Mol        Cal/Mol-Kelvin    Cal/Mol-Kelvin
 Total                   71.773             24.629             80.787
 Electronic               0.000              0.000              0.000
 Translational            0.889              2.981             39.372
 Rotational               0.889              2.981             26.541
 Vibrational             69.996             18.668             14.873
 Vibration     1          0.596              1.975              4.560
 Vibration     2          0.646              1.814              1.979
 Vibration     3          0.668              1.747              1.665
 Vibration     4          0.686              1.693              1.477
 Vibration     5          0.700              1.651              1.352
 Vibration     6          0.758              1.490              0.997
 Vibration     7          0.846              1.272              0.683

 Optimization completed.
    -- Stationary point found.
 Normal termination of Gaussian 09 at Fri Aug 26 06:54:43 2022.

 -----------------------------------------------------------------
 #P Geom=AllCheck Guess=TCheck SCRF=Check CCSD(T,E4T,FrzG4)/GTBas1
 -----------------------------------------------------------------

 Structure from the checkpoint file:  "G4.Frag_998.chk"
 --------
 Frag_998
 --------
 Charge =  0 Multiplicity = 1

 SCF Done:  E(RHF) =  -321.804833285     A.U. after   12 cycles
 E2 =    -0.9069427706D+00 EUMP2 =    -0.32271177605553D+03
 CCSD(T)
 CCSD(T)= -0.32278213192D+03
 MP4SDTQ=-322.7825169\MP4SDQ=-322.7545323\CCSD=-322.754514\CCSD(T)=-322
 Normal termination of Gaussian 09 at Fri Aug 26 06:56:34 2022.

 ---------------------------------------------------------
 #P Geom=AllCheck Guess=TCheck SCRF=Check MP4=FrzG4/GTBas2
 ---------------------------------------------------------

 Structure from the checkpoint file:  "G4.Frag_998.chk"
 --------
 Frag_998
 --------
 Charge =  0 Multiplicity = 1

 SCF Done:  E(RHF) =  -321.818578683     A.U. after   12 cycles
 E2 =    -0.9232230455D+00 EUMP2 =    -0.32274180172875D+03
 Normal termination of Gaussian 09 at Fri Aug 26 06:57:10 2022.

 ---------------------------------------------------------
 #P Geom=AllCheck Guess=TCheck SCRF=Check MP4=FrzG4/GTBas3
 ---------------------------------------------------------

 Structure from the checkpoint file:  "G4.Frag_998.chk"
 --------
 Frag_998
 --------
 Charge =  0 Multiplicity = 1

 SCF Done:  E(RHF) =  -321.852491142     A.U. after   11 cycles
 E2 =    -0.1116402820D+01 EUMP2 =    -0.32296889396284D+03
 Normal termination of Gaussian 09 at Fri Aug 26 07:00:30 2022.

 -----------------------------------------------------------
 #P Geom=AllCheck Guess=TCheck SCRF=Check MP2=Full/GTLargeXP
 -----------------------------------------------------------

 Structure from the checkpoint file:  "G4.Frag_998.chk"
 --------
 Frag_998
 --------
 Charge =  0 Multiplicity = 1

 SCF Done:  E(RHF) =  -321.943004084     A.U. after   12 cycles
 E2 =    -0.1460277815D+01 EUMP2 =    -0.32340328189884D+03
 Normal termination of Gaussian 09 at Fri Aug 26 07:02:22 2022.
 SCF Done:  E(RHF) =  -321.969137010     A.U. after    9 cycles
 Normal termination of Gaussian 09 at Fri Aug 26 07:04:07 2022.

                         Standard orientation:
 ---------------------------------------------------------------------
 Center     Atomic      Atomic             Coordinates (Angstroms)
 Number     Number       Type             X           Y           Z
 ---------------------------------------------------------------------
      1          6           0        1.891306   -0.615389   -0.429264
      2          6           0        0.817636    0.087348   -0.064510
      3          8           0        0.878757    1.223216    0.662231
      4          6           0       -0.601270   -0.374457   -0.369055
      5          7           0       -1.461628    0.799521   -0.498677
      6          8           0       -1.147485   -1.093686    0.725888
      7          1           0        1.773095   -1.516378   -1.017746
      8          1           0        2.892557   -0.309852   -0.153694
      9          1           0       -0.032469    1.577736    0.640340
     10          1           0       -0.592993   -1.009223   -1.270540
     11          1           0       -1.448255    1.152105   -1.450322
     12          1           0       -2.413422    0.528855   -0.273800
     13          1           0       -0.443330   -1.641148    1.088523
 ---------------------------------------------------------------------

 SCF Done:  E(RHF) =  -321.974771769     A.U. after    8 cycles

 The electronic state is 1-A.
 Alpha  occ. eigenvalues --  -20.57349 -20.57236 -15.56878 -11.33322 -11.29703
 Alpha  occ. eigenvalues --  -11.21255  -1.40825  -1.38040  -1.19475  -1.03937
 Alpha  occ. eigenvalues --   -0.90426  -0.77929  -0.75334  -0.71267  -0.66148
 Alpha  occ. eigenvalues --   -0.62180  -0.61465  -0.59644  -0.57253  -0.55415
 Alpha  occ. eigenvalues --   -0.51635  -0.47977  -0.42907  -0.34529
 Alpha virt. eigenvalues --    0.03419   0.04279   0.05134   0.05680   0.06713
 Alpha virt. eigenvalues --    0.07348   0.07805   0.08321   0.08667   0.09939
 Alpha virt. eigenvalues --    0.11116   0.11738   0.13552   0.14817   0.15369

 Mulliken charges:
               1
     1  C   -0.502823
     2  C    0.234407
     3  O   -0.584956
     4  C    0.164343
     5  N   -0.720507
     6  O   -0.573297
     7  H    0.186265
     8  H    0.207546
     9  H    0.424760
    10  H    0.157753
    11  H    0.303006
    12  H    0.323662
    13  H    0.379841
 Sum of Mulliken charges =  -0.00000

 Dipole moment (field-independent basis, Debye):
    X=             -1.2786    Y=             -0.9492    Z=             -1.9295  Tot=              2.5018
 Quadrupole moment (field-independent basis, Debye-Ang):
   XX=            -36.6910   YY=            -36.1734   ZZ=            -36.0133
   XY=             -4.5469   XZ=              2.4158   YZ=             -1.4915

 Normal termination of Gaussian 09 at Fri Aug 26 07:10:41 2022.
