 Gaussian 09, Revision E.01,
 Gaussian 09:  ES64L-G09RevE.01 30-Nov-2015

 -----
 #P G4
 -----

 --------
 Frag_498
 --------
 Symbolic Z-matrix:
 Charge =  0 Multiplicity = 1

 SCF Done:  E(RB3LYP) =  -212.584743002     A.U. after   13 cycles
 SCF Done:  E(RB3LYP) =  -212.588896391     A.U. after   12 cycles
 SCF Done:  E(RB3LYP) =  -212.590386020     A.U. after   12 cycles
 SCF Done:  E(RB3LYP) =  -212.591646590     A.U. after   14 cycles
 SCF Done:  E(RB3LYP) =  -212.591919576     A.U. after   10 cycles
 SCF Done:  E(RB3LYP) =  -212.591979010     A.U. after   10 cycles
 SCF Done:  E(RB3LYP) =  -212.591995281     A.U. after   10 cycles
 SCF Done:  E(RB3LYP) =  -212.592004132     A.U. after    9 cycles
 SCF Done:  E(RB3LYP) =  -212.592004438     A.U. after    7 cycles
 Optimization completed.
    -- Stationary point found.
 Normal termination of Gaussian 09 at Fri Aug 26 14:40:09 2022.

 ----------------------------------------------------------
 #P Geom=AllCheck Guess=TCheck SCRF=Check B3LYP/GTBas3 Freq
 ----------------------------------------------------------

 Structure from the checkpoint file:  "G4.Frag_498.chk"
 --------
 Frag_498
 --------
 Charge =  0 Multiplicity = 1

 SCF Done:  E(RB3LYP) =  -212.592004438     A.U. after    1 cycles

  Exact polarizability:  65.827  -0.001  44.710  -1.846  -0.001  45.996
 Approx polarizability:  88.255  -0.002  58.831  -5.913  -0.001  70.802

                      1                      2                      3
                      A                      A                      A
 Frequencies --    104.1373               211.7181               241.8739
 Red. masses --      2.9107                 1.0277                 1.0564
 Frc consts  --      0.0186                 0.0271                 0.0364
 IR Inten    --      5.7171                 0.0351                 0.5213

                      4                      5                      6
                      A                      A                      A
 Frequencies --    336.9456               362.8070               376.7790
 Red. masses --      2.2832                 2.2085                 2.1657
 Frc consts  --      0.1527                 0.1713                 0.1811
 IR Inten    --      0.4884                 2.9721                 7.3886

                      7                      8                      9
                      A                      A                      A
 Frequencies --    535.8753               751.3804               806.6053
 Red. masses --      2.6100                 1.2954                 2.3226
 Frc consts  --      0.4416                 0.4309                 0.8903
 IR Inten    --      1.3804                 2.4678                 2.6077

                     10                     11                     12
                      A                      A                      A
 Frequencies --    932.8946               937.3706               959.4876
 Red. masses --      1.1790                 2.3181                 1.4921
 Frc consts  --      0.6046                 1.2001                 0.8093
 IR Inten    --      0.2121                 3.7272                 0.1840

                     13                     14                     15
                      A                      A                      A
 Frequencies --   1062.0035              1137.3532              1138.1306
 Red. masses --      1.3591                 2.0560                 1.5253
 Frc consts  --      0.9032                 1.5670                 1.1641
 IR Inten    --     14.0596                 3.9972                 2.6813

                     16                     17                     18
                      A                      A                      A
 Frequencies --   1187.8064              1237.9913              1358.3011
 Red. masses --      1.8598                 1.8081                 1.3851
 Frc consts  --      1.5460                 1.6327                 1.5057
 IR Inten    --      7.2775                20.8346                 8.2390

                     19                     20                     21
                      A                      A                      A
 Frequencies --   1370.2382              1394.4215              1414.4764
 Red. masses --      1.2666                 1.2719                 1.2368
 Frc consts  --      1.4011                 1.4571                 1.4579
 IR Inten    --     22.5087                 5.6804                 4.4045

                     22                     23                     24
                      A                      A                      A
 Frequencies --   1480.6378              1488.1611              1493.5654
 Red. masses --      1.0470                 1.0466                 1.0543
 Frc consts  --      1.3524                 1.3657                 1.3857
 IR Inten    --      0.6876                 0.0588                 7.2756

                     25                     26                     27
                      A                      A                      A
 Frequencies --   1496.9092              1514.2223              1743.7800
 Red. masses --      1.1168                 1.0759                 6.7506
 Frc consts  --      1.4745                 1.4534                12.0942
 IR Inten    --      4.0433                 8.0638                23.7130

                     28                     29                     30
                      A                      A                      A
 Frequencies --   2933.4120              2988.3118              3036.0451
 Red. masses --      1.0818                 1.0656                 1.0339
 Frc consts  --      5.4848                 5.6065                 5.6150
 IR Inten    --     47.5444                54.6333                25.1714

                     31                     32                     33
                      A                      A                      A
 Frequencies --   3039.9730              3109.9534              3112.9300
 Red. masses --      1.0347                 1.1020                 1.1019
 Frc consts  --      5.6337                 6.2798                 6.2909
 IR Inten    --     15.0782                11.9516                33.8559

                     34                     35                     36
                      A                      A                      A
 Frequencies --   3113.4021              3117.9618              3127.0787
 Red. masses --      1.1024                 1.1016                 1.1028
 Frc consts  --      6.2960                 6.3100                 6.3535
 IR Inten    --      9.0389                43.6754                35.9325

 - Thermochemistry -
 -------------------
 Temperature   298.150 Kelvin.  Pressure   1.00000 Atm.
 Atom     1 has atomic number  6 and mass  12.00000

 Molecular mass:    71.07350 amu.
 Principal axes and moments of inertia in atomic units:
                           1         2         3
     Eigenvalues --   236.02095 458.32620 613.47238
           X            0.99988  -0.00001  -0.01558
           Y            0.00001   1.00000  -0.00001
           Z            0.01558   0.00001   0.99988
 This molecule is an asymmetric top.
 Rotational symmetry number  1.
 Rotational temperatures (Kelvin)      0.36698     0.18898     0.14119
 Rotational constants (GHZ):           7.64653     3.93768     2.94185
 Zero-point vibrational energy     326909.1 (Joules/Mol)
                                   78.13316 (Kcal/Mol)
 Warning -- explicit consideration of   7 degrees of freedom as
           vibrations may cause significant error
 Vibrational temperatures:    149.83   304.61   348.00   484.79   522.00
          (Kelvin)            542.10   771.00  1081.07  1160.52  1342.23
                             1348.67  1380.49  1527.98  1636.40  1637.51
                             1708.99  1781.19  1954.29  1971.46  2006.26
                             2035.11  2130.30  2141.13  2148.90  2153.72
                             2178.63  2508.91  4220.52  4299.51  4368.19
                             4373.84  4474.52  4478.81  4479.49  4486.05
                             4499.16

 Zero-point correction=                           0.124513 (Hartree/Particle)
 Thermal correction to Energy=                    0.130838
 Thermal correction to Enthalpy=                  0.131782
 Thermal correction to Gibbs Free Energy=         0.095311
 Sum of electronic and zero-point Energies=           -212.467491
 Sum of electronic and thermal Energies=              -212.461166
 Sum of electronic and thermal Enthalpies=            -212.460222
 Sum of electronic and thermal Free Energies=         -212.496693

                     E (Thermal)             CV                S
                      KCal/Mol        Cal/Mol-Kelvin    Cal/Mol-Kelvin
 Total                   82.102             22.122             76.760
 Electronic               0.000              0.000              0.000
 Translational            0.889              2.981             38.700
 Rotational               0.889              2.981             25.698
 Vibrational             80.325             16.160             12.362
 Vibration     1          0.605              1.946              3.375
 Vibration     2          0.643              1.823              2.029
 Vibration     3          0.658              1.776              1.789
 Vibration     4          0.718              1.602              1.227
 Vibration     5          0.737              1.549              1.110
 Vibration     6          0.747              1.520              1.052
 Vibration     7          0.891              1.171              0.574

 Optimization completed.
    -- Stationary point found.
 Normal termination of Gaussian 09 at Fri Aug 26 14:40:33 2022.

 -----------------------------------------------------------------
 #P Geom=AllCheck Guess=TCheck SCRF=Check CCSD(T,E4T,FrzG4)/GTBas1
 -----------------------------------------------------------------

 Structure from the checkpoint file:  "G4.Frag_498.chk"
 --------
 Frag_498
 --------
 Charge =  0 Multiplicity = 1

 SCF Done:  E(RHF) =  -211.135769098     A.U. after   12 cycles
 E2 =    -0.6830468116D+00 EUMP2 =    -0.21181881590930D+03
 CCSD(T)
 CCSD(T)= -0.21189690592D+03
 4SDQ=-211.8715415\CCSD=-211.8727387\CCSD(T)=-211.8969059\RMSD=3.827e-0
 Normal termination of Gaussian 09 at Fri Aug 26 14:41:30 2022.

 ---------------------------------------------------------
 #P Geom=AllCheck Guess=TCheck SCRF=Check MP4=FrzG4/GTBas2
 ---------------------------------------------------------

 Structure from the checkpoint file:  "G4.Frag_498.chk"
 --------
 Frag_498
 --------
 Charge =  0 Multiplicity = 1

 SCF Done:  E(RHF) =  -211.140506202     A.U. after   12 cycles
 E2 =    -0.6909749568D+00 EUMP2 =    -0.21183148115904D+03
 Normal termination of Gaussian 09 at Fri Aug 26 14:41:49 2022.

 ---------------------------------------------------------
 #P Geom=AllCheck Guess=TCheck SCRF=Check MP4=FrzG4/GTBas3
 ---------------------------------------------------------

 Structure from the checkpoint file:  "G4.Frag_498.chk"
 --------
 Frag_498
 --------
 Charge =  0 Multiplicity = 1

 SCF Done:  E(RHF) =  -211.161869114     A.U. after   11 cycles
 E2 =    -0.8411125971D+00 EUMP2 =    -0.21200298171087D+03
 Normal termination of Gaussian 09 at Fri Aug 26 14:43:32 2022.

 -----------------------------------------------------------
 #P Geom=AllCheck Guess=TCheck SCRF=Check MP2=Full/GTLargeXP
 -----------------------------------------------------------

 Structure from the checkpoint file:  "G4.Frag_498.chk"
 --------
 Frag_498
 --------
 Charge =  0 Multiplicity = 1

 SCF Done:  E(RHF) =  -211.209099272     A.U. after   12 cycles
 E2 =    -0.1108179055D+01 EUMP2 =    -0.21231727832682D+03
 Normal termination of Gaussian 09 at Fri Aug 26 14:44:34 2022.
 SCF Done:  E(RHF) =  -211.225646007     A.U. after    8 cycles
 Normal termination of Gaussian 09 at Fri Aug 26 14:45:51 2022.

                         Standard orientation:
 ---------------------------------------------------------------------
 Center     Atomic      Atomic             Coordinates (Angstroms)
 Number     Number       Type             X           Y           Z
 ---------------------------------------------------------------------
      1          6           0       -2.007117   -0.000078    0.120835
      2          7           0       -0.903217   -0.000177   -0.492022
      3          6           0        0.325301    0.000022    0.296318
      4          6           0        1.119750    1.267591   -0.038494
      5          6           0        1.120079   -1.267416   -0.038509
      6          1           0       -2.097664   -0.000345    1.217935
      7          1           0       -2.939089    0.000259   -0.447064
      8          1           0        0.095354   -0.000113    1.377211
      9          1           0        2.062420    1.286494    0.517363
     10          1           0        1.344678    1.303710   -1.108784
     11          1           0        0.550245    2.165426    0.219040
     12          1           0        2.062589   -1.286304    0.517607
     13          1           0        0.550560   -2.165337    0.218685
     14          1           0        1.345343   -1.303263   -1.108741
 ---------------------------------------------------------------------

 SCF Done:  E(RHF) =  -211.229078871     A.U. after    7 cycles

 The electronic state is 1-A.
 Alpha  occ. eigenvalues --  -15.55897 -11.27047 -11.25739 -11.21174 -11.21172
 Alpha  occ. eigenvalues --   -1.23123  -1.04494  -0.93030  -0.85263  -0.76677
 Alpha  occ. eigenvalues --   -0.66108  -0.64013  -0.58553  -0.57429  -0.53563
 Alpha  occ. eigenvalues --   -0.52458  -0.49402  -0.47425  -0.41516  -0.40469
 Alpha virt. eigenvalues --    0.03934   0.04075   0.04466   0.04832   0.06265
 Alpha virt. eigenvalues --    0.06686   0.07137   0.07739   0.07984   0.09731
 Alpha virt. eigenvalues --    0.10749   0.11125   0.11409   0.13482   0.14738

 Mulliken charges:
               1
     1  C   -0.218872
     2  N   -0.343381
     3  C    0.094221
     4  C   -0.517454
     5  C   -0.517457
     6  H    0.166262
     7  H    0.208494
     8  H    0.126705
     9  H    0.160553
    10  H    0.178089
    11  H    0.162108
    12  H    0.160546
    13  H    0.162121
    14  H    0.178064
 Sum of Mulliken charges =  -0.00000

 Dipole moment (field-independent basis, Debye):
    X=             -0.3113    Y=              0.0004    Z=              1.6318  Tot=              1.6612
 Quadrupole moment (field-independent basis, Debye-Ang):
   XX=            -29.2568   YY=            -33.8507   ZZ=            -34.1421
   XY=             -0.0002   XZ=             -1.6669   YZ=             -0.0008

 Normal termination of Gaussian 09 at Fri Aug 26 14:50:17 2022.
