 Gaussian 09, Revision E.01,
 Gaussian 09:  ES64L-G09RevE.01 30-Nov-2015

 -----
 #P G4
 -----

 --------
 Frag_592
 --------
 Symbolic Z-matrix:
 Charge =  0 Multiplicity = 1

 SCF Done:  E(RB3LYP) =  -324.945706339     A.U. after   13 cycles
 SCF Done:  E(RB3LYP) =  -324.951568694     A.U. after   11 cycles
 SCF Done:  E(RB3LYP) =  -324.953141781     A.U. after   11 cycles
 SCF Done:  E(RB3LYP) =  -324.954041280     A.U. after   11 cycles
 SCF Done:  E(RB3LYP) =  -324.954955364     A.U. after   11 cycles
 SCF Done:  E(RB3LYP) =  -324.955643265     A.U. after   11 cycles
 SCF Done:  E(RB3LYP) =  -324.956076016     A.U. after   10 cycles
 SCF Done:  E(RB3LYP) =  -324.956620670     A.U. after   11 cycles
 SCF Done:  E(RB3LYP) =  -324.911599499     A.U. after   14 cycles
 SCF Done:  E(RB3LYP) =  -324.957022262     A.U. after   11 cycles
 SCF Done:  E(RB3LYP) =  -324.961793057     A.U. after   10 cycles
 SCF Done:  E(RB3LYP) =  -324.961800508     A.U. after    9 cycles
 SCF Done:  E(RB3LYP) =  -324.961800971     A.U. after    7 cycles
 Optimization completed.
    -- Stationary point found.
 Normal termination of Gaussian 09 at Fri Aug 19 10:58:06 2022.

 ----------------------------------------------------------
 #P Geom=AllCheck Guess=TCheck SCRF=Check B3LYP/GTBas3 Freq
 ----------------------------------------------------------

 Structure from the checkpoint file:  "G4.Frag_592.chk"
 --------
 Frag_592
 --------
 Charge =  0 Multiplicity = 1

 SCF Done:  E(RB3LYP) =  -324.961800971     A.U. after    1 cycles

  Exact polarizability:  54.094  -0.052  47.967  -0.074   1.898  45.100
 Approx polarizability:  69.401  -0.922  67.666  -0.436   0.832  66.427

                      1                      2                      3
                      A                      A                      A
 Frequencies --    124.5394               219.0244               246.6376
 Red. masses --      3.9773                 1.1036                 2.3994
 Frc consts  --      0.0363                 0.0312                 0.0860
 IR Inten    --      5.5443                 0.3393                 2.8377

                      4                      5                      6
                      A                      A                      A
 Frequencies --    284.9832               312.8222               335.5437
 Red. masses --      1.7234                 1.6093                 1.4407
 Frc consts  --      0.0825                 0.0928                 0.0956
 IR Inten    --     46.4683                53.8641                12.4175

                      7                      8                      9
                      A                      A                      A
 Frequencies --    383.1395               474.9160               552.2445
 Red. masses --      2.1902                 2.7414                 3.2330
 Frc consts  --      0.1894                 0.3643                 0.5809
 IR Inten    --      9.3577                12.7179                 7.0930

                     10                     11                     12
                      A                      A                      A
 Frequencies --    656.9015               701.4363               820.9898
 Red. masses --      1.2179                 3.0463                 2.5989
 Frc consts  --      0.3097                 0.8831                 1.0321
 IR Inten    --    102.0133                37.6289                30.3488

                     13                     14                     15
                      A                      A                      A
 Frequencies --    892.4947               950.3333              1005.2847
 Red. masses --      1.4762                 1.6655                 1.8117
 Frc consts  --      0.6928                 0.8862                 1.0787
 IR Inten    --     61.4617                41.3634                45.4058

                     16                     17                     18
                      A                      A                      A
 Frequencies --   1032.9030              1064.8873              1110.7725
 Red. masses --      2.0870                 3.5450                 2.3652
 Frc consts  --      1.3119                 2.3685                 1.7194
 IR Inten    --     50.1859               110.8224                47.9974

                     19                     20                     21
                      A                      A                      A
 Frequencies --   1138.8323              1224.8745              1258.7691
 Red. masses --      1.8861                 1.2016                 1.1895
 Frc consts  --      1.4412                 1.0622                 1.1105
 IR Inten    --      4.5194                76.6942                10.7242

                     22                     23                     24
                      A                      A                      A
 Frequencies --   1339.8822              1375.1179              1376.8914
 Red. masses --      1.3680                 1.3709                 1.4177
 Frc consts  --      1.4470                 1.5274                 1.5835
 IR Inten    --     24.4810                 4.7463                 8.0919

                     25                     26                     27
                      A                      A                      A
 Frequencies --   1409.8653              1416.4737              1482.6777
 Red. masses --      1.2446                 1.4846                 1.2541
 Frc consts  --      1.4576                 1.7550                 1.6243
 IR Inten    --     11.0626                 5.4673                60.8121

                     28                     29                     30
                      A                      A                      A
 Frequencies --   1494.9027              1502.1555              1637.2988
 Red. masses --      1.0675                 1.1386                 1.0970
 Frc consts  --      1.4055                 1.5138                 1.7327
 IR Inten    --     17.5242                26.7761                45.2434

                     31                     32                     33
                      A                      A                      A
 Frequencies --   2985.3640              3010.5278              3038.8682
 Red. masses --      1.0830                 1.0850                 1.0364
 Frc consts  --      5.6870                 5.7937                 5.6392
 IR Inten    --     42.8769                66.1348                21.8077

                     34                     35                     36
                      A                      A                      A
 Frequencies --   3105.2968              3124.0943              3508.4326
 Red. masses --      1.1004                 1.1017                 1.0486
 Frc consts  --      6.2519                 6.3352                 7.6051
 IR Inten    --     25.9042                19.4211                 1.6908

                     37                     38                     39
                      A                      A                      A
 Frequencies --   3592.8922              3640.2008              3812.1969
 Red. masses --      1.0936                 1.0640                 1.0655
 Frc consts  --      8.3178                 8.3066                 9.1230
 IR Inten    --      3.3641                83.7621                28.7803

 - Thermochemistry -
 -------------------
 Temperature   298.150 Kelvin.  Pressure   1.00000 Atm.
 Atom     1 has atomic number  6 and mass  12.00000

 Molecular mass:    91.06333 amu.
 Principal axes and moments of inertia in atomic units:
                           1         2         3
     Eigenvalues --   369.39635 644.74104 722.21953
           X            0.99983   0.01429   0.01190
           Y           -0.01573   0.99118   0.13157
           Z           -0.00991  -0.13173   0.99124
 This molecule is an asymmetric top.
 Rotational symmetry number  1.
 Rotational temperatures (Kelvin)      0.23447     0.13434     0.11993
 Rotational constants (GHZ):           4.88565     2.79917     2.49888
 Zero-point vibrational energy     344796.5 (Joules/Mol)
                                   82.40833 (Kcal/Mol)
 Warning -- explicit consideration of   9 degrees of freedom as
           vibrations may cause significant error
 Vibrational temperatures:    179.18   315.13   354.86   410.03   450.08
          (Kelvin)            482.77   551.25   683.30   794.56   945.13
                             1009.21  1181.22  1284.10  1367.32  1446.38
                             1486.12  1532.13  1598.15  1638.52  1762.32
                             1811.09  1927.79  1978.49  1981.04  2028.48
                             2037.99  2133.24  2150.83  2161.26  2355.70
                             4295.27  4331.47  4372.25  4467.82  4494.87
                             5047.85  5169.36  5237.43  5484.89

 Zero-point correction=                           0.131326 (Hartree/Particle)
 Thermal correction to Energy=                    0.138494
 Thermal correction to Enthalpy=                  0.139438
 Thermal correction to Gibbs Free Energy=         0.101004
 Sum of electronic and zero-point Energies=           -324.830475
 Sum of electronic and thermal Energies=              -324.823307
 Sum of electronic and thermal Enthalpies=            -324.822363
 Sum of electronic and thermal Free Energies=         -324.860797

                     E (Thermal)             CV                S
                      KCal/Mol        Cal/Mol-Kelvin    Cal/Mol-Kelvin
 Total                   86.906             26.417             80.891
 Electronic               0.000              0.000              0.000
 Translational            0.889              2.981             39.439
 Rotational               0.889              2.981             26.645
 Vibrational             85.129             20.455             14.807
 Vibration     1          0.610              1.928              3.029
 Vibration     2          0.647              1.812              1.967
 Vibration     3          0.661              1.768              1.754
 Vibration     4          0.683              1.702              1.504
 Vibration     5          0.701              1.649              1.347
 Vibration     6          0.717              1.605              1.233
 Vibration     7          0.752              1.506              1.027
 Vibration     8          0.832              1.306              0.724
 Vibration     9          0.908              1.135              0.540

 Optimization completed.
    -- Stationary point found.
 Normal termination of Gaussian 09 at Fri Aug 19 11:01:00 2022.

 -----------------------------------------------------------------
 #P Geom=AllCheck Guess=TCheck SCRF=Check CCSD(T,E4T,FrzG4)/GTBas1
 -----------------------------------------------------------------

 Structure from the checkpoint file:  "G4.Frag_592.chk"
 --------
 Frag_592
 --------
 Charge =  0 Multiplicity = 1

 SCF Done:  E(RHF) =  -323.004088747     A.U. after   11 cycles
 E2 =    -0.9187374426D+00 EUMP2 =    -0.32392282618998D+03
 CCSD(T)
 CCSD(T)= -0.32399810333D+03
 977\CCSD(T)=-323.9981033\RMSD=9.784e-09\PG=C01 [X(C3H9N1O2)]\\@
 Normal termination of Gaussian 09 at Fri Aug 19 11:07:07 2022.

 ---------------------------------------------------------
 #P Geom=AllCheck Guess=TCheck SCRF=Check MP4=FrzG4/GTBas2
 ---------------------------------------------------------

 Structure from the checkpoint file:  "G4.Frag_592.chk"
 --------
 Frag_592
 --------
 Charge =  0 Multiplicity = 1

 SCF Done:  E(RHF) =  -323.015615085     A.U. after   11 cycles
 E2 =    -0.9359664406D+00 EUMP2 =    -0.32395158152607D+03
 Normal termination of Gaussian 09 at Fri Aug 19 11:16:17 2022.

 ---------------------------------------------------------
 #P Geom=AllCheck Guess=TCheck SCRF=Check MP4=FrzG4/GTBas3
 ---------------------------------------------------------

 Structure from the checkpoint file:  "G4.Frag_592.chk"
 --------
 Frag_592
 --------
 Charge =  0 Multiplicity = 1

 SCF Done:  E(RHF) =  -323.050552290     A.U. after   11 cycles
 E2 =    -0.1143184409D+01 EUMP2 =    -0.32419373669946D+03
 Normal termination of Gaussian 09 at Fri Aug 19 14:36:11 2022.

 -----------------------------------------------------------
 #P Geom=AllCheck Guess=TCheck SCRF=Check MP2=Full/GTLargeXP
 -----------------------------------------------------------

 Structure from the checkpoint file:  "G4.Frag_592.chk"
 --------
 Frag_592
 --------
 Charge =  0 Multiplicity = 1

 SCF Done:  E(RHF) =  -323.139301588     A.U. after   11 cycles
 E2 =    -0.1490557922D+01 EUMP2 =    -0.32462985951010D+03
 Normal termination of Gaussian 09 at Fri Aug 19 14:42:53 2022.
 SCF Done:  E(RHF) =  -323.165516564     A.U. after    8 cycles
 Normal termination of Gaussian 09 at Fri Aug 19 14:48:48 2022.

                         Standard orientation:
 ---------------------------------------------------------------------
 Center     Atomic      Atomic             Coordinates (Angstroms)
 Number     Number       Type             X           Y           Z
 ---------------------------------------------------------------------
      1          6           0       -1.828311   -0.695346   -0.324607
      2          6           0       -0.654657    0.272815   -0.442566
      3          7           0       -0.689203    1.247397    0.658250
      4          6           0        0.692336   -0.456551   -0.307920
      5          8           0        1.685896    0.499318   -0.646444
      6          8           0        0.873905   -0.949401    0.985981
      7          1           0       -1.803250   -1.433934   -1.131381
      8          1           0       -2.782591   -0.162020   -0.390493
      9          1           0       -1.790523   -1.226033    0.630572
     10          1           0       -0.670397    0.747886   -1.435120
     11          1           0       -0.012332    1.981271    0.475318
     12          1           0       -1.604245    1.678077    0.730401
     13          1           0        0.746127   -1.321551   -0.984132
     14          1           0        2.521941    0.143259   -0.326097
     15          1           0        0.485075   -0.263578    1.557439
 ---------------------------------------------------------------------

 SCF Done:  E(RHF) =  -323.171309799     A.U. after    7 cycles

 The electronic state is 1-A.
 Alpha  occ. eigenvalues --  -20.55821 -20.55240 -15.55018 -11.32752 -11.26128
 Alpha  occ. eigenvalues --  -11.21988  -1.40789  -1.32725  -1.19187  -1.01297
 Alpha  occ. eigenvalues --   -0.91256  -0.80284  -0.72341  -0.68137  -0.66023
 Alpha  occ. eigenvalues --   -0.65255  -0.60608  -0.59303  -0.55204  -0.52661
 Alpha  occ. eigenvalues --   -0.51072  -0.49158  -0.47470  -0.45265  -0.40961
 Alpha virt. eigenvalues --    0.03543   0.04426   0.04648   0.05060   0.07005
 Alpha virt. eigenvalues --    0.07173   0.07697   0.07849   0.09235   0.10022
 Alpha virt. eigenvalues --    0.11982   0.12675   0.12895   0.14016   0.14606

 Mulliken charges:
               1
     1  C   -0.537555
     2  C    0.103450
     3  N   -0.791055
     4  C    0.240296
     5  O   -0.622604
     6  O   -0.621472
     7  H    0.164026
     8  H    0.155138
     9  H    0.186712
    10  H    0.169659
    11  H    0.327259
    12  H    0.300853
    13  H    0.137456
    14  H    0.382733
    15  H    0.405104
 Sum of Mulliken charges =  -0.00000

 Dipole moment (field-independent basis, Debye):
    X=             -1.1460    Y=              0.9010    Z=             -0.6977  Tot=              1.6161
 Quadrupole moment (field-independent basis, Debye-Ang):
   XX=            -33.8371   YY=            -37.6330   ZZ=            -39.6156
   XY=             -1.5862   XZ=              0.3882   YZ=              3.2573

 Normal termination of Gaussian 09 at Fri Aug 19 17:26:09 2022.
