 Gaussian 09, Revision E.01,
 Gaussian 09:  ES64L-G09RevE.01 30-Nov-2015

 -----
 #P G4
 -----

 ---------
 Frag_1099
 ---------
 Symbolic Z-matrix:
 Charge =  0 Multiplicity = 1

 SCF Done:  E(RB3LYP) =  -205.317295914     A.U. after   13 cycles
 SCF Done:  E(RB3LYP) =  -205.328395885     A.U. after   12 cycles
 SCF Done:  E(RB3LYP) =  -205.328871039     A.U. after   11 cycles
 SCF Done:  E(RB3LYP) =  -205.328942187     A.U. after    9 cycles
 SCF Done:  E(RB3LYP) =  -205.328943997     A.U. after    8 cycles
 SCF Done:  E(RB3LYP) =  -205.328945002     A.U. after    7 cycles
 SCF Done:  E(RB3LYP) =  -205.331575362     A.U. after   12 cycles
 SCF Done:  E(RB3LYP) =  -205.335965110     A.U. after   13 cycles
 SCF Done:  E(RB3LYP) =  -205.328097545     A.U. after   12 cycles
 SCF Done:  E(RB3LYP) =  -205.331447068     A.U. after   11 cycles
 SCF Done:  E(RB3LYP) =  -205.339895696     A.U. after    9 cycles
 SCF Done:  E(RB3LYP) =  -205.339900394     A.U. after    9 cycles
 SCF Done:  E(RB3LYP) =  -205.339900926     A.U. after    8 cycles
 Optimization completed.
    -- Stationary point found.
 Normal termination of Gaussian 09 at Mon Aug 22 11:47:06 2022.

 ----------------------------------------------------------
 #P Geom=AllCheck Guess=TCheck SCRF=Check B3LYP/GTBas3 Freq
 ----------------------------------------------------------

 Structure from the checkpoint file:  "G4.Frag_1099.chk"
 ---------
 Frag_1099
 ---------
 Charge =  0 Multiplicity = 1

 SCF Done:  E(RB3LYP) =  -205.339900926     A.U. after    1 cycles

  Exact polarizability:  55.274   1.829  32.104   1.834  -0.086  19.445
 Approx polarizability:  79.546   8.166  48.940  -0.098  -0.536  28.658

                      1                      2                      3
                      A                      A                      A
 Frequencies --    214.2456               302.1588               328.4386
 Red. masses --      1.2151                 2.2992                 2.5643
 Frc consts  --      0.0329                 0.1237                 0.1630
 IR Inten    --     34.5217                13.6407                57.9381

                      4                      5                      6
                      A                      A                      A
 Frequencies --    399.8020               592.2088               720.6257
 Red. masses --      1.4382                 3.6965                 1.4051
 Frc consts  --      0.1354                 0.7638                 0.4299
 IR Inten    --     46.4218                 3.7984               320.6165

                      7                      8                      9
                      A                      A                      A
 Frequencies --    848.7515               955.4813              1045.2210
 Red. masses --      1.8510                 1.4891                 1.5734
 Frc consts  --      0.7856                 0.8009                 1.0128
 IR Inten    --    136.0566                 4.0250                36.6432

                     10                     11                     12
                      A                      A                      A
 Frequencies --   1170.2592              1257.5896              1310.5048
 Red. masses --      2.2240                 1.4286                 1.4552
 Frc consts  --      1.7945                 1.3312                 1.4725
 IR Inten    --     32.6260                22.9326                 7.6780

                     13                     14                     15
                      A                      A                      A
 Frequencies --   1426.7689              1630.5317              1659.3211
 Red. masses --      1.4941                 1.1588                 1.1196
 Frc consts  --      1.7920                 1.8151                 1.8162
 IR Inten    --      9.1233                38.2700                15.3001

                     16                     17                     18
                      A                      A                      A
 Frequencies --   1762.6184              3047.1801              3422.2646
 Red. masses --      5.2508                 1.0870                 1.0541
 Frc consts  --      9.6116                 5.9466                 7.2740
 IR Inten    --     90.9227                45.1584                11.0477

                     19                     20                     21
                      A                      A                      A
 Frequencies --   3533.8298              3568.6061              3638.5381
 Red. masses --      1.0468                 1.0876                 1.0971
 Frc consts  --      7.7021                 8.1606                 8.5573
 IR Inten    --      8.2069                 3.5410                12.5065

 - Thermochemistry -
 -------------------
 Temperature   298.150 Kelvin.  Pressure   1.00000 Atm.
 Atom     1 has atomic number  7 and mass  14.00307

 Molecular mass:    59.04835 amu.
 Principal axes and moments of inertia in atomic units:
                           1         2         3
     Eigenvalues --    36.25577 414.48988 445.45822
           X            0.99969  -0.00641   0.02392
           Y            0.00659   0.99995  -0.00760
           Z           -0.02387   0.00775   0.99969
 This molecule is an asymmetric top.
 Rotational symmetry number  1.
 Rotational temperatures (Kelvin)      2.38897     0.20896     0.19444
 Rotational constants (GHZ):          49.77804     4.35413     4.05143
 Zero-point vibrational energy     196396.6 (Joules/Mol)
                                   46.93991 (Kcal/Mol)
 Warning -- explicit consideration of   5 degrees of freedom as
           vibrations may cause significant error
 Vibrational temperatures:    308.25   434.74   472.55   575.23   852.06
          (Kelvin)           1036.82  1221.16  1374.72  1503.84  1683.74
                             1809.39  1885.52  2052.80  2345.97  2387.39
                             2536.01  4384.21  4923.87  5084.39  5134.42
                             5235.04

 Zero-point correction=                           0.074804 (Hartree/Particle)
 Thermal correction to Energy=                    0.079753
 Thermal correction to Enthalpy=                  0.080697
 Thermal correction to Gibbs Free Energy=         0.048172
 Sum of electronic and zero-point Energies=           -205.265097
 Sum of electronic and thermal Energies=              -205.260148
 Sum of electronic and thermal Enthalpies=            -205.259204
 Sum of electronic and thermal Free Energies=         -205.291729

                     E (Thermal)             CV                S
                      KCal/Mol        Cal/Mol-Kelvin    Cal/Mol-Kelvin
 Total                   50.046             16.465             68.455
 Electronic               0.000              0.000              0.000
 Translational            0.889              2.981             38.148
 Rotational               0.889              2.981             23.419
 Vibrational             48.268             10.503              6.888
 Vibration     1          0.644              1.819              2.007
 Vibration     2          0.694              1.670              1.405
 Vibration     3          0.712              1.619              1.268
 Vibration     4          0.766              1.471              0.963
 Vibration     5          0.950              1.048              0.463

 Optimization completed.
    -- Stationary point found.
 Normal termination of Gaussian 09 at Mon Aug 22 11:47:37 2022.

 -----------------------------------------------------------------
 #P Geom=AllCheck Guess=TCheck SCRF=Check CCSD(T,E4T,FrzG4)/GTBas1
 -----------------------------------------------------------------

 Structure from the checkpoint file:  "G4.Frag_1099.chk"
 ---------
 Frag_1099
 ---------
 Charge =  0 Multiplicity = 1

 SCF Done:  E(RHF) =  -204.063944079     A.U. after   13 cycles
 E2 =    -0.6168258203D+00 EUMP2 =    -0.20468076989922D+03
 CCSD(T)
 CCSD(T)= -0.20473215713D+03
 186\CCSD=-204.7120183\CCSD(T)=-204.7321571\RMSD=9.083e-09\PG=C01 [X(C1
 Normal termination of Gaussian 09 at Mon Aug 22 11:48:03 2022.

 ---------------------------------------------------------
 #P Geom=AllCheck Guess=TCheck SCRF=Check MP4=FrzG4/GTBas2
 ---------------------------------------------------------

 Structure from the checkpoint file:  "G4.Frag_1099.chk"
 ---------
 Frag_1099
 ---------
 Charge =  0 Multiplicity = 1

 SCF Done:  E(RHF) =  -204.073071527     A.U. after   13 cycles
 E2 =    -0.6274847364D+00 EUMP2 =    -0.20470055626341D+03
 Normal termination of Gaussian 09 at Mon Aug 22 11:48:14 2022.

 ---------------------------------------------------------
 #P Geom=AllCheck Guess=TCheck SCRF=Check MP4=FrzG4/GTBas3
 ---------------------------------------------------------

 Structure from the checkpoint file:  "G4.Frag_1099.chk"
 ---------
 Frag_1099
 ---------
 Charge =  0 Multiplicity = 1

 SCF Done:  E(RHF) =  -204.094995319     A.U. after   12 cycles
 E2 =    -0.7445108817D+00 EUMP2 =    -0.20483950620040D+03
 Normal termination of Gaussian 09 at Mon Aug 22 11:52:08 2022.

 -----------------------------------------------------------
 #P Geom=AllCheck Guess=TCheck SCRF=Check MP2=Full/GTLargeXP
 -----------------------------------------------------------

 Structure from the checkpoint file:  "G4.Frag_1099.chk"
 ---------
 Frag_1099
 ---------
 Charge =  0 Multiplicity = 1

 SCF Done:  E(RHF) =  -204.151474899     A.U. after   12 cycles
 E2 =    -0.9711509797D+00 EUMP2 =    -0.20512262587827D+03
 Normal termination of Gaussian 09 at Mon Aug 22 11:52:49 2022.
 SCF Done:  E(RHF) =  -204.167532262     A.U. after    9 cycles
 Normal termination of Gaussian 09 at Mon Aug 22 11:54:11 2022.

                         Standard orientation:
 ---------------------------------------------------------------------
 Center     Atomic      Atomic             Coordinates (Angstroms)
 Number     Number       Type             X           Y           Z
 ---------------------------------------------------------------------
      1          7           0        1.800220   -0.075959   -0.109392
      2          6           0        0.479947    0.348598    0.009693
      3          7           0       -0.491685   -0.470590    0.027158
      4          7           0       -1.782962    0.076284    0.105178
      5          1           0        2.458652    0.467992    0.432020
      6          1           0        1.900783   -1.067748    0.069193
      7          1           0        0.355017    1.438321    0.019752
      8          1           0       -2.413390   -0.590190   -0.325725
      9          1           0       -1.859757    0.951896   -0.414006
 ---------------------------------------------------------------------

 SCF Done:  E(RHF) =  -204.170935890     A.U. after    8 cycles

 The electronic state is 1-A.
 Alpha  occ. eigenvalues --  -15.57246 -15.57030 -15.56913 -11.30040  -1.29831
 Alpha  occ. eigenvalues --   -1.20612  -1.04613  -0.81155  -0.71834  -0.69224
 Alpha  occ. eigenvalues --   -0.61994  -0.59749  -0.55738  -0.47277  -0.42639
 Alpha  occ. eigenvalues --   -0.32702
 Alpha virt. eigenvalues --    0.04187   0.04645   0.05567   0.06170   0.08656
 Alpha virt. eigenvalues --    0.09299   0.10088   0.11852   0.12104   0.12564
 Alpha virt. eigenvalues --    0.13439   0.14073   0.16207   0.17842   0.18713

 Mulliken charges:
               1
     1  N   -0.654081
     2  C    0.179890
     3  N   -0.344642
     4  N   -0.555949
     5  H    0.303508
     6  H    0.324132
     7  H    0.159079
     8  H    0.312228
     9  H    0.275835
 Sum of Mulliken charges =  -0.00000

 Dipole moment (field-independent basis, Debye):
    X=              1.0490    Y=              1.5399    Z=             -0.2813  Tot=              1.8844
 Quadrupole moment (field-independent basis, Debye-Ang):
   XX=            -20.1609   YY=            -22.4568   ZZ=            -27.3466
   XY=             -0.2801   XZ=              6.3676   YZ=             -0.1121

 Normal termination of Gaussian 09 at Mon Aug 22 12:31:15 2022.
