 Gaussian 09, Revision E.01,
 Gaussian 09:  ES64L-G09RevE.01 30-Nov-2015

 -----
 #P G4
 -----

 ---------
 Frag_1157
 ---------
 Symbolic Z-matrix:
 Charge =  0 Multiplicity = 1

 SCF Done:  E(RB3LYP) =  -400.161148809     A.U. after   13 cycles
 SCF Done:  E(RB3LYP) =  -400.168799786     A.U. after   11 cycles
 SCF Done:  E(RB3LYP) =  -400.170025789     A.U. after   11 cycles
 SCF Done:  E(RB3LYP) =  -400.170985195     A.U. after   10 cycles
 SCF Done:  E(RB3LYP) =  -400.171414415     A.U. after   10 cycles
 SCF Done:  E(RB3LYP) =  -400.171601175     A.U. after   10 cycles
 SCF Done:  E(RB3LYP) =  -400.171685080     A.U. after   10 cycles
 SCF Done:  E(RB3LYP) =  -400.171769171     A.U. after   10 cycles
 SCF Done:  E(RB3LYP) =  -400.171871195     A.U. after   10 cycles
 SCF Done:  E(RB3LYP) =  -400.173226978     A.U. after   13 cycles
 SCF Done:  E(RB3LYP) =  -400.186482803     A.U. after    7 cycles
 SCF Done:  E(RB3LYP) =  -400.186483290     A.U. after    7 cycles
 SCF Done:  E(RB3LYP) =  -400.186483339     A.U. after    7 cycles
 Optimization completed.
    -- Stationary point found.
 Normal termination of Gaussian 09 at Sun Aug 21 02:29:09 2022.

 ----------------------------------------------------------
 #P Geom=AllCheck Guess=TCheck SCRF=Check B3LYP/GTBas3 Freq
 ----------------------------------------------------------

 Structure from the checkpoint file:  "G4.Frag_1157.chk"
 ---------
 Frag_1157
 ---------
 Charge =  0 Multiplicity = 1

 SCF Done:  E(RB3LYP) =  -400.186483339     A.U. after    1 cycles

  Exact polarizability:  56.876   1.767  54.313  -0.224  -1.107  46.709
 Approx polarizability:  74.510  -0.237  74.810  -0.850  -0.335  71.125

                      1                      2                      3
                      A                      A                      A
 Frequencies --    104.7014               211.4058               233.0799
 Red. masses --      3.9193                 1.1062                 2.9541
 Frc consts  --      0.0253                 0.0291                 0.0946
 IR Inten    --      3.9473                21.9031                38.0133

                      4                      5                      6
                      A                      A                      A
 Frequencies --    240.7022               260.6157               298.2855
 Red. masses --      1.2409                 1.1861                 3.3938
 Frc consts  --      0.0424                 0.0475                 0.1779
 IR Inten    --     65.5017                19.4578                15.6485

                      7                      8                      9
                      A                      A                      A
 Frequencies --    314.4614               364.1225               393.8014
 Red. masses --      1.1350                 3.0340                 2.7429
 Frc consts  --      0.0661                 0.2370                 0.2506
 IR Inten    --     65.0501                 1.2891                 6.3520

                     10                     11                     12
                      A                      A                      A
 Frequencies --    443.1350               497.6271               560.9862
 Red. masses --      4.0366                 2.2642                 4.7459
 Frc consts  --      0.4670                 0.3303                 0.8800
 IR Inten    --     11.9464                 5.8727                15.1025

                     13                     14                     15
                      A                      A                      A
 Frequencies --    639.8612               649.6894               796.4435
 Red. masses --      1.7293                 2.1244                 2.5450
 Frc consts  --      0.4171                 0.5283                 0.9511
 IR Inten    --     74.9000                23.3261                31.4353

                     16                     17                     18
                      A                      A                      A
 Frequencies --    901.7710               918.8591               965.5684
 Red. masses --      2.3671                 1.6153                 1.8877
 Frc consts  --      1.1341                 0.8035                 1.0369
 IR Inten    --     45.7979               144.9304                28.7757

                     19                     20                     21
                      A                      A                      A
 Frequencies --   1017.8999              1078.2305              1091.2313
 Red. masses --      2.6489                 2.1979                 1.4706
 Frc consts  --      1.6170                 1.5055                 1.0317
 IR Inten    --     14.7657               140.1132                91.1543

                     22                     23                     24
                      A                      A                      A
 Frequencies --   1137.5685              1168.8674              1238.8059
 Red. masses --      2.9381                 2.5102                 1.3142
 Frc consts  --      2.2401                 2.0207                 1.1882
 IR Inten    --     71.4961                42.3132                 5.4346

                     25                     26                     27
                      A                      A                      A
 Frequencies --   1292.6690              1362.1207              1383.5279
 Red. masses --      1.2666                 1.6158                 1.3807
 Frc consts  --      1.2470                 1.7663                 1.5572
 IR Inten    --     61.9408                20.6297                59.5557

                     28                     29                     30
                      A                      A                      A
 Frequencies --   1408.8546              1425.6277              1458.3245
 Red. masses --      1.5014                 1.4045                 1.4776
 Frc consts  --      1.7558                 1.6818                 1.8514
 IR Inten    --     39.6793                 6.2923                92.7188

                     31                     32                     33
                      A                      A                      A
 Frequencies --   1485.5956              1504.1816              1615.7526
 Red. masses --      1.1030                 1.1318                 1.1099
 Frc consts  --      1.4343                 1.5087                 1.7072
 IR Inten    --     15.6844                 7.9973                52.8800

                     34                     35                     36
                      A                      A                      A
 Frequencies --   2936.7026              3045.3594              3118.9680
 Red. masses --      1.0830                 1.0347                 1.1015
 Frc consts  --      5.5030                 5.6539                 6.3132
 IR Inten    --     78.0591                11.8266                17.7159

                     37                     38                     39
                      A                      A                      A
 Frequencies --   3129.5792              3519.1186              3610.3718
 Red. masses --      1.1023                 1.0483                 1.0939
 Frc consts  --      6.3608                 7.6490                 8.4014
 IR Inten    --     18.9423                 5.2372                 9.7075

                     40                     41                     42
                      A                      A                      A
 Frequencies --   3638.7147              3809.3417              3846.7089
 Red. masses --      1.0641                 1.0655                 1.0660
 Frc consts  --      8.3012                 9.1100                 9.2938
 IR Inten    --    112.5893                29.0148                27.0941

 - Thermochemistry -
 -------------------
 Temperature   298.150 Kelvin.  Pressure   1.00000 Atm.
 Atom     1 has atomic number  6 and mass  12.00000

 Molecular mass:   107.05824 amu.
 Principal axes and moments of inertia in atomic units:
                           1         2         3
     Eigenvalues --   529.86056 747.47759 920.63653
           X            0.99480   0.10183   0.00221
           Y           -0.10165   0.99395  -0.04170
           Z           -0.00645   0.04126   0.99913
 This molecule is an asymmetric top.
 Rotational symmetry number  1.
 Warning -- assumption of classical behavior for rotation
           may cause significant error
 Rotational temperatures (Kelvin)      0.16347     0.11587     0.09408
 Rotational constants (GHZ):           3.40607     2.41444     1.96032
 Zero-point vibrational energy     353611.6 (Joules/Mol)
                                   84.51519 (Kcal/Mol)
 Warning -- explicit consideration of  12 degrees of freedom as
           vibrations may cause significant error
 Vibrational temperatures:    150.64   304.17   335.35   346.32   374.97
          (Kelvin)            429.17   452.44   523.89   566.59   637.57
                              715.97   807.13   920.62   934.76  1145.90
                             1297.45  1322.03  1389.24  1464.53  1551.33
                             1570.04  1636.71  1681.74  1782.36  1859.86
                             1959.79  1990.59  2027.02  2051.16  2098.20
                             2137.44  2164.18  2324.70  4225.25  4381.59
                             4487.49  4502.76  5063.22  5194.51  5235.29
                             5480.79  5534.55

 Zero-point correction=                           0.134684 (Hartree/Particle)
 Thermal correction to Energy=                    0.143134
 Thermal correction to Enthalpy=                  0.144078
 Thermal correction to Gibbs Free Energy=         0.102873
 Sum of electronic and zero-point Energies=           -400.051800
 Sum of electronic and thermal Energies=              -400.043350
 Sum of electronic and thermal Enthalpies=            -400.042405
 Sum of electronic and thermal Free Energies=         -400.083611

                     E (Thermal)             CV                S
                      KCal/Mol        Cal/Mol-Kelvin    Cal/Mol-Kelvin
 Total                   89.818             31.540             86.724
 Electronic               0.000              0.000              0.000
 Translational            0.889              2.981             39.921
 Rotational               0.889              2.981             27.391
 Vibrational             88.040             25.578             19.411
 Vibration     1          0.605              1.945              3.365
 Vibration     2          0.643              1.823              2.032
 Vibration     3          0.654              1.790              1.855
 Vibration     4          0.658              1.778              1.798
 Vibration     5          0.669              1.745              1.658
 Vibration     6          0.691              1.677              1.427
 Vibration     7          0.702              1.646              1.339
 Vibration     8          0.738              1.546              1.104
 Vibration     9          0.761              1.483              0.986
 Vibration    10          0.803              1.376              0.817
 Vibration    11          0.853              1.255              0.664
 Vibration    12          0.917              1.116              0.522

 Normal termination of Gaussian 09 at Sun Aug 21 02:33:36 2022.

 -----------------------------------------------------------------
 #P Geom=AllCheck Guess=TCheck SCRF=Check CCSD(T,E4T,FrzG4)/GTBas1
 -----------------------------------------------------------------

 Structure from the checkpoint file:  "G4.Frag_1157.chk"
 ---------
 Frag_1157
 ---------
 Charge =  0 Multiplicity = 1

 SCF Done:  E(RHF) =  -397.860495403     A.U. after   12 cycles
 E2 =    -0.1097485502D+01 EUMP2 =    -0.39895798090442D+03
 CCSD(T)
 CCSD(T)= -0.39903774523D+03
 399.0386471\MP4SDQ=-399.0083843\CCSD=-399.0082708\CCSD(T)=-399.0377452
 Normal termination of Gaussian 09 at Sun Aug 21 02:47:16 2022.

 ---------------------------------------------------------
 #P Geom=AllCheck Guess=TCheck SCRF=Check MP4=FrzG4/GTBas2
 ---------------------------------------------------------

 Structure from the checkpoint file:  "G4.Frag_1157.chk"
 ---------
 Frag_1157
 ---------
 Charge =  0 Multiplicity = 1

 SCF Done:  E(RHF) =  -397.875946738     A.U. after   12 cycles
 E2 =    -0.1119143665D+01 EUMP2 =    -0.39899509040245D+03
 Normal termination of Gaussian 09 at Sun Aug 21 03:04:30 2022.

 ---------------------------------------------------------
 #P Geom=AllCheck Guess=TCheck SCRF=Check MP4=FrzG4/GTBas3
 ---------------------------------------------------------

 Structure from the checkpoint file:  "G4.Frag_1157.chk"
 ---------
 Frag_1157
 ---------
 Charge =  0 Multiplicity = 1

 SCF Done:  E(RHF) =  -397.918325048     A.U. after   11 cycles
 E2 =    -0.1362233636D+01 EUMP2 =    -0.39928055868362D+03
 Normal termination of Gaussian 09 at Sun Aug 21 07:52:35 2022.

 -----------------------------------------------------------
 #P Geom=AllCheck Guess=TCheck SCRF=Check MP2=Full/GTLargeXP
 -----------------------------------------------------------

 Structure from the checkpoint file:  "G4.Frag_1157.chk"
 ---------
 Frag_1157
 ---------
 Charge =  0 Multiplicity = 1

 SCF Done:  E(RHF) =  -398.031274928     A.U. after   11 cycles
 E2 =    -0.1773994202D+01 EUMP2 =    -0.39980526913040D+03
 Normal termination of Gaussian 09 at Sun Aug 21 08:04:05 2022.
 SCF Done:  E(RHF) =  -398.063391184     A.U. after    8 cycles
 Normal termination of Gaussian 09 at Sun Aug 21 08:12:48 2022.

                         Standard orientation:
 ---------------------------------------------------------------------
 Center     Atomic      Atomic             Coordinates (Angstroms)
 Number     Number       Type             X           Y           Z
 ---------------------------------------------------------------------
      1          6           0        1.518894    1.147661   -0.229128
      2          6           0        0.627175   -0.062646    0.017714
      3          8           0        1.070563   -1.185487   -0.750239
      4          8           0        0.651493   -0.352222    1.381542
      5          6           0       -0.834077    0.142325   -0.462919
      6          7           0       -1.599111   -0.987016    0.036474
      7          8           0       -1.437997    1.285112    0.102949
      8          1           0        2.533302    0.930329    0.117497
      9          1           0        1.152561    2.013235    0.328439
     10          1           0        1.562010    1.381785   -1.296728
     11          1           0        1.814486   -1.558625   -0.264195
     12          1           0       -0.190473   -0.809722    1.553743
     13          1           0       -0.822192    0.218081   -1.564869
     14          1           0       -1.294862   -1.828691   -0.440548
     15          1           0       -2.585603   -0.838256   -0.144136
     16          1           0       -1.119876    2.057715   -0.372544
 ---------------------------------------------------------------------

 SCF Done:  E(RHF) =  -398.070556282     A.U. after    8 cycles

 The electronic state is 1-A.
 Alpha  occ. eigenvalues --  -20.56909 -20.56085 -20.55186 -15.55367 -11.33696
 Alpha  occ. eigenvalues --  -11.31871 -11.22114  -1.41709  -1.38057  -1.32891
 Alpha  occ. eigenvalues --   -1.18404  -1.01756  -0.91381  -0.79892  -0.75376
 Alpha  occ. eigenvalues --   -0.71045  -0.68847  -0.65280  -0.62045  -0.61103
 Alpha  occ. eigenvalues --   -0.59521  -0.55521  -0.54943  -0.54326  -0.52620
 Alpha  occ. eigenvalues --   -0.48307  -0.47174  -0.44557  -0.41073
 Alpha virt. eigenvalues --    0.03203   0.04152   0.04639   0.05627   0.06221
 Alpha virt. eigenvalues --    0.06858   0.07497   0.07679   0.09189   0.09854
 Alpha virt. eigenvalues --    0.10764   0.11855   0.13585   0.13949   0.14436

 Mulliken charges:
               1
     1  C   -0.594307
     2  C    0.568906
     3  O   -0.650728
     4  O   -0.642231
     5  C    0.166151
     6  N   -0.764005
     7  O   -0.585844
     8  H    0.177228
     9  H    0.179507
    10  H    0.183697
    11  H    0.380997
    12  H    0.412120
    13  H    0.158402
    14  H    0.327191
    15  H    0.310237
    16  H    0.372681
 Sum of Mulliken charges =  -0.00000

 Dipole moment (field-independent basis, Debye):
    X=             -0.0453    Y=              0.2586    Z=             -2.1539  Tot=              2.1699
 Quadrupole moment (field-independent basis, Debye-Ang):
   XX=            -40.2327   YY=            -38.0988   ZZ=            -46.7949
   XY=              1.5818   XZ=              2.3716   YZ=             -3.0879

 Normal termination of Gaussian 09 at Sun Aug 21 12:34:41 2022.
