 Gaussian 09, Revision E.01,
 Gaussian 09:  ES64L-G09RevE.01 30-Nov-2015

 -----
 #P G4
 -----

 --------
 Frag_670
 --------
 Symbolic Z-matrix:
 Charge =  0 Multiplicity = 1

 SCF Done:  E(RB3LYP) =  -264.432500400     A.U. after   14 cycles
 SCF Done:  E(RB3LYP) =  -264.497226203     A.U. after   12 cycles
 SCF Done:  E(RB3LYP) =  -264.524295455     A.U. after   12 cycles
 SCF Done:  E(RB3LYP) =  -264.529182943     A.U. after   12 cycles
 SCF Done:  E(RB3LYP) =  -264.530117478     A.U. after   12 cycles
 SCF Done:  E(RB3LYP) =  -264.529894092     A.U. after   12 cycles
 SCF Done:  E(RB3LYP) =  -264.530251684     A.U. after    8 cycles
 SCF Done:  E(RB3LYP) =  -264.530488409     A.U. after   11 cycles
 SCF Done:  E(RB3LYP) =  -264.525957484     A.U. after   15 cycles
 SCF Done:  E(RB3LYP) =  -264.531346323     A.U. after   11 cycles
 SCF Done:  E(RB3LYP) =  -264.534363894     A.U. after    9 cycles
 SCF Done:  E(RB3LYP) =  -264.534364731     A.U. after    7 cycles
 SCF Done:  E(RB3LYP) =  -264.534364842     A.U. after    7 cycles
 Optimization completed.
    -- Stationary point found.
 Normal termination of Gaussian 09 at Tue Aug 30 11:24:02 2022.

 ----------------------------------------------------------
 #P Geom=AllCheck Guess=TCheck SCRF=Check B3LYP/GTBas3 Freq
 ----------------------------------------------------------

 Structure from the checkpoint file:  "G4.Frag_670.chk"
 --------
 Frag_670
 --------
 Charge =  0 Multiplicity = 1

 SCF Done:  E(RB3LYP) =  -264.534364842     A.U. after    1 cycles

  Exact polarizability:  50.844   0.933  43.340  -0.001   0.002  29.592
 Approx polarizability:  75.887  -1.389  59.248   0.003   0.002  43.115

                      1                      2                      3
                      A                      A                      A
 Frequencies --    106.3674               238.9609               265.3767
 Red. masses --      2.3191                 1.1114                 1.2128
 Frc consts  --      0.0155                 0.0374                 0.0503
 IR Inten    --      3.5620                 4.3941                24.2071

                      4                      5                      6
                      A                      A                      A
 Frequencies --    315.2705               328.7995               415.6723
 Red. masses --      5.5529                 2.4093                 2.4940
 Frc consts  --      0.3252                 0.1535                 0.2539
 IR Inten    --      2.5188                16.8757                 6.5389

                      7                      8                      9
                      A                      A                      A
 Frequencies --    657.9352               843.5110               975.6651
 Red. masses --      4.7246                 2.7325                 2.0556
 Frc consts  --      1.2050                 1.1455                 1.1529
 IR Inten    --      8.3323                75.8688               123.0658

                     10                     11                     12
                      A                      A                      A
 Frequencies --   1031.7532              1073.1797              1152.7403
 Red. masses --      1.6013                 1.4907                 1.2724
 Frc consts  --      1.0044                 1.0115                 0.9962
 IR Inten    --      0.6164                40.1202                 0.5125

                     13                     14                     15
                      A                      A                      A
 Frequencies --   1238.3977              1333.6352              1404.2734
 Red. masses --      5.2813                 1.1680                 3.0227
 Frc consts  --      4.7721                 1.2239                 3.5120
 IR Inten    --     12.6079                 3.2726                55.6038

                     16                     17                     18
                      A                      A                      A
 Frequencies --   1437.7068              1470.2006              1477.4886
 Red. masses --      1.2506                 1.1982                 1.0428
 Frc consts  --      1.5231                 1.5259                 1.3412
 IR Inten    --      3.7590                 1.0319                 8.6357

                     19                     20                     21
                      A                      A                      A
 Frequencies --   1521.4152              1689.1447              1836.6010
 Red. masses --      1.0974                 1.1444                 7.4009
 Frc consts  --      1.4967                 1.9237                14.7084
 IR Inten    --     10.9407                 3.9967               396.4314

                     22                     23                     24
                      A                      A                      A
 Frequencies --   2915.2534              3003.3138              3050.0358
 Red. masses --      1.0827                 1.0367                 1.1040
 Frc consts  --      5.4212                 5.5096                 6.0509
 IR Inten    --     89.3436                57.0282                37.0359

                     25                     26                     27
                      A                      A                      A
 Frequencies --   3117.0942              3447.4558              3525.3828
 Red. masses --      1.0969                 1.0453                 1.0969
 Frc consts  --      6.2795                 7.3198                 8.0322
 IR Inten    --     17.2028                 1.4630                 0.2270

 - Thermochemistry -
 -------------------
 Temperature   298.150 Kelvin.  Pressure   1.00000 Atm.
 Atom     1 has atomic number  6 and mass  12.00000

 Molecular mass:    74.04801 amu.
 Principal axes and moments of inertia in atomic units:
                           1         2         3
     Eigenvalues --   194.08602 432.99178 605.96902
           X            0.99998  -0.00648  -0.00002
           Y            0.00648   0.99998   0.00005
           Z            0.00002  -0.00005   1.00000
 This molecule is an asymmetric top.
 Rotational symmetry number  1.
 Rotational temperatures (Kelvin)      0.44627     0.20004     0.14293
 Rotational constants (GHZ):           9.29867     4.16807     2.97827
 Zero-point vibrational energy     238491.3 (Joules/Mol)
                                   57.00079 (Kcal/Mol)
 Warning -- explicit consideration of   6 degrees of freedom as
           vibrations may cause significant error
 Vibrational temperatures:    153.04   343.81   381.82   453.60   473.07
          (Kelvin)            598.06   946.62  1213.62  1403.76  1484.46
                             1544.06  1658.53  1781.78  1918.80  2020.43
                             2068.54  2115.29  2125.77  2188.97  2430.30
                             2642.46  4194.39  4321.09  4388.32  4484.80
                             4960.11  5072.23

 Zero-point correction=                           0.090837 (Hartree/Particle)
 Thermal correction to Energy=                    0.096815
 Thermal correction to Enthalpy=                  0.097760
 Thermal correction to Gibbs Free Energy=         0.061881
 Sum of electronic and zero-point Energies=           -264.443528
 Sum of electronic and thermal Energies=              -264.437549
 Sum of electronic and thermal Enthalpies=            -264.436605
 Sum of electronic and thermal Free Energies=         -264.472484

                     E (Thermal)             CV                S
                      KCal/Mol        Cal/Mol-Kelvin    Cal/Mol-Kelvin
 Total                   60.753             19.711             75.513
 Electronic               0.000              0.000              0.000
 Translational            0.889              2.981             38.822
 Rotational               0.889              2.981             25.435
 Vibrational             58.975             13.749             11.255
 Vibration     1          0.605              1.944              3.334
 Vibration     2          0.657              1.781              1.811
 Vibration     3          0.671              1.737              1.626
 Vibration     4          0.703              1.644              1.335
 Vibration     5          0.712              1.618              1.266
 Vibration     6          0.779              1.436              0.907

 Normal termination of Gaussian 09 at Tue Aug 30 11:24:20 2022.

 -----------------------------------------------------------------
 #P Geom=AllCheck Guess=TCheck SCRF=Check CCSD(T,E4T,FrzG4)/GTBas1
 -----------------------------------------------------------------

 Structure from the checkpoint file:  "G4.Frag_670.chk"
 --------
 Frag_670
 --------
 Charge =  0 Multiplicity = 1

 SCF Done:  E(RHF) =  -262.941965142     A.U. after   13 cycles
 E2 =    -0.7590150834D+00 EUMP2 =    -0.26370098022580D+03
 CCSD(T)
 CCSD(T)= -0.26376041315D+03
 8\MP4SDQ=-263.7366808\CCSD=-263.735578\CCSD(T)=-263.7604132\RMSD=6.127
 Normal termination of Gaussian 09 at Tue Aug 30 11:25:17 2022.

 ---------------------------------------------------------
 #P Geom=AllCheck Guess=TCheck SCRF=Check MP4=FrzG4/GTBas2
 ---------------------------------------------------------

 Structure from the checkpoint file:  "G4.Frag_670.chk"
 --------
 Frag_670
 --------
 Charge =  0 Multiplicity = 1

 SCF Done:  E(RHF) =  -262.950789805     A.U. after   12 cycles
 E2 =    -0.7701898218D+00 EUMP2 =    -0.26372097962675D+03
 Normal termination of Gaussian 09 at Tue Aug 30 11:25:32 2022.

 ---------------------------------------------------------
 #P Geom=AllCheck Guess=TCheck SCRF=Check MP4=FrzG4/GTBas3
 ---------------------------------------------------------

 Structure from the checkpoint file:  "G4.Frag_670.chk"
 --------
 Frag_670
 --------
 Charge =  0 Multiplicity = 1

 SCF Done:  E(RHF) =  -262.975246787     A.U. after   12 cycles
 E2 =    -0.9278792571D+00 EUMP2 =    -0.26390312604447D+03
 Normal termination of Gaussian 09 at Tue Aug 30 11:26:47 2022.

 -----------------------------------------------------------
 #P Geom=AllCheck Guess=TCheck SCRF=Check MP2=Full/GTLargeXP
 -----------------------------------------------------------

 Structure from the checkpoint file:  "G4.Frag_670.chk"
 --------
 Frag_670
 --------
 Charge =  0 Multiplicity = 1

 SCF Done:  E(RHF) =  -263.045880094     A.U. after   12 cycles
 E2 =    -0.1211411711D+01 EUMP2 =    -0.26425729180518D+03
 Normal termination of Gaussian 09 at Tue Aug 30 11:27:34 2022.
 SCF Done:  E(RHF) =  -263.066561543     A.U. after   10 cycles
 Normal termination of Gaussian 09 at Tue Aug 30 11:28:35 2022.

                         Standard orientation:
 ---------------------------------------------------------------------
 Center     Atomic      Atomic             Coordinates (Angstroms)
 Number     Number       Type             X           Y           Z
 ---------------------------------------------------------------------
      1          6           0        1.554816   -0.781890   -0.000114
      2          7           0        0.331414   -0.007656    0.000486
      3          7           0        0.416996    1.391609   -0.000250
      4          6           0       -0.911965   -0.590428    0.000096
      5          8           0       -1.974156   -0.021493   -0.000240
      6          1           0        2.161305   -0.563378    0.888916
      7          1           0        1.316368   -1.848589    0.000315
      8          1           0        2.160220   -0.563821   -0.889979
      9          1           0        0.937020    1.694372   -0.821273
     10          1           0        0.934322    1.695461    0.822103
     11          1           0       -0.811964   -1.695862    0.000289
 ---------------------------------------------------------------------

 SCF Done:  E(RHF) =  -263.070950430     A.U. after    8 cycles

 The electronic state is 1-A.
 Alpha  occ. eigenvalues --  -20.51805 -15.61783 -15.59463 -11.34468 -11.28273
 Alpha  occ. eigenvalues --   -1.38669  -1.30916  -1.10502  -0.96506  -0.80549
 Alpha  occ. eigenvalues --   -0.71117  -0.70224  -0.66617  -0.60720  -0.60618
 Alpha  occ. eigenvalues --   -0.57947  -0.53811  -0.44205  -0.42673  -0.38758
 Alpha virt. eigenvalues --    0.02875   0.04302   0.04492   0.04981   0.07192
 Alpha virt. eigenvalues --    0.07798   0.08006   0.08489   0.09633   0.12215
 Alpha virt. eigenvalues --    0.14541   0.14574   0.14969   0.15534   0.17447

 Mulliken charges:
               1
     1  C   -0.436020
     2  N   -0.018799
     3  N   -0.561033
     4  C    0.287511
     5  O   -0.561195
     6  H    0.171666
     7  H    0.187530
     8  H    0.171602
     9  H    0.306261
    10  H    0.306372
    11  H    0.146105
 Sum of Mulliken charges =  -0.00000

 Dipole moment (field-independent basis, Debye):
    X=              5.5109    Y=             -1.3246    Z=              0.0020  Tot=              5.6679
 Quadrupole moment (field-independent basis, Debye-Ang):
   XX=            -36.5500   YY=            -27.3616   ZZ=            -28.9305
   XY=              3.4006   XZ=             -0.0048   YZ=              0.0057

 CCSD(T)/G3Bas1=-263.7604132\MP2/GTBas2=-263.7209796\MP4/GTBas2=-263.78
 Normal termination of Gaussian 09 at Tue Aug 30 11:34:13 2022.
