 Gaussian 09, Revision E.01,
 Gaussian 09:  ES64L-G09RevE.01 30-Nov-2015

 -----
 #P G4
 -----

 ---------
 Frag_1134
 ---------
 Symbolic Z-matrix:
 Charge =  0 Multiplicity = 1

 SCF Done:  E(RB3LYP) =  -285.069389155     A.U. after   13 cycles
 SCF Done:  E(RB3LYP) =  -285.080853413     A.U. after   12 cycles
 SCF Done:  E(RB3LYP) =  -285.081933411     A.U. after   11 cycles
 SCF Done:  E(RB3LYP) =  -285.082642648     A.U. after   11 cycles
 SCF Done:  E(RB3LYP) =  -285.082803320     A.U. after   11 cycles
 SCF Done:  E(RB3LYP) =  -285.082887387     A.U. after   11 cycles
 SCF Done:  E(RB3LYP) =  -285.082922756     A.U. after    9 cycles
 SCF Done:  E(RB3LYP) =  -285.082948429     A.U. after    9 cycles
 SCF Done:  E(RB3LYP) =  -285.082951579     A.U. after    8 cycles
 SCF Done:  E(RB3LYP) =  -285.082951935     A.U. after    7 cycles
 Optimization completed.
    -- Stationary point found.
 Normal termination of Gaussian 09 at Fri Aug 26 09:29:21 2022.

 ----------------------------------------------------------
 #P Geom=AllCheck Guess=TCheck SCRF=Check B3LYP/GTBas3 Freq
 ----------------------------------------------------------

 Structure from the checkpoint file:  "G4.Frag_1134.chk"
 ---------
 Frag_1134
 ---------
 Charge =  0 Multiplicity = 1

 SCF Done:  E(RB3LYP) =  -285.082951935     A.U. after    1 cycles

  Exact polarizability:  69.375   0.003  55.198   2.368  -0.001  54.375
 Approx polarizability:  95.584   0.006  76.866   5.661   0.003  80.546

                      1                      2                      3
                      A                      A                      A
 Frequencies --    163.5454               195.7394               245.2661
 Red. masses --      2.3941                 1.1864                 1.0329
 Frc consts  --      0.0377                 0.0268                 0.0366
 IR Inten    --      3.0831                 0.0025                 1.1971

                      4                      5                      6
                      A                      A                      A
 Frequencies --    284.5075               293.3724               340.2392
 Red. masses --      2.5499                 1.1334                 2.2998
 Frc consts  --      0.1216                 0.0575                 0.1569
 IR Inten    --      1.0373                 0.8479                 2.7519

                      7                      8                      9
                      A                      A                      A
 Frequencies --    379.8020               420.1275               421.8552
 Red. masses --      4.0118                 2.4430                 1.4845
 Frc consts  --      0.3410                 0.2541                 0.1556
 IR Inten    --      2.5469                14.2095                 8.0796

                     10                     11                     12
                      A                      A                      A
 Frequencies --    442.5357               504.0063               594.3147
 Red. masses --      2.3062                 1.8205                 3.0888
 Frc consts  --      0.2661                 0.2725                 0.6428
 IR Inten    --     16.8459                32.9904                47.6997

                     13                     14                     15
                      A                      A                      A
 Frequencies --    769.1995               866.9984               946.7111
 Red. masses --      4.2516                 3.0834                 2.0883
 Frc consts  --      1.4821                 1.3656                 1.1028
 IR Inten    --      3.9909                16.7347                 0.9846

                     16                     17                     18
                      A                      A                      A
 Frequencies --    999.5076              1062.3708              1088.7892
 Red. masses --      1.8411                 1.1959                 2.1615
 Frc consts  --      1.0837                 0.7953                 1.5097
 IR Inten    --     11.0055                 0.4785                33.8878

                     19                     20                     21
                      A                      A                      A
 Frequencies --   1112.5902              1125.6924              1229.1646
 Red. masses --      1.3839                 1.4549                 1.6446
 Frc consts  --      1.0093                 1.0863                 1.4640
 IR Inten    --      5.3480                 1.9618                 4.2193

                     22                     23                     24
                      A                      A                      A
 Frequencies --   1246.1070              1282.3111              1309.6571
 Red. masses --      1.1618                 2.1239                 2.5387
 Frc consts  --      1.0629                 2.0577                 2.5655
 IR Inten    --      0.0060                 0.0002                 1.1655

                     25                     26                     27
                      A                      A                      A
 Frequencies --   1402.3531              1410.8949              1449.9553
 Red. masses --      1.1631                 1.1609                 1.0496
 Frc consts  --      1.3477                 1.3615                 1.3001
 IR Inten    --      2.0009                 2.5489                 1.4941

                     28                     29                     30
                      A                      A                      A
 Frequencies --   1451.0967              1468.2164              1484.5581
 Red. masses --      1.2025                 1.0465                 1.0681
 Frc consts  --      1.4918                 1.3291                 1.3869
 IR Inten    --      4.8947                 2.5288                14.4098

                     31                     32                     33
                      A                      A                      A
 Frequencies --   1489.0500              1499.5501              1521.6139
 Red. masses --      1.0426                 1.0541                 1.0455
 Frc consts  --      1.3620                 1.3966                 1.4262
 IR Inten    --      2.0532                 8.1640                12.2150

                     34                     35                     36
                      A                      A                      A
 Frequencies --   1678.2229              3030.5399              3040.6704
 Red. masses --      1.0683                 1.0403                 1.0391
 Frc consts  --      1.7728                 5.6290                 5.6602
 IR Inten    --      0.9335                21.8876                52.5861

                     37                     38                     39
                      A                      A                      A
 Frequencies --   3062.7696              3129.9112              3134.8814
 Red. masses --      1.0347                 1.0926                 1.0944
 Frc consts  --      5.7186                 6.3064                 6.3371
 IR Inten    --     34.0034                 6.2230                 9.7769

                     40                     41                     42
                      A                      A                      A
 Frequencies --   3154.7487              3166.6939              3169.9852
 Red. masses --      1.1010                 1.1053                 1.1049
 Frc consts  --      6.4562                 6.5307                 6.5418
 IR Inten    --      8.6198                 0.6369                 9.8181

                     43                     44                     45
                      A                      A                      A
 Frequencies --   3173.3441              3401.2883              3446.2438
 Red. masses --      1.1040                 1.0433                 1.0989
 Frc consts  --      6.5500                 7.1115                 7.6899
 IR Inten    --      7.3383                32.1804                 6.9742

 - Thermochemistry -
 -------------------
 Temperature   298.150 Kelvin.  Pressure   1.00000 Atm.
 Atom     1 has atomic number  6 and mass  12.00000

 Molecular mass:    89.09530 amu.
 Principal axes and moments of inertia in atomic units:
                           1         2         3
     Eigenvalues --   385.26289 633.51057 637.34139
           X            0.99971  -0.02392   0.00004
           Y            0.00002   0.00240   1.00000
           Z            0.02392   0.99971  -0.00240
 This molecule is an asymmetric top.
 Rotational symmetry number  1.
 Rotational temperatures (Kelvin)      0.22482     0.13672     0.13590
 Rotational constants (GHZ):           4.68444     2.84879     2.83167
 Zero-point vibrational energy     401293.3 (Joules/Mol)
                                   95.91140 (Kcal/Mol)
 Warning -- explicit consideration of  12 degrees of freedom as
           vibrations may cause significant error
 Vibrational temperatures:    235.31   281.62   352.88   409.34   422.10
          (Kelvin)            489.53   546.45   604.47   606.95   636.71
                              725.15   855.09  1106.71  1247.42  1362.10
                             1438.07  1528.51  1566.52  1600.77  1619.62
                             1768.49  1792.87  1844.96  1884.30  2017.67
                             2029.96  2086.16  2087.80  2112.43  2135.95
                             2142.41  2157.52  2189.26  2414.59  4360.27
                             4374.84  4406.64  4503.24  4510.39  4538.97
                             4556.16  4560.90  4565.73  4893.69  4958.37

 Zero-point correction=                           0.152845 (Hartree/Particle)
 Thermal correction to Energy=                    0.160600
 Thermal correction to Enthalpy=                  0.161544
 Thermal correction to Gibbs Free Energy=         0.122396
 Sum of electronic and zero-point Energies=           -284.930107
 Sum of electronic and thermal Energies=              -284.922352
 Sum of electronic and thermal Enthalpies=            -284.921408
 Sum of electronic and thermal Free Energies=         -284.960555

                     E (Thermal)             CV                S
                      KCal/Mol        Cal/Mol-Kelvin    Cal/Mol-Kelvin
 Total                  100.778             29.146             82.392
 Electronic               0.000              0.000              0.000
 Translational            0.889              2.981             39.374
 Rotational               0.889              2.981             26.545
 Vibrational             99.000             23.184             16.474
 Vibration     1          0.623              1.887              2.508
 Vibration     2          0.636              1.846              2.173
 Vibration     3          0.660              1.771              1.764
 Vibration     4          0.683              1.702              1.506
 Vibration     5          0.688              1.686              1.454
 Vibration     6          0.720              1.595              1.211
 Vibration     7          0.750              1.513              1.040
 Vibration     8          0.783              1.426              0.892
 Vibration     9          0.784              1.423              0.886
 Vibration    10          0.802              1.377              0.819
 Vibration    11          0.859              1.241              0.648
 Vibration    12          0.952              1.044              0.460

 Optimization completed.
    -- Stationary point found.
 Normal termination of Gaussian 09 at Fri Aug 26 09:30:04 2022.

 -----------------------------------------------------------------
 #P Geom=AllCheck Guess=TCheck SCRF=Check CCSD(T,E4T,FrzG4)/GTBas1
 -----------------------------------------------------------------

 Structure from the checkpoint file:  "G4.Frag_1134.chk"
 ---------
 Frag_1134
 ---------
 Charge =  0 Multiplicity = 1

 SCF Done:  E(RHF) =  -283.196088472     A.U. after   13 cycles
 E2 =    -0.8970752731D+00 EUMP2 =    -0.28409316374535D+03
 CCSD(T)
 CCSD(T)= -0.28418510322D+03
 .1541599\CCSD=-284.1554771\CCSD(T)=-284.1851032\RMSD=4.084e-09\PG=C01
 Normal termination of Gaussian 09 at Fri Aug 26 09:32:47 2022.

 ---------------------------------------------------------
 #P Geom=AllCheck Guess=TCheck SCRF=Check MP4=FrzG4/GTBas2
 ---------------------------------------------------------

 Structure from the checkpoint file:  "G4.Frag_1134.chk"
 ---------
 Frag_1134
 ---------
 Charge =  0 Multiplicity = 1

 SCF Done:  E(RHF) =  -283.206953349     A.U. after   13 cycles
 E2 =    -0.9136009898D+00 EUMP2 =    -0.28412055433931D+03
 Normal termination of Gaussian 09 at Fri Aug 26 09:33:38 2022.

 ---------------------------------------------------------
 #P Geom=AllCheck Guess=TCheck SCRF=Check MP4=FrzG4/GTBas3
 ---------------------------------------------------------

 Structure from the checkpoint file:  "G4.Frag_1134.chk"
 ---------
 Frag_1134
 ---------
 Charge =  0 Multiplicity = 1

 SCF Done:  E(RHF) =  -283.232527863     A.U. after   11 cycles
 E2 =    -0.1107790487D+01 EUMP2 =    -0.28434031834984D+03
 Normal termination of Gaussian 09 at Fri Aug 26 09:38:50 2022.

 -----------------------------------------------------------
 #P Geom=AllCheck Guess=TCheck SCRF=Check MP2=Full/GTLargeXP
 -----------------------------------------------------------

 Structure from the checkpoint file:  "G4.Frag_1134.chk"
 ---------
 Frag_1134
 ---------
 Charge =  0 Multiplicity = 1

 SCF Done:  E(RHF) =  -283.304674736     A.U. after   12 cycles
 E2 =    -0.1443732375D+01 EUMP2 =    -0.28474840711102D+03
 Normal termination of Gaussian 09 at Fri Aug 26 09:41:16 2022.
 SCF Done:  E(RHF) =  -283.326333425     A.U. after   10 cycles
 Normal termination of Gaussian 09 at Fri Aug 26 09:44:14 2022.

                         Standard orientation:
 ---------------------------------------------------------------------
 Center     Atomic      Atomic             Coordinates (Angstroms)
 Number     Number       Type             X           Y           Z
 ---------------------------------------------------------------------
      1          6           0        0.422522    1.220745    0.853091
      2          7           0        0.384094    0.000004    0.001734
      3          6           0        1.509104   -0.001640   -0.955837
      4          6           0        0.421582   -1.218569    0.856228
      5          7           0       -0.832407   -0.000791   -0.919724
      6          7           0       -1.951526    0.000068   -0.051495
      7          1           0        0.443148    2.083677    0.187752
      8          1           0        1.294824    1.220515    1.515860
      9          1           0       -0.499433    1.228045    1.434956
     10          1           0        2.464971   -0.001352   -0.425721
     11          1           0        1.405145   -0.887510   -1.581430
     12          1           0        1.405818    0.882748   -1.583629
     13          1           0        1.293889   -1.217326    1.518990
     14          1           0       -0.500370   -1.223612    1.438130
     15          1           0        0.441498   -2.083238    0.193128
     16          1           0       -2.534900    0.818940   -0.217028
     17          1           0       -2.534957   -0.819067   -0.215505
 ---------------------------------------------------------------------

 SCF Done:  E(RHF) =  -283.331093599     A.U. after    8 cycles

 The electronic state is 1-A.
 Alpha  occ. eigenvalues --  -15.65571 -15.52670 -15.50141 -11.25934 -11.25894
 Alpha  occ. eigenvalues --  -11.25892  -1.31072  -1.16481  -0.97995  -0.97651
 Alpha  occ. eigenvalues --   -0.92403  -0.80487  -0.66616  -0.66425  -0.65764
 Alpha  occ. eigenvalues --   -0.62460  -0.58450  -0.56746  -0.53772  -0.53373
 Alpha  occ. eigenvalues --   -0.52688  -0.50466  -0.47492  -0.33323  -0.29534
 Alpha virt. eigenvalues --    0.03398   0.03943   0.04028   0.05464   0.06415
 Alpha virt. eigenvalues --    0.06644   0.07338   0.07586   0.08012   0.09807
 Alpha virt. eigenvalues --    0.10845   0.11292   0.11567   0.13998   0.14241

 Mulliken charges:
               1
     1  C   -0.555088
     2  N    0.489135
     3  C   -0.520450
     4  C   -0.555130
     5  N   -0.556632
     6  N   -0.711355
     7  H    0.199860
     8  H    0.170972
     9  H    0.224735
    10  H    0.174724
    11  H    0.212146
    12  H    0.212135
    13  H    0.170974
    14  H    0.224808
    15  H    0.199850
    16  H    0.309673
    17  H    0.309643
 Sum of Mulliken charges =  -0.00000

 Dipole moment (field-independent basis, Debye):
    X=              2.6416    Y=              0.0020    Z=              2.3298  Tot=              3.5222
 Quadrupole moment (field-independent basis, Debye-Ang):
   XX=            -35.7734   YY=            -36.5529   ZZ=            -42.6810
   XY=             -0.0007   XZ=             -1.3121   YZ=             -0.0052

 Normal termination of Gaussian 09 at Fri Aug 26 09:54:00 2022.
