 Gaussian 09, Revision E.01,
 Gaussian 09:  ES64L-G09RevE.01 30-Nov-2015

 -----
 #P G4
 -----

 --------
 Frag_632
 --------
 Symbolic Z-matrix:
 Charge =  0 Multiplicity = 1

 SCF Done:  E(RB3LYP) =  -307.277749628     A.U. after   14 cycles
 SCF Done:  E(RB3LYP) =  -307.288634056     A.U. after   12 cycles
 SCF Done:  E(RB3LYP) =  -307.289086690     A.U. after   11 cycles
 SCF Done:  E(RB3LYP) =  -307.289048129     A.U. after   11 cycles
 SCF Done:  E(RB3LYP) =  -307.289198605     A.U. after   11 cycles
 SCF Done:  E(RB3LYP) =  -307.289214855     A.U. after    9 cycles
 SCF Done:  E(RB3LYP) =  -307.289218798     A.U. after    8 cycles
 SCF Done:  E(RB3LYP) =  -307.289220150     A.U. after    8 cycles
 SCF Done:  E(RB3LYP) =  -307.289220662     A.U. after    7 cycles
 SCF Done:  E(RB3LYP) =  -307.289220770     A.U. after    7 cycles
 SCF Done:  E(RB3LYP) =  -307.289220742     A.U. after    7 cycles
 Optimization completed.
    -- Stationary point found.
 Normal termination of Gaussian 09 at Tue Aug 30 11:21:16 2022.

 ----------------------------------------------------------
 #P Geom=AllCheck Guess=TCheck SCRF=Check B3LYP/GTBas3 Freq
 ----------------------------------------------------------

 Structure from the checkpoint file:  "G4.Frag_632.chk"
 --------
 Frag_632
 --------
 Charge =  0 Multiplicity = 1

 SCF Done:  E(RB3LYP) =  -307.289220742     A.U. after    1 cycles

  Exact polarizability:  71.470   0.648  74.699  -0.123   0.260  57.157
 Approx polarizability:  98.616   4.481 115.609   0.178  -0.406  81.085

                      1                      2                      3
                      A                      A                      A
 Frequencies --     55.7601               195.4937               253.1670
 Red. masses --      3.3517                 1.1797                 1.0777
 Frc consts  --      0.0061                 0.0266                 0.0407
 IR Inten    --      2.3917                 0.2308                 0.3331

                      4                      5                      6
                      A                      A                      A
 Frequencies --    270.5809               284.3413               308.6010
 Red. masses --      1.7845                 2.4632                 1.1240
 Frc consts  --      0.0770                 0.1173                 0.0631
 IR Inten    --      2.3752                 0.8596                 1.4127

                      7                      8                      9
                      A                      A                      A
 Frequencies --    352.8422               374.3228               383.3248
 Red. masses --      2.5172                 1.9322                 2.0187
 Frc consts  --      0.1846                 0.1595                 0.1748
 IR Inten    --      1.7448                 7.7534                19.1068

                     10                     11                     12
                      A                      A                      A
 Frequencies --    393.0961               496.0915               538.5478
 Red. masses --      1.5469                 2.6247                 2.5663
 Frc consts  --      0.1408                 0.3806                 0.4385
 IR Inten    --     30.9175                 2.3271                10.4626

                     13                     14                     15
                      A                      A                      A
 Frequencies --    568.6692               697.7307               740.6921
 Red. masses --      1.2870                 3.2289                 4.9568
 Frc consts  --      0.2452                 0.9262                 1.6022
 IR Inten    --    171.4855                 3.1740                31.9775

                     16                     17                     18
                      A                      A                      A
 Frequencies --    843.1276               855.7591               935.8473
 Red. masses --      1.1330                 2.2867                 1.7415
 Frc consts  --      0.4745                 0.9867                 0.8987
 IR Inten    --     25.5684                 3.9406                 1.4780

                     19                     20                     21
                      A                      A                      A
 Frequencies --    945.8759               962.3418              1039.5239
 Red. masses --      1.6684                 1.2021                 1.4287
 Frc consts  --      0.8795                 0.6559                 0.9096
 IR Inten    --      1.0277                 0.1292                 2.3119

                     22                     23                     24
                      A                      A                      A
 Frequencies --   1049.7725              1113.6341              1156.9158
 Red. masses --      1.4143                 1.7939                 1.3223
 Frc consts  --      0.9183                 1.3108                 1.0428
 IR Inten    --      0.0523                42.2568                56.9071

                     25                     26                     27
                      A                      A                      A
 Frequencies --   1229.4503              1241.1729              1254.3297
 Red. masses --      2.7367                 2.6718                 2.3033
 Frc consts  --      2.4373                 2.4250                 2.1352
 IR Inten    --      3.3768                13.9277                28.0108

                     28                     29                     30
                      A                      A                      A
 Frequencies --   1390.5663              1400.9518              1411.3873
 Red. masses --      1.4776                 1.2037                 1.5836
 Frc consts  --      1.6834                 1.3919                 1.8586
 IR Inten    --     28.0943                 3.0299                21.7226

                     31                     32                     33
                      A                      A                      A
 Frequencies --   1438.9357              1479.5448              1484.3628
 Red. masses --      1.3498                 1.0487                 1.0461
 Frc consts  --      1.6466                 1.3526                 1.3580
 IR Inten    --     21.6073                 0.1208                 0.3260

                     34                     35                     36
                      A                      A                      A
 Frequencies --   1491.3377              1502.3902              1506.6762
 Red. masses --      1.0590                 1.0532                 1.0529
 Frc consts  --      1.3877                 1.4006                 1.4082
 IR Inten    --      3.1498                 3.2331                 5.3989

                     37                     38                     39
                      A                      A                      A
 Frequencies --   1521.6873              1625.1197              1710.7006
 Red. masses --      1.0678                 1.2567                 5.5698
 Frc consts  --      1.4568                 1.9555                 9.6037
 IR Inten    --     14.9177                64.1210               177.9140

                     40                     41                     42
                      A                      A                      A
 Frequencies --   3030.7393              3032.8397              3039.1554
 Red. masses --      1.0345                 1.0352                 1.0365
 Frc consts  --      5.5983                 5.6104                 5.6408
 IR Inten    --     26.7597                19.0552                12.4608

                     43                     44                     45
                      A                      A                      A
 Frequencies --   3096.4156              3100.7964              3103.1119
 Red. masses --      1.1007                 1.1014                 1.1022
 Frc consts  --      6.2180                 6.2395                 6.2530
 IR Inten    --     20.8751                 1.2892                 7.8665

                     46                     47                     48
                      A                      A                      A
 Frequencies --   3107.3366              3108.3917              3121.3304
 Red. masses --      1.1014                 1.1013                 1.1000
 Frc consts  --      6.2655                 6.2694                 6.3145
 IR Inten    --     40.2371                49.3697                27.8830

                     49                     50                     51
                      A                      A                      A
 Frequencies --   3534.8017              3575.9642              3694.1943
 Red. masses --      1.0738                 1.0469                 1.0983
 Frc consts  --      7.9050                 7.8877                 8.8306
 IR Inten    --      0.8503                15.2402                17.9406

 - Thermochemistry -
 -------------------
 Temperature   298.150 Kelvin.  Pressure   1.00000 Atm.
 Atom     1 has atomic number  6 and mass  12.00000

 Molecular mass:   100.10005 amu.
 Principal axes and moments of inertia in atomic units:
                           1         2         3
     Eigenvalues --   558.32049 781.20821 936.94877
           X            0.99867  -0.05115  -0.00682
           Y            0.05126   0.99854   0.01697
           Z            0.00594  -0.01729   0.99983
 This molecule is an asymmetric top.
 Rotational symmetry number  1.
 Warning -- assumption of classical behavior for rotation
           may cause significant error
 Rotational temperatures (Kelvin)      0.15513     0.11087     0.09244
 Rotational constants (GHZ):           3.23245     2.31019     1.92619
 Zero-point vibrational energy     448897.2 (Joules/Mol)
                                  107.28900 (Kcal/Mol)
 Warning -- explicit consideration of  13 degrees of freedom as
           vibrations may cause significant error
 Vibrational temperatures:     80.23   281.27   364.25   389.31   409.10
          (Kelvin)            444.01   507.66   538.57   551.52   565.58
                              713.76   774.85   818.19  1003.88  1065.69
                             1213.07  1231.24  1346.47  1360.90  1384.59
                             1495.64  1510.39  1602.27  1664.54  1768.90
                             1785.77  1804.70  2000.71  2015.65  2030.67
                             2070.30  2128.73  2135.66  2145.70  2161.60
                             2167.77  2189.37  2338.18  2461.31  4360.55
                             4363.57  4372.66  4455.05  4461.35  4464.68
                             4470.76  4472.28  4490.89  5085.78  5145.01
                             5315.12

 Zero-point correction=                           0.170976 (Hartree/Particle)
 Thermal correction to Energy=                    0.179615
 Thermal correction to Enthalpy=                  0.180559
 Thermal correction to Gibbs Free Energy=         0.138779
 Sum of electronic and zero-point Energies=           -307.118245
 Sum of electronic and thermal Energies=              -307.109606
 Sum of electronic and thermal Enthalpies=            -307.108662
 Sum of electronic and thermal Free Energies=         -307.150442

                     E (Thermal)             CV                S
                      KCal/Mol        Cal/Mol-Kelvin    Cal/Mol-Kelvin
 Total                  112.710             32.932             87.933
 Electronic               0.000              0.000              0.000
 Translational            0.889              2.981             39.721
 Rotational               0.889              2.981             27.504
 Vibrational            110.932             26.970             20.707
 Vibration     1          0.596              1.975              4.602
 Vibration     2          0.636              1.846              2.175
 Vibration     3          0.664              1.757              1.708
 Vibration     4          0.674              1.727              1.592
 Vibration     5          0.683              1.703              1.507
 Vibration     6          0.698              1.657              1.370
 Vibration     7          0.729              1.569              1.153
 Vibration     8          0.745              1.525              1.062
 Vibration     9          0.753              1.506              1.026
 Vibration    10          0.760              1.485              0.988
 Vibration    11          0.852              1.259              0.668
 Vibration    12          0.894              1.165              0.568
 Vibration    13          0.925              1.099              0.507

 Normal termination of Gaussian 09 at Tue Aug 30 11:22:18 2022.

 -----------------------------------------------------------------
 #P Geom=AllCheck Guess=TCheck SCRF=Check CCSD(T,E4T,FrzG4)/GTBas1
 -----------------------------------------------------------------

 Structure from the checkpoint file:  "G4.Frag_632.chk"
 --------
 Frag_632
 --------
 Charge =  0 Multiplicity = 1

 SCF Done:  E(RHF) =  -305.216131901     A.U. after   13 cycles
 E2 =    -0.9840630383D+00 EUMP2 =    -0.30620019493883D+03
 CCSD(T)
 CCSD(T)= -0.30630192948D+03
 995\MP4SDQ=-306.2671117\CCSD=-306.2679014\CCSD(T)=-306.3019295\RMSD=3.
 Normal termination of Gaussian 09 at Tue Aug 30 11:27:18 2022.

 ---------------------------------------------------------
 #P Geom=AllCheck Guess=TCheck SCRF=Check MP4=FrzG4/GTBas2
 ---------------------------------------------------------

 Structure from the checkpoint file:  "G4.Frag_632.chk"
 --------
 Frag_632
 --------
 Charge =  0 Multiplicity = 1

 SCF Done:  E(RHF) =  -305.224602583     A.U. after   13 cycles
 E2 =    -0.9977551709D+00 EUMP2 =    -0.30622235775403D+03
 Normal termination of Gaussian 09 at Tue Aug 30 11:28:52 2022.

 ---------------------------------------------------------
 #P Geom=AllCheck Guess=TCheck SCRF=Check MP4=FrzG4/GTBas3
 ---------------------------------------------------------

 Structure from the checkpoint file:  "G4.Frag_632.chk"
 --------
 Frag_632
 --------
 Charge =  0 Multiplicity = 1

 SCF Done:  E(RHF) =  -305.258936704     A.U. after   11 cycles
 E2 =    -0.1211113172D+01 EUMP2 =    -0.30647004987602D+03
 Normal termination of Gaussian 09 at Tue Aug 30 11:41:16 2022.

 -----------------------------------------------------------
 #P Geom=AllCheck Guess=TCheck SCRF=Check MP2=Full/GTLargeXP
 -----------------------------------------------------------

 Structure from the checkpoint file:  "G4.Frag_632.chk"
 --------
 Frag_632
 --------
 Charge =  0 Multiplicity = 1

 SCF Done:  E(RHF) =  -305.330127404     A.U. after   12 cycles
 E2 =    -0.1590077766D+01 EUMP2 =    -0.30692020516910D+03
 Normal termination of Gaussian 09 at Tue Aug 30 11:45:52 2022.
 SCF Done:  E(RHF) =  -305.353759019     A.U. after    8 cycles
 Normal termination of Gaussian 09 at Tue Aug 30 11:50:29 2022.

                         Standard orientation:
 ---------------------------------------------------------------------
 Center     Atomic      Atomic             Coordinates (Angstroms)
 Number     Number       Type             X           Y           Z
 ---------------------------------------------------------------------
      1          6           0       -1.307616    1.321237   -0.002421
      2          6           0       -0.563555   -0.023428    0.003599
      3          6           0       -0.965670   -0.813942    1.267956
      4          6           0       -0.974382   -0.814818   -1.259675
      5          6           0        0.963920    0.196838   -0.001089
      6          7           0        1.587740    1.312139   -0.018207
      7          7           0        1.714930   -0.965741    0.073533
      8          1           0       -1.070837    1.911968   -0.893104
      9          1           0       -1.066278    1.918834    0.882197
     10          1           0       -2.388247    1.147607    0.001793
     11          1           0       -0.472397   -1.787958    1.312109
     12          1           0       -2.048538   -0.978317    1.283273
     13          1           0       -0.692324   -0.264499    2.174122
     14          1           0       -2.063408   -0.922225   -1.297334
     15          1           0       -0.554212   -1.825811   -1.277767
     16          1           0       -0.653410   -0.300076   -2.170802
     17          1           0        0.942750    2.096406    0.006501
     18          1           0        2.696341   -0.817306   -0.112851
     19          1           0        1.335697   -1.798746   -0.345637
 ---------------------------------------------------------------------

 SCF Done:  E(RHF) =  -305.358738320     A.U. after    8 cycles

 The electronic state is 1-A.
 Alpha  occ. eigenvalues --  -15.55909 -15.51277 -11.30585 -11.25648 -11.23009
 Alpha  occ. eigenvalues --  -11.22289 -11.22270  -1.25455  -1.13146  -1.09546
 Alpha  occ. eigenvalues --   -0.94477  -0.94032  -0.84234  -0.75157  -0.70123
 Alpha  occ. eigenvalues --   -0.63717  -0.61907  -0.61177  -0.59510  -0.56288
 Alpha  occ. eigenvalues --   -0.55026  -0.52686  -0.51641  -0.50766  -0.47720
 Alpha  occ. eigenvalues --   -0.46839  -0.40317  -0.36294
 Alpha virt. eigenvalues --    0.03026   0.03860   0.04138   0.04614   0.06228
 Alpha virt. eigenvalues --    0.06607   0.06786   0.07203   0.07501   0.09300
 Alpha virt. eigenvalues --    0.09459   0.09659   0.09970   0.11710   0.12407

 Mulliken charges:
               1
     1  C   -0.638621
     2  C    0.340686
     3  C   -0.561161
     4  C   -0.582077
     5  C    0.406285
     6  N   -0.752984
     7  N   -0.722032
     8  H    0.180269
     9  H    0.181330
    10  H    0.183541
    11  H    0.170801
    12  H    0.167152
    13  H    0.179807
    14  H    0.175242
    15  H    0.153346
    16  H    0.184622
    17  H    0.277138
    18  H    0.342268
    19  H    0.314389
 Sum of Mulliken charges =  -0.00000

 Dipole moment (field-independent basis, Debye):
    X=             -2.3927    Y=             -1.8907    Z=             -0.8068  Tot=              3.1545
 Quadrupole moment (field-independent basis, Debye-Ang):
   XX=            -48.8344   YY=            -44.2421   ZZ=            -46.9314
   XY=             -5.7760   XZ=             -1.4691   YZ=              1.6919

 Normal termination of Gaussian 09 at Tue Aug 30 12:05:38 2022.
