 Gaussian 09, Revision E.01,
 Gaussian 09:  ES64L-G09RevE.01 30-Nov-2015

 -----
 #P G4
 -----

 ---------
 Frag_1098
 ---------
 Symbolic Z-matrix:
 Charge =  0 Multiplicity = 1

 SCF Done:  E(RB3LYP) =  -301.141854420     A.U. after   13 cycles
 SCF Done:  E(RB3LYP) =  -301.149498210     A.U. after   11 cycles
 SCF Done:  E(RB3LYP) =  -301.150804609     A.U. after   11 cycles
 SCF Done:  E(RB3LYP) =  -301.151075378     A.U. after   10 cycles
 SCF Done:  E(RB3LYP) =  -301.151139837     A.U. after   11 cycles
 SCF Done:  E(RB3LYP) =  -301.151172525     A.U. after   10 cycles
 SCF Done:  E(RB3LYP) =  -301.151200064     A.U. after    9 cycles
 SCF Done:  E(RB3LYP) =  -301.151254977     A.U. after   10 cycles
 SCF Done:  E(RB3LYP) =  -301.151314492     A.U. after   10 cycles
 SCF Done:  E(RB3LYP) =  -301.152355093     A.U. after   12 cycles
 SCF Done:  E(RB3LYP) =  -301.154854849     A.U. after    9 cycles
 SCF Done:  E(RB3LYP) =  -301.154858397     A.U. after    8 cycles
 SCF Done:  E(RB3LYP) =  -301.154859740     A.U. after    7 cycles
 Optimization completed.
    -- Stationary point found.
 Normal termination of Gaussian 09 at Thu Aug 25 03:37:56 2022.

 ----------------------------------------------------------
 #P Geom=AllCheck Guess=TCheck SCRF=Check B3LYP/GTBas3 Freq
 ----------------------------------------------------------

 Structure from the checkpoint file:  "G4.Frag_1098.chk"
 ---------
 Frag_1098
 ---------
 Charge =  0 Multiplicity = 1

 SCF Done:  E(RB3LYP) =  -301.154859740     A.U. after    1 cycles

  Exact polarizability:  59.506  -0.449  53.451  -0.275  -0.000  51.496
 Approx polarizability:  77.764  -0.114  75.682  -0.096  -0.157  74.956

                      1                      2                      3
                      A                      A                      A
 Frequencies --    120.7262               221.9099               232.8517
 Red. masses --      2.6870                 1.0764                 1.1279
 Frc consts  --      0.0231                 0.0312                 0.0360
 IR Inten    --      2.9119                38.0278                 1.0462

                      4                      5                      6
                      A                      A                      A
 Frequencies --    255.4052               288.4202               295.4610
 Red. masses --      1.0952                 1.4551                 1.9972
 Frc consts  --      0.0421                 0.0713                 0.1027
 IR Inten    --      8.0466                 6.3005                14.1440

                      7                      8                      9
                      A                      A                      A
 Frequencies --    320.2909               378.6405               486.8139
 Red. masses --      1.9732                 2.3397                 2.5388
 Frc consts  --      0.1193                 0.1976                 0.3545
 IR Inten    --     10.9074                 0.4706                25.8908

                     10                     11                     12
                      A                      A                      A
 Frequencies --    552.3931               581.0181               741.6189
 Red. masses --      3.0873                 3.2695                 4.7964
 Frc consts  --      0.5550                 0.6503                 1.5543
 IR Inten    --      2.8418                 1.4994                25.3933

                     13                     14                     15
                      A                      A                      A
 Frequencies --    860.8707               942.8472               956.5807
 Red. masses --      3.5245                 3.1756                 2.3125
 Frc consts  --      1.5390                 1.6633                 1.2467
 IR Inten    --     76.7658                10.7153               100.1836

                     16                     17                     18
                      A                      A                      A
 Frequencies --   1037.7578              1105.1101              1127.4470
 Red. masses --      1.6015                 1.2398                 1.7294
 Frc consts  --      1.0162                 0.8921                 1.2952
 IR Inten    --      8.2124                 2.5463                24.1126

                     19                     20                     21
                      A                      A                      A
 Frequencies --   1190.8266              1202.4577              1247.3225
 Red. masses --      1.5381                 2.0959                 2.6074
 Frc consts  --      1.2851                 1.7855                 2.3901
 IR Inten    --     30.5580                41.1113                 6.1432

                     22                     23                     24
                      A                      A                      A
 Frequencies --   1270.7314              1294.3917              1363.1588
 Red. masses --      2.2130                 1.2096                 1.3547
 Frc consts  --      2.1054                 1.1941                 1.4831
 IR Inten    --      6.6320                10.7123                 5.3072

                     25                     26                     27
                      A                      A                      A
 Frequencies --   1424.3114              1453.6890              1472.8150
 Red. masses --      1.1634                 1.1760                 1.0528
 Frc consts  --      1.3906                 1.4642                 1.3456
 IR Inten    --      0.1679                 1.1966                 8.1106

                     28                     29                     30
                      A                      A                      A
 Frequencies --   1488.1537              1503.0502              1517.0105
 Red. masses --      1.0519                 1.0488                 1.0494
 Frc consts  --      1.3725                 1.3960                 1.4229
 IR Inten    --      7.3166                 1.7607                 6.8865

                     31                     32                     33
                      A                      A                      A
 Frequencies --   1662.2498              1674.3948              2981.4107
 Red. masses --      1.0797                 1.0766                 1.0493
 Frc consts  --      1.7576                 1.7784                 5.4955
 IR Inten    --     11.6857                15.8696                48.7810

                     34                     35                     36
                      A                      A                      A
 Frequencies --   2990.7626              3063.5404              3073.5664
 Red. masses --      1.0456                 1.0916                 1.0836
 Frc consts  --      5.5104                 6.0362                 6.0312
 IR Inten    --     46.9394                32.4796                29.9285

                     37                     38                     39
                      A                      A                      A
 Frequencies --   3103.0926              3126.3523              3352.0319
 Red. masses --      1.0983                 1.1009                 1.0573
 Frc consts  --      6.2312                 6.3401                 6.9995
 IR Inten    --     26.8902                21.0644                19.9992

                     40                     41                     42
                      A                      A                      A
 Frequencies --   3391.5895              3525.8531              3541.0617
 Red. masses --      1.0575                 1.0813                 1.0831
 Frc consts  --      7.1672                 7.9199                 8.0019
 IR Inten    --      7.6725                 1.1069                 2.0354

 - Thermochemistry -
 -------------------
 Temperature   298.150 Kelvin.  Pressure   1.00000 Atm.
 Atom     1 has atomic number  6 and mass  12.00000

 Molecular mass:    90.09055 amu.
 Principal axes and moments of inertia in atomic units:
                           1         2         3
     Eigenvalues --   371.49631 642.06482 677.65930
           X            0.99980  -0.01817  -0.00810
           Y            0.01918   0.98858   0.14946
           Z            0.00529  -0.14959   0.98873
 This molecule is an asymmetric top.
 Rotational symmetry number  1.
 Rotational temperatures (Kelvin)      0.23315     0.13490     0.12781
 Rotational constants (GHZ):           4.85803     2.81084     2.66320
 Zero-point vibrational energy     373354.4 (Joules/Mol)
                                   89.23385 (Kcal/Mol)
 Warning -- explicit consideration of  11 degrees of freedom as
           vibrations may cause significant error
 Vibrational temperatures:    173.70   319.28   335.02   367.47   414.97
          (Kelvin)            425.10   460.83   544.78   700.42   794.77
                              835.95  1067.02  1238.60  1356.55  1376.30
                             1493.10  1590.01  1622.14  1713.33  1730.07
                             1794.62  1828.30  1862.34  1961.28  2049.26
                             2091.53  2119.05  2141.12  2162.55  2182.64
                             2391.60  2409.08  4289.58  4303.03  4407.75
                             4422.17  4464.65  4498.12  4822.82  4879.73
                             5072.91  5094.79

 Zero-point correction=                           0.142203 (Hartree/Particle)
 Thermal correction to Energy=                    0.149874
 Thermal correction to Enthalpy=                  0.150818
 Thermal correction to Gibbs Free Energy=         0.111523
 Sum of electronic and zero-point Energies=           -301.012657
 Sum of electronic and thermal Energies=              -301.004986
 Sum of electronic and thermal Enthalpies=            -301.004041
 Sum of electronic and thermal Free Energies=         -301.043336

                     E (Thermal)             CV                S
                      KCal/Mol        Cal/Mol-Kelvin    Cal/Mol-Kelvin
 Total                   94.047             27.907             82.703
 Electronic               0.000              0.000              0.000
 Translational            0.889              2.981             39.407
 Rotational               0.889              2.981             26.583
 Vibrational             92.270             21.945             16.713
 Vibration     1          0.609              1.932              3.089
 Vibration     2          0.648              1.808              1.943
 Vibration     3          0.654              1.791              1.857
 Vibration     4          0.666              1.754              1.693
 Vibration     5          0.685              1.695              1.483
 Vibration     6          0.690              1.682              1.442
 Vibration     7          0.706              1.635              1.309
 Vibration     8          0.749              1.516              1.045
 Vibration     9          0.843              1.279              0.692
 Vibration    10          0.908              1.134              0.539
 Vibration    11          0.938              1.072              0.483

 Normal termination of Gaussian 09 at Thu Aug 25 03:41:05 2022.

 -----------------------------------------------------------------
 #P Geom=AllCheck Guess=TCheck SCRF=Check CCSD(T,E4T,FrzG4)/GTBas1
 -----------------------------------------------------------------

 Structure from the checkpoint file:  "G4.Frag_1098.chk"
 ---------
 Frag_1098
 ---------
 Charge =  0 Multiplicity = 1

 SCF Done:  E(RHF) =  -299.222307394     A.U. after   12 cycles
 E2 =    -0.9238651972D+00 EUMP2 =    -0.30014617259167D+03
 CCSD(T)
 CCSD(T)= -0.30023335034D+03
 DTQ=-300.2322006\MP4SDQ=-300.2033718\CCSD=-300.2046153\CCSD(T)=-300.23
 Normal termination of Gaussian 09 at Thu Aug 25 03:47:54 2022.

 ---------------------------------------------------------
 #P Geom=AllCheck Guess=TCheck SCRF=Check MP4=FrzG4/GTBas2
 ---------------------------------------------------------

 Structure from the checkpoint file:  "G4.Frag_1098.chk"
 ---------
 Frag_1098
 ---------
 Charge =  0 Multiplicity = 1

 SCF Done:  E(RHF) =  -299.231982285     A.U. after   12 cycles
 E2 =    -0.9388281727D+00 EUMP2 =    -0.30017081045772D+03
 Normal termination of Gaussian 09 at Thu Aug 25 03:57:37 2022.

 ---------------------------------------------------------
 #P Geom=AllCheck Guess=TCheck SCRF=Check MP4=FrzG4/GTBas3
 ---------------------------------------------------------

 Structure from the checkpoint file:  "G4.Frag_1098.chk"
 ---------
 Frag_1098
 ---------
 Charge =  0 Multiplicity = 1

 SCF Done:  E(RHF) =  -299.263947195     A.U. after   11 cycles
 E2 =    -0.1134599594D+01 EUMP2 =    -0.30039854678948D+03
 Normal termination of Gaussian 09 at Thu Aug 25 07:39:20 2022.

 -----------------------------------------------------------
 #P Geom=AllCheck Guess=TCheck SCRF=Check MP2=Full/GTLargeXP
 -----------------------------------------------------------

 Structure from the checkpoint file:  "G4.Frag_1098.chk"
 ---------
 Frag_1098
 ---------
 Charge =  0 Multiplicity = 1

 SCF Done:  E(RHF) =  -299.340721792     A.U. after   11 cycles
 E2 =    -0.1474246752D+01 EUMP2 =    -0.30081496854366D+03
 Normal termination of Gaussian 09 at Thu Aug 25 07:46:59 2022.
 SCF Done:  E(RHF) =  -299.363574377     A.U. after    9 cycles
 Normal termination of Gaussian 09 at Thu Aug 25 07:54:06 2022.

                         Standard orientation:
 ---------------------------------------------------------------------
 Center     Atomic      Atomic             Coordinates (Angstroms)
 Number     Number       Type             X           Y           Z
 ---------------------------------------------------------------------
      1          6           0        0.937492    1.241404    0.574641
      2          7           0        0.636049    0.200362   -0.406775
      3          6           0        1.657069   -0.838684   -0.425301
      4          7           0       -0.646651   -0.413342   -0.255259
      5          7           0       -1.690436    0.400066   -0.782169
      6          7           0       -0.915665   -0.756594    1.103728
      7          1           0        0.151018    2.004710    0.575583
      8          1           0        1.055357    0.854014    1.597906
      9          1           0        1.865431    1.738626    0.278690
     10          1           0        2.620058   -0.383581   -0.678233
     11          1           0        1.755771   -1.357085    0.541798
     12          1           0        1.398970   -1.572974   -1.191172
     13          1           0       -1.558902    0.397333   -1.790637
     14          1           0       -1.557537    1.374591   -0.487911
     15          1           0       -1.382664    0.022523    1.575318
     16          1           0       -1.597942   -1.507926    1.065945
 ---------------------------------------------------------------------

 SCF Done:  E(RHF) =  -299.368657591     A.U. after    8 cycles

 The electronic state is 1-A.
 Alpha  occ. eigenvalues --  -15.62921 -15.57268 -15.57221 -15.56937 -11.24554
 Alpha  occ. eigenvalues --  -11.23481  -1.35748  -1.18461  -1.14400  -0.96313
 Alpha  occ. eigenvalues --   -0.94169  -0.80823  -0.70604  -0.67900  -0.66645
 Alpha  occ. eigenvalues --   -0.63662  -0.60036  -0.58739  -0.54905  -0.53913
 Alpha  occ. eigenvalues --   -0.51358  -0.43768  -0.42204  -0.39391  -0.37048
 Alpha virt. eigenvalues --    0.03766   0.04411   0.05031   0.05202   0.07110
 Alpha virt. eigenvalues --    0.07308   0.07525   0.07706   0.08863   0.10734
 Alpha virt. eigenvalues --    0.11308   0.11652   0.12606   0.13141   0.14528

 Mulliken charges:
               1
     1  C   -0.511593
     2  N    0.062118
     3  C   -0.519310
     4  N    0.017344
     5  N   -0.626936
     6  N   -0.627739
     7  H    0.153195
     8  H    0.176249
     9  H    0.180466
    10  H    0.165840
    11  H    0.172903
    12  H    0.181930
    13  H    0.309499
    14  H    0.271820
    15  H    0.279702
    16  H    0.314513
 Sum of Mulliken charges =  -0.00000

 Dipole moment (field-independent basis, Debye):
    X=              0.1375    Y=              1.3714    Z=              0.4360  Tot=              1.4456
 Quadrupole moment (field-independent basis, Debye-Ang):
   XX=            -38.7611   YY=            -36.5049   ZZ=            -38.0335
   XY=             -0.4590   XZ=             -1.4597   YZ=              0.5797

 Normal termination of Gaussian 09 at Thu Aug 25 11:05:08 2022.
