 Gaussian 09, Revision E.01,
 Gaussian 09:  ES64L-G09RevE.01 30-Nov-2015

 -----
 #P G4
 -----

 --------
 Frag_571
 --------
 Symbolic Z-matrix:
 Charge =  0 Multiplicity = 1

 SCF Done:  E(RB3LYP) =  -363.071743234     A.U. after   14 cycles
 SCF Done:  E(RB3LYP) =  -363.085195965     A.U. after   12 cycles
 SCF Done:  E(RB3LYP) =  -363.087504071     A.U. after   12 cycles
 SCF Done:  E(RB3LYP) =  -363.089793486     A.U. after   14 cycles
 SCF Done:  E(RB3LYP) =  -363.091949165     A.U. after   12 cycles
 SCF Done:  E(RB3LYP) =  -363.092496956     A.U. after   12 cycles
 SCF Done:  E(RB3LYP) =  -363.092747777     A.U. after   11 cycles
 SCF Done:  E(RB3LYP) =  -363.092907786     A.U. after   11 cycles
 SCF Done:  E(RB3LYP) =  -363.093038525     A.U. after   11 cycles
 SCF Done:  E(RB3LYP) =  -363.093113706     A.U. after   12 cycles
 SCF Done:  E(RB3LYP) =  -363.093220827     A.U. after    7 cycles
 SCF Done:  E(RB3LYP) =  -363.093221906     A.U. after    7 cycles
 SCF Done:  E(RB3LYP) =  -363.093222421     A.U. after    7 cycles
 Optimization completed.
    -- Stationary point found.
 Normal termination of Gaussian 09 at Fri Aug 26 02:35:30 2022.

 ----------------------------------------------------------
 #P Geom=AllCheck Guess=TCheck SCRF=Check B3LYP/GTBas3 Freq
 ----------------------------------------------------------

 Structure from the checkpoint file:  "G4.Frag_571.chk"
 --------
 Frag_571
 --------
 Charge =  0 Multiplicity = 1

 SCF Done:  E(RB3LYP) =  -363.093222421     A.U. after    1 cycles

  Exact polarizability:  60.652   0.048  60.819  -0.000  -0.000  48.422
 Approx polarizability:  83.139  -1.377  97.688  -0.000  -0.002  65.408

                      1                      2                      3
                      A                      A                      A
 Frequencies --     48.1254               179.3214               201.6723
 Red. masses --      4.6701                 1.2017                 1.5231
 Frc consts  --      0.0064                 0.0228                 0.0365
 IR Inten    --      1.5782               114.0504                24.3332

                      4                      5                      6
                      A                      A                      A
 Frequencies --    240.3542               248.9378               277.3964
 Red. masses --      1.0453                 1.5686                 2.8672
 Frc consts  --      0.0356                 0.0573                 0.1300
 IR Inten    --      0.1340                34.4697                 5.5456

                      7                      8                      9
                      A                      A                      A
 Frequencies --    341.9879               397.9097               417.9507
 Red. masses --      2.5047                 4.7149                 3.5218
 Frc consts  --      0.1726                 0.4398                 0.3625
 IR Inten    --      4.6047                17.0883                22.3443

                     10                     11                     12
                      A                      A                      A
 Frequencies --    484.6481               504.5770               574.5018
 Red. masses --      2.7974                 1.0678                 1.1082
 Frc consts  --      0.3871                 0.1602                 0.2155
 IR Inten    --      1.0780                44.6497                 2.3651

                     13                     14                     15
                      A                      A                      A
 Frequencies --    592.7548               710.5596               770.8060
 Red. masses --      4.0434                 3.1544                 4.6484
 Frc consts  --      0.8370                 0.9383                 1.6272
 IR Inten    --      6.5454                10.2764                 9.6333

                     16                     17                     18
                      A                      A                      A
 Frequencies --    878.2517               924.2922               993.1547
 Red. masses --      2.2945                 1.5206                 2.0832
 Frc consts  --      1.0428                 0.7654                 1.2106
 IR Inten    --      2.3341                 0.1606                36.1558

                     19                     20                     21
                      A                      A                      A
 Frequencies --   1014.5750              1092.8844              1176.4357
 Red. masses --      1.3340                 1.8337                 1.8379
 Frc consts  --      0.8090                 1.2904                 1.4987
 IR Inten    --      0.1563                 0.3128                14.6347

                     22                     23                     24
                      A                      A                      A
 Frequencies --   1189.8899              1228.5475              1348.6476
 Red. masses --      3.6478                 3.2637                 2.4355
 Frc consts  --      3.0430                 2.9023                 2.6099
 IR Inten    --     17.5642               108.9310               164.7724

                     25                     26                     27
                      A                      A                      A
 Frequencies --   1393.7845              1419.1563              1439.1513
 Red. masses --      1.2388                 1.3007                 1.3599
 Frc consts  --      1.4179                 1.5434                 1.6594
 IR Inten    --      4.5924                19.5386                41.9897

                     28                     29                     30
                      A                      A                      A
 Frequencies --   1468.1421              1485.0721              1500.2296
 Red. masses --      1.0474                 1.0481                 1.1342
 Frc consts  --      1.3302                 1.3620                 1.5041
 IR Inten    --      0.3622                 1.2188                11.8879

                     31                     32                     33
                      A                      A                      A
 Frequencies --   1504.7805              1619.7805              1776.0924
 Red. masses --      1.1026                 1.2585                 9.0045
 Frc consts  --      1.4711                 1.9454                16.7355
 IR Inten    --      1.4773                96.2395               254.0984

                     34                     35                     36
                      A                      A                      A
 Frequencies --   3034.8376              3040.5010              3106.1329
 Red. masses --      1.0355                 1.0354                 1.0998
 Frc consts  --      5.6194                 5.6394                 6.2517
 IR Inten    --     14.1220                18.8298                 3.6402

                     37                     38                     39
                      A                      A                      A
 Frequencies --   3112.7889              3122.6230              3124.7270
 Red. masses --      1.1004                 1.1031                 1.1025
 Frc consts  --      6.2818                 6.3371                 6.3424
 IR Inten    --     47.1005                10.8140                23.2852

                     40                     41                     42
                      A                      A                      A
 Frequencies --   3610.8984              3635.2066              3747.4659
 Red. masses --      1.0452                 1.0644                 1.1038
 Frc consts  --      8.0296                 8.2873                 9.1330
 IR Inten    --     41.6615               118.8150                38.9118

 - Thermochemistry -
 -------------------
 Temperature   298.150 Kelvin.  Pressure   1.00000 Atm.
 Atom     1 has atomic number  6 and mass  12.00000

 Molecular mass:   103.06333 amu.
 Principal axes and moments of inertia in atomic units:
                           1         2         3
     Eigenvalues --   533.78152 756.07730 896.46030
           X            0.99998  -0.00636   0.00001
           Y            0.00636   0.99998   0.00000
           Z           -0.00001  -0.00000   1.00000
 This molecule is an asymmetric top.
 Rotational symmetry number  1.
 Warning -- assumption of classical behavior for rotation
           may cause significant error
 Rotational temperatures (Kelvin)      0.16226     0.11456     0.09662
 Rotational constants (GHZ):           3.38105     2.38698     2.01319
 Zero-point vibrational energy     352776.1 (Joules/Mol)
                                   84.31550 (Kcal/Mol)
 Warning -- explicit consideration of  13 degrees of freedom as
           vibrations may cause significant error
 Vibrational temperatures:     69.24   258.00   290.16   345.82   358.17
          (Kelvin)            399.11   492.04   572.50   601.34   697.30
                              725.97   826.58   852.84  1022.34  1109.02
                             1263.61  1329.85  1428.93  1459.75  1572.41
                             1692.63  1711.98  1767.60  1940.40  2005.34
                             2041.85  2070.62  2112.33  2136.68  2158.49
                             2165.04  2330.50  2555.40  4366.45  4374.60
                             4469.03  4478.60  4492.75  4495.78  5195.27
                             5230.25  5391.76

 Zero-point correction=                           0.134365 (Hartree/Particle)
 Thermal correction to Energy=                    0.142903
 Thermal correction to Enthalpy=                  0.143847
 Thermal correction to Gibbs Free Energy=         0.101887
 Sum of electronic and zero-point Energies=           -362.958857
 Sum of electronic and thermal Energies=              -362.950320
 Sum of electronic and thermal Enthalpies=            -362.949376
 Sum of electronic and thermal Free Energies=         -362.991335

                     E (Thermal)             CV                S
                      KCal/Mol        Cal/Mol-Kelvin    Cal/Mol-Kelvin
 Total                   89.673             31.032             88.312
 Electronic               0.000              0.000              0.000
 Translational            0.889              2.981             39.808
 Rotational               0.889              2.981             27.383
 Vibrational             87.895             25.070             21.121
 Vibration     1          0.595              1.978              4.893
 Vibration     2          0.629              1.868              2.335
 Vibration     3          0.639              1.838              2.118
 Vibration     4          0.657              1.779              1.800
 Vibration     5          0.662              1.765              1.738
 Vibration     6          0.678              1.715              1.550
 Vibration     7          0.721              1.592              1.203
 Vibration     8          0.764              1.475              0.970
 Vibration     9          0.781              1.431              0.899
 Vibration    10          0.841              1.284              0.698
 Vibration    11          0.860              1.240              0.647
 Vibration    12          0.931              1.086              0.496
 Vibration    13          0.950              1.047              0.462

 Optimization completed.
    -- Stationary point found.
 Normal termination of Gaussian 09 at Fri Aug 26 02:36:19 2022.

 -----------------------------------------------------------------
 #P Geom=AllCheck Guess=TCheck SCRF=Check CCSD(T,E4T,FrzG4)/GTBas1
 -----------------------------------------------------------------

 Structure from the checkpoint file:  "G4.Frag_571.chk"
 --------
 Frag_571
 --------
 Charge =  0 Multiplicity = 1

 SCF Done:  E(RHF) =  -360.899384737     A.U. after   12 cycles
 E2 =    -0.1039907278D+01 EUMP2 =    -0.36193929201517D+03
 CCSD(T)
 CCSD(T)= -0.36202216497D+03
 =-362.0254934\MP4SDQ=-361.9905353\CCSD=-361.9891423\CCSD(T)=-362.02216
 Normal termination of Gaussian 09 at Fri Aug 26 02:40:36 2022.

 ---------------------------------------------------------
 #P Geom=AllCheck Guess=TCheck SCRF=Check MP4=FrzG4/GTBas2
 ---------------------------------------------------------

 Structure from the checkpoint file:  "G4.Frag_571.chk"
 --------
 Frag_571
 --------
 Charge =  0 Multiplicity = 1

 SCF Done:  E(RHF) =  -360.910679898     A.U. after   12 cycles
 E2 =    -0.1056407693D+01 EUMP2 =    -0.36196708759093D+03
 Normal termination of Gaussian 09 at Fri Aug 26 02:41:55 2022.

 ---------------------------------------------------------
 #P Geom=AllCheck Guess=TCheck SCRF=Check MP4=FrzG4/GTBas3
 ---------------------------------------------------------

 Structure from the checkpoint file:  "G4.Frag_571.chk"
 --------
 Frag_571
 --------
 Charge =  0 Multiplicity = 1

 SCF Done:  E(RHF) =  -360.946542296     A.U. after   12 cycles
 E2 =    -0.1280876297D+01 EUMP2 =    -0.36222741859324D+03
 Normal termination of Gaussian 09 at Fri Aug 26 02:51:48 2022.

 -----------------------------------------------------------
 #P Geom=AllCheck Guess=TCheck SCRF=Check MP2=Full/GTLargeXP
 -----------------------------------------------------------

 Structure from the checkpoint file:  "G4.Frag_571.chk"
 --------
 Frag_571
 --------
 Charge =  0 Multiplicity = 1

 SCF Done:  E(RHF) =  -361.041813252     A.U. after   13 cycles
 E2 =    -0.1676693402D+01 EUMP2 =    -0.36271850665376D+03
 Normal termination of Gaussian 09 at Fri Aug 26 02:55:40 2022.
 SCF Done:  E(RHF) =  -361.070281952     A.U. after    8 cycles
 Normal termination of Gaussian 09 at Fri Aug 26 02:58:45 2022.

                         Standard orientation:
 ---------------------------------------------------------------------
 Center     Atomic      Atomic             Coordinates (Angstroms)
 Number     Number       Type             X           Y           Z
 ---------------------------------------------------------------------
      1          6           0        1.104486   -0.659297   -1.271539
      2          6           0        0.595035    0.042937    0.000027
      3          6           0        1.105090   -0.658716    1.271525
      4          8           0        1.060040    1.373707   -0.000378
      5          6           0       -0.951697    0.107227    0.000194
      6          7           0       -1.626499   -1.067574    0.000114
      7          8           0       -1.517416    1.189874    0.000020
      8          1           0        0.819915   -1.715837   -1.312169
      9          1           0        2.196120   -0.598918   -1.294445
     10          1           0        0.717169   -0.158578   -2.162976
     11          1           0        2.196828   -0.599776    1.293352
     12          1           0        0.819224   -1.714856    1.313559
     13          1           0        0.719298   -0.156622    2.162849
     14          1           0        0.252724    1.917310   -0.000419
     15          1           0       -1.161304   -1.957030    0.000624
     16          1           0       -2.632959   -1.044226    0.000452
 ---------------------------------------------------------------------

 SCF Done:  E(RHF) =  -361.076406581     A.U. after    8 cycles

 The electronic state is 1-A.
 Alpha  occ. eigenvalues --  -20.54316 -20.53491 -15.59813 -11.36202 -11.30539
 Alpha  occ. eigenvalues --  -11.22920 -11.22919  -1.40890  -1.35211  -1.22923
 Alpha  occ. eigenvalues --   -1.05836  -0.95205  -0.87761  -0.78343  -0.75756
 Alpha  occ. eigenvalues --   -0.70203  -0.64877  -0.63033  -0.61447  -0.58041
 Alpha  occ. eigenvalues --   -0.57361  -0.54220  -0.53824  -0.51865  -0.51683
 Alpha  occ. eigenvalues --   -0.44107  -0.43490  -0.43049
 Alpha virt. eigenvalues --    0.02573   0.04065   0.04128   0.05305   0.06642
 Alpha virt. eigenvalues --    0.06967   0.07034   0.07234   0.07553   0.09762
 Alpha virt. eigenvalues --    0.10025   0.10174   0.11116   0.11369   0.12745

 Mulliken charges:
               1
     1  C   -0.537791
     2  C    0.385128
     3  C   -0.537706
     4  O   -0.643940
     5  C    0.545128
     6  N   -0.729105
     7  O   -0.654809
     8  H    0.153823
     9  H    0.186536
    10  H    0.185413
    11  H    0.186470
    12  H    0.153793
    13  H    0.185433
    14  H    0.414985
    15  H    0.342405
    16  H    0.364237
 Sum of Mulliken charges =  -0.00000

 Dipole moment (field-independent basis, Debye):
    X=             -0.5186    Y=             -4.5733    Z=              0.0020  Tot=              4.6026
 Quadrupole moment (field-independent basis, Debye-Ang):
   XX=            -43.9249   YY=            -42.8380   ZZ=            -43.3463
   XY=              3.2666   XZ=             -0.0016   YZ=             -0.0024

 Normal termination of Gaussian 09 at Fri Aug 26 03:10:26 2022.
