 Gaussian 09, Revision E.01,
 Gaussian 09:  ES64L-G09RevE.01 30-Nov-2015

 -----
 #P G4
 -----

 --------
 Frag_916
 --------
 Symbolic Z-matrix:
 Charge =  0 Multiplicity = 1

 SCF Done:  E(RB3LYP) =  -269.132021354     A.U. after   12 cycles
 SCF Done:  E(RB3LYP) =  -269.138817839     A.U. after   11 cycles
 SCF Done:  E(RB3LYP) =  -269.139580669     A.U. after   10 cycles
 SCF Done:  E(RB3LYP) =  -269.139968050     A.U. after   10 cycles
 SCF Done:  E(RB3LYP) =  -269.140450010     A.U. after   11 cycles
 SCF Done:  E(RB3LYP) =  -269.141122453     A.U. after   13 cycles
 SCF Done:  E(RB3LYP) =  -269.142167180     A.U. after   10 cycles
 SCF Done:  E(RB3LYP) =  -269.143457692     A.U. after   10 cycles
 SCF Done:  E(RB3LYP) =  -269.143614270     A.U. after   10 cycles
 SCF Done:  E(RB3LYP) =  -269.143640195     A.U. after    9 cycles
 SCF Done:  E(RB3LYP) =  -269.143647898     A.U. after    9 cycles
 SCF Done:  E(RB3LYP) =  -269.143646864     A.U. after    7 cycles
 SCF Done:  E(RB3LYP) =  -269.143647472     A.U. after    6 cycles
 Optimization completed.
    -- Stationary point found.
 Normal termination of Gaussian 09 at Fri Aug 26 13:39:01 2022.

 ----------------------------------------------------------
 #P Geom=AllCheck Guess=TCheck SCRF=Check B3LYP/GTBas3 Freq
 ----------------------------------------------------------

 Structure from the checkpoint file:  "G4.Frag_916.chk"
 --------
 Frag_916
 --------
 Charge =  0 Multiplicity = 1

 SCF Done:  E(RB3LYP) =  -269.143647472     A.U. after    1 cycles

  Exact polarizability:  66.078   0.064  58.036  -0.407   0.101  56.665
 Approx polarizability:  87.433  -0.315  80.739   0.022   0.512  80.047

                      1                      2                      3
                      A                      A                      A
 Frequencies --    141.7499               202.5635               245.3090
 Red. masses --      2.3567                 1.1055                 1.1057
 Frc consts  --      0.0279                 0.0267                 0.0392
 IR Inten    --      3.5100                 1.1301                 1.5829

                      4                      5                      6
                      A                      A                      A
 Frequencies --    256.3010               265.6988               303.0334
 Red. masses --      1.0533                 2.1713                 1.1488
 Frc consts  --      0.0408                 0.0903                 0.0622
 IR Inten    --     11.2429                 1.3964                24.4422

                      7                      8                      9
                      A                      A                      A
 Frequencies --    338.8210               354.2198               407.4574
 Red. masses --      2.0468                 2.4234                 2.2199
 Frc consts  --      0.1384                 0.1792                 0.2171
 IR Inten    --      4.6491                 2.2633                 0.2950

                     10                     11                     12
                      A                      A                      A
 Frequencies --    453.8073               537.7927               730.0843
 Red. masses --      2.2168                 3.0759                 3.4475
 Frc consts  --      0.2690                 0.5241                 1.0827
 IR Inten    --      5.0455                 7.9625                14.3907

                     13                     14                     15
                      A                      A                      A
 Frequencies --    780.6192               883.9772               913.4804
 Red. masses --      1.7929                 1.8285                 1.7130
 Frc consts  --      0.6437                 0.8418                 0.8422
 IR Inten    --     24.1780                42.7943                 0.4297

                     16                     17                     18
                      A                      A                      A
 Frequencies --    929.3793               954.4486               977.9998
 Red. masses --      1.7257                 1.2101                 1.4145
 Frc consts  --      0.8782                 0.6495                 0.7972
 IR Inten    --      2.9518                 0.1871                45.5868

                     19                     20                     21
                      A                      A                      A
 Frequencies --   1041.5135              1068.0916              1143.2739
 Red. masses --      1.4146                 1.4384                 2.2463
 Frc consts  --      0.9041                 0.9668                 1.7299
 IR Inten    --      3.0486                15.0606                10.8543

                     22                     23                     24
                      A                      A                      A
 Frequencies --   1235.7535              1257.7757              1283.5800
 Red. masses --      2.3366                 2.6848                 2.7911
 Frc consts  --      2.1023                 2.5025                 2.7094
 IR Inten    --     18.2260                20.2908                 6.2336

                     25                     26                     27
                      A                      A                      A
 Frequencies --   1313.7234              1384.9287              1391.1384
 Red. masses --      1.2605                 1.2592                 1.2599
 Frc consts  --      1.2818                 1.4230                 1.4365
 IR Inten    --      7.2452                 9.6767                 7.6656

                     28                     29                     30
                      A                      A                      A
 Frequencies --   1417.5633              1471.4358              1482.4508
 Red. masses --      1.2374                 1.0525                 1.0722
 Frc consts  --      1.4650                 1.3426                 1.3883
 IR Inten    --      6.6836                 0.6632                 2.7616

                     31                     32                     33
                      A                      A                      A
 Frequencies --   1487.7323              1489.2284              1497.3690
 Red. masses --      1.0589                 1.0520                 1.0601
 Frc consts  --      1.3808                 1.3747                 1.4005
 IR Inten    --      0.3720                 0.0940                 3.3057

                     34                     35                     36
                      A                      A                      A
 Frequencies --   1519.1205              1520.6490              1673.3509
 Red. masses --      1.1346                 1.0607                 1.0824
 Frc consts  --      1.5428                 1.4452                 1.7857
 IR Inten    --      0.7804                 6.4285                 9.0401

                     37                     38                     39
                      A                      A                      A
 Frequencies --   3020.4884              3026.4317              3041.1535
 Red. masses --      1.0381                 1.0382                 1.0365
 Frc consts  --      5.5801                 5.6028                 5.6480
 IR Inten    --     19.7315                36.4806                13.4618

                     40                     41                     42
                      A                      A                      A
 Frequencies --   3086.6257              3093.4697              3107.7297
 Red. masses --      1.0981                 1.0961                 1.1016
 Frc consts  --      6.1637                 6.1802                 6.2682
 IR Inten    --      8.7813                50.6818                12.6203

                     43                     44                     45
                      A                      A                      A
 Frequencies --   3111.3630              3118.0639              3129.9786
 Red. masses --      1.1008                 1.1017                 1.1002
 Frc consts  --      6.2787                 6.3111                 6.3506
 IR Inten    --     15.8331                42.4026                19.3960

                     46                     47                     48
                      A                      A                      A
 Frequencies --   3425.3277              3446.1583              3552.2316
 Red. masses --      1.0695                 1.0567                 1.0900
 Frc consts  --      7.3932                 7.3941                 8.1034
 IR Inten    --     14.4636                 5.2236                 0.4331

 - Thermochemistry -
 -------------------
 Temperature   298.150 Kelvin.  Pressure   1.00000 Atm.
 Atom     1 has atomic number  6 and mass  12.00000

 Molecular mass:    88.10005 amu.
 Principal axes and moments of inertia in atomic units:
                           1         2         3
     Eigenvalues --   411.16971 678.05167 679.14180
           X            0.99985  -0.01676   0.00341
           Y           -0.01219  -0.55868   0.82929
           Z            0.01199   0.82921   0.55880
 This molecule is an asymmetric top.
 Rotational symmetry number  1.
 Rotational temperatures (Kelvin)      0.21065     0.12774     0.12753
 Rotational constants (GHZ):           4.38929     2.66166     2.65738
 Zero-point vibrational energy     433732.7 (Joules/Mol)
                                  103.66460 (Kcal/Mol)
 Warning -- explicit consideration of  11 degrees of freedom as
           vibrations may cause significant error
 Vibrational temperatures:    203.95   291.44   352.94   368.76   382.28
          (Kelvin)            436.00   487.49   509.64   586.24   652.93
                              773.76  1050.43  1123.14  1271.84  1314.29
                             1337.17  1373.24  1407.12  1498.50  1536.74
                             1644.91  1777.97  1809.66  1846.78  1890.15
                             1992.60  2001.54  2039.55  2117.07  2132.91
                             2140.51  2142.66  2154.38  2185.67  2187.87
                             2407.58  4345.80  4354.35  4375.54  4440.96
                             4450.81  4471.32  4476.55  4486.19  4503.34
                             4928.28  4958.25  5110.86

 Zero-point correction=                           0.165200 (Hartree/Particle)
 Thermal correction to Energy=                    0.173207
 Thermal correction to Enthalpy=                  0.174152
 Thermal correction to Gibbs Free Energy=         0.134389
 Sum of electronic and zero-point Energies=           -268.978447
 Sum of electronic and thermal Energies=              -268.970440
 Sum of electronic and thermal Enthalpies=            -268.969496
 Sum of electronic and thermal Free Energies=         -269.009258

                     E (Thermal)             CV                S
                      KCal/Mol        Cal/Mol-Kelvin    Cal/Mol-Kelvin
 Total                  108.689             29.960             83.686
 Electronic               0.000              0.000              0.000
 Translational            0.889              2.981             39.340
 Rotational               0.889              2.981             26.740
 Vibrational            106.912             23.998             17.606
 Vibration     1          0.615              1.912              2.780
 Vibration     2          0.639              1.836              2.110
 Vibration     3          0.660              1.771              1.764
 Vibration     4          0.666              1.752              1.687
 Vibration     5          0.672              1.736              1.624
 Vibration     6          0.694              1.668              1.400
 Vibration     7          0.719              1.598              1.218
 Vibration     8          0.730              1.567              1.147
 Vibration     9          0.772              1.454              0.936
 Vibration    10          0.812              1.352              0.784
 Vibration    11          0.893              1.166              0.570

 Optimization completed.
    -- Stationary point found.
 Normal termination of Gaussian 09 at Fri Aug 26 13:39:45 2022.

 -----------------------------------------------------------------
 #P Geom=AllCheck Guess=TCheck SCRF=Check CCSD(T,E4T,FrzG4)/GTBas1
 -----------------------------------------------------------------

 Structure from the checkpoint file:  "G4.Frag_916.chk"
 --------
 Frag_916
 --------
 Charge =  0 Multiplicity = 1

 SCF Done:  E(RHF) =  -267.308526924     A.U. after   11 cycles
 E2 =    -0.8607857851D+00 EUMP2 =    -0.26816931270863D+03
 CCSD(T)
 CCSD(T)= -0.26826360189D+03
 Normal termination of Gaussian 09 at Fri Aug 26 13:42:34 2022.

 ---------------------------------------------------------
 #P Geom=AllCheck Guess=TCheck SCRF=Check MP4=FrzG4/GTBas2
 ---------------------------------------------------------

 Structure from the checkpoint file:  "G4.Frag_916.chk"
 --------
 Frag_916
 --------
 Charge =  0 Multiplicity = 1

 SCF Done:  E(RHF) =  -267.315767761     A.U. after   12 cycles
 E2 =    -0.8735751344D+00 EUMP2 =    -0.26818934289518D+03
 Normal termination of Gaussian 09 at Fri Aug 26 13:43:28 2022.

 ---------------------------------------------------------
 #P Geom=AllCheck Guess=TCheck SCRF=Check MP4=FrzG4/GTBas3
 ---------------------------------------------------------

 Structure from the checkpoint file:  "G4.Frag_916.chk"
 --------
 Frag_916
 --------
 Charge =  0 Multiplicity = 1

 SCF Done:  E(RHF) =  -267.347096258     A.U. after   11 cycles
 E2 =    -0.1070138265D+01 EUMP2 =    -0.26841723452267D+03
 Normal termination of Gaussian 09 at Fri Aug 26 13:49:12 2022.

 -----------------------------------------------------------
 #P Geom=AllCheck Guess=TCheck SCRF=Check MP2=Full/GTLargeXP
 -----------------------------------------------------------

 Structure from the checkpoint file:  "G4.Frag_916.chk"
 --------
 Frag_916
 --------
 Charge =  0 Multiplicity = 1

 SCF Done:  E(RHF) =  -267.409616666     A.U. after   11 cycles
 E2 =    -0.1400183490D+01 EUMP2 =    -0.26880980015582D+03
 Normal termination of Gaussian 09 at Fri Aug 26 13:51:56 2022.
 SCF Done:  E(RHF) =  -267.430635062     A.U. after    8 cycles
 Normal termination of Gaussian 09 at Fri Aug 26 13:54:49 2022.

                         Standard orientation:
 ---------------------------------------------------------------------
 Center     Atomic      Atomic             Coordinates (Angstroms)
 Number     Number       Type             X           Y           Z
 ---------------------------------------------------------------------
      1          6           0        0.508182    1.462825    0.493315
      2          6           0        0.403955    0.010535    0.008502
      3          6           0        1.569353   -0.319009   -0.934156
      4          6           0        0.409458   -0.952870    1.212084
      5          7           0       -0.822821   -0.116653   -0.810057
      6          7           0       -2.015751    0.053423   -0.040008
      7          1           0       -0.366384    1.723617    1.093258
      8          1           0        1.406689    1.604802    1.102384
      9          1           0        0.553741    2.146126   -0.359892
     10          1           0        2.528035   -0.195920   -0.421837
     11          1           0        1.514901   -1.356368   -1.287002
     12          1           0        1.554469    0.338629   -1.808087
     13          1           0        1.331418   -0.854151    1.794562
     14          1           0       -0.431897   -0.741913    1.878129
     15          1           0        0.336473   -1.995776    0.879590
     16          1           0       -0.812805   -1.031606   -1.259058
     17          1           0       -2.725236    0.429785   -0.659256
     18          1           0       -2.365094   -0.833496    0.319202
 ---------------------------------------------------------------------

 SCF Done:  E(RHF) =  -267.435185594     A.U. after    8 cycles

 The electronic state is 1-A.
 Alpha  occ. eigenvalues --  -15.56461 -15.56358 -11.25472 -11.20872 -11.20707
 Alpha  occ. eigenvalues --  -11.19664  -1.26684  -1.09525  -0.97656  -0.92809
 Alpha  occ. eigenvalues --   -0.92391  -0.74324  -0.68043  -0.65799  -0.62393
 Alpha  occ. eigenvalues --   -0.59452  -0.57411  -0.53628  -0.52558  -0.50707
 Alpha  occ. eigenvalues --   -0.50350  -0.47076  -0.46007  -0.40697  -0.37908
 Alpha virt. eigenvalues --    0.03408   0.04341   0.04550   0.04922   0.06899
 Alpha virt. eigenvalues --    0.07087   0.07243   0.07504   0.07643   0.09971
 Alpha virt. eigenvalues --    0.10128   0.10516   0.10987   0.12107   0.12710

 Mulliken charges:
               1
     1  C   -0.608718
     2  C    0.459479
     3  C   -0.594282
     4  C   -0.602673
     5  N   -0.387722
     6  N   -0.681180
     7  H    0.197975
     8  H    0.159484
     9  H    0.166000
    10  H    0.170486
    11  H    0.150520
    12  H    0.180545
    13  H    0.166380
    14  H    0.182043
    15  H    0.156576
    16  H    0.271709
    17  H    0.323032
    18  H    0.290345
 Sum of Mulliken charges =  -0.00000

 Dipole moment (field-independent basis, Debye):
    X=             -0.4187    Y=             -1.6334    Z=             -0.1615  Tot=              1.6939
 Quadrupole moment (field-independent basis, Debye-Ang):
   XX=            -36.6737   YY=            -39.7224   ZZ=            -41.8158
   XY=              2.4123   XZ=              1.4593   YZ=              0.6048

 Normal termination of Gaussian 09 at Fri Aug 26 14:05:02 2022.
