 Gaussian 09, Revision E.01,
 Gaussian 09:  ES64L-G09RevE.01 30-Nov-2015

 -----
 #P G4
 -----

 --------
 Frag_876
 --------
 Symbolic Z-matrix:
 Charge =  0 Multiplicity = 1

 SCF Done:  E(RB3LYP) =  -318.547517395     A.U. after   16 cycles
 SCF Done:  E(RB3LYP) =  -318.586511110     A.U. after   13 cycles
 SCF Done:  E(RB3LYP) =  -318.606968152     A.U. after   14 cycles
 SCF Done:  E(RB3LYP) =  -318.612653950     A.U. after   14 cycles
 SCF Done:  E(RB3LYP) =  -318.613169585     A.U. after   12 cycles
 SCF Done:  E(RB3LYP) =  -318.613359595     A.U. after   13 cycles
 SCF Done:  E(RB3LYP) =  -318.613440748     A.U. after   14 cycles
 SCF Done:  E(RB3LYP) =  -318.613501219     A.U. after   11 cycles
 SCF Done:  E(RB3LYP) =  -318.613561826     A.U. after   13 cycles
 SCF Done:  E(RB3LYP) =  -318.613572237     A.U. after   10 cycles
 SCF Done:  E(RB3LYP) =  -318.613576421     A.U. after    9 cycles
 SCF Done:  E(RB3LYP) =  -318.613577735     A.U. after    9 cycles
 SCF Done:  E(RB3LYP) =  -318.613577921     A.U. after    8 cycles
 Optimization completed.
    -- Stationary point found.
 Normal termination of Gaussian 09 at Tue Aug 30 11:44:11 2022.

 ----------------------------------------------------------
 #P Geom=AllCheck Guess=TCheck SCRF=Check B3LYP/GTBas3 Freq
 ----------------------------------------------------------

 Structure from the checkpoint file:  "G4.Frag_876.chk"
 --------
 Frag_876
 --------
 Charge =  0 Multiplicity = 1

 SCF Done:  E(RB3LYP) =  -318.613577921     A.U. after    1 cycles

  Exact polarizability:  59.188   2.166  63.230   1.682   0.298  24.407
 Approx polarizability:  82.388   5.956 126.322   3.403  -1.760  38.986

                      1                      2                      3
                      A                      A                      A
 Frequencies --     71.5361               313.6872               360.7321
 Red. masses --      6.1161                 1.0732                 3.4550
 Frc consts  --      0.0184                 0.0622                 0.2649
 IR Inten    --      0.6745                30.2439                 3.9043

                      4                      5                      6
                      A                      A                      A
 Frequencies --    422.5767               432.1668               563.4824
 Red. masses --      3.0773                 2.8045                 4.7508
 Frc consts  --      0.3238                 0.3086                 0.8888
 IR Inten    --     13.1788                 1.5227                 9.4251

                      7                      8                      9
                      A                      A                      A
 Frequencies --    600.9214               654.9073               700.2101
 Red. masses --      3.6203                 1.2899                 1.4160
 Frc consts  --      0.7703                 0.3260                 0.4091
 IR Inten    --     32.8377               217.1629                25.9927

                     10                     11                     12
                      A                      A                      A
 Frequencies --    774.9140               815.0694               845.5067
 Red. masses --      2.1689                 3.4588                 1.4549
 Frc consts  --      0.7674                 1.3538                 0.6128
 IR Inten    --      9.0605                31.1808                56.2745

                     13                     14                     15
                      A                      A                      A
 Frequencies --    903.0148               983.2786              1112.1617
 Red. masses --      1.4288                 1.6075                 1.6386
 Frc consts  --      0.6864                 0.9157                 1.1941
 IR Inten    --     77.1123                 4.6617                 6.4761

                     16                     17                     18
                      A                      A                      A
 Frequencies --   1249.2056              1338.8090              1429.8586
 Red. masses --      3.8744                 2.2178                 1.2014
 Frc consts  --      3.5622                 2.3421                 1.4472
 IR Inten    --     61.4935                34.4095                 1.6252

                     19                     20                     21
                      A                      A                      A
 Frequencies --   1511.6618              1572.1970              1618.4945
 Red. masses --      1.7923                 3.0592                 1.6418
 Frc consts  --      2.4131                 4.4552                 2.5340
 IR Inten    --    150.4876               240.1926                21.6973

                     22                     23                     24
                      A                      A                      A
 Frequencies --   1741.8760              3188.1943              3302.4386
 Red. masses --      6.5702                 1.0633                 1.1129
 Frc consts  --     11.7452                 6.3680                 7.1511
 IR Inten    --     84.5044                 7.4061                 2.5684

                     25                     26                     27
                      A                      A                      A
 Frequencies --   3420.4521              3549.0940              3671.6358
 Red. masses --      1.0714                 1.0483                 1.0961
 Frc consts  --      7.3852                 7.7796                 8.7059
 IR Inten    --      8.6546                51.8602                49.8559

 - Thermochemistry -
 -------------------
 Temperature   298.150 Kelvin.  Pressure   1.00000 Atm.
 Atom     1 has atomic number  6 and mass  12.00000

 Molecular mass:    87.04326 amu.
 Principal axes and moments of inertia in atomic units:
                           1         2         3
     Eigenvalues --   318.89318 464.27868 768.03573
           X            0.99968  -0.02361   0.00874
           Y            0.02357   0.99971   0.00477
           Z           -0.00885  -0.00456   0.99995
 This molecule is an asymmetric top.
 Rotational symmetry number  1.
 Rotational temperatures (Kelvin)      0.27161     0.18656     0.11277
 Rotational constants (GHZ):           5.65939     3.88719     2.34981
 Zero-point vibrational energy     222194.9 (Joules/Mol)
                                   53.10585 (Kcal/Mol)
 Warning -- explicit consideration of   7 degrees of freedom as
           vibrations may cause significant error
 Vibrational temperatures:    102.92   451.33   519.01   607.99   621.79
          (Kelvin)            810.72   864.59   942.26  1007.44  1114.93
                             1172.70  1216.49  1299.24  1414.72  1600.15
                             1797.33  1926.25  2057.25  2174.94  2262.04
                             2328.65  2506.17  4587.09  4751.47  4921.26
                             5106.35  5282.66

 Zero-point correction=                           0.084630 (Hartree/Particle)
 Thermal correction to Energy=                    0.090544
 Thermal correction to Enthalpy=                  0.091488
 Thermal correction to Gibbs Free Energy=         0.055151
 Sum of electronic and zero-point Energies=           -318.528948
 Sum of electronic and thermal Energies=              -318.523034
 Sum of electronic and thermal Enthalpies=            -318.522090
 Sum of electronic and thermal Free Energies=         -318.558427

                     E (Thermal)             CV                S
                      KCal/Mol        Cal/Mol-Kelvin    Cal/Mol-Kelvin
 Total                   56.817             21.509             76.479
 Electronic               0.000              0.000              0.000
 Translational            0.889              2.981             39.304
 Rotational               0.889              2.981             26.233
 Vibrational             55.040             15.547             10.941
 Vibration     1          0.598              1.968              4.111
 Vibration     2          0.702              1.648              1.343
 Vibration     3          0.735              1.553              1.119
 Vibration     4          0.785              1.421              0.883
 Vibration     5          0.793              1.400              0.852
 Vibration     6          0.919              1.110              0.517
 Vibration     7          0.959              1.030              0.448

 Optimization completed.
    -- Stationary point found.
 Normal termination of Gaussian 09 at Tue Aug 30 11:44:35 2022.

 -----------------------------------------------------------------
 #P Geom=AllCheck Guess=TCheck SCRF=Check CCSD(T,E4T,FrzG4)/GTBas1
 -----------------------------------------------------------------

 Structure from the checkpoint file:  "G4.Frag_876.chk"
 --------
 Frag_876
 --------
 Charge =  0 Multiplicity = 1

 SCF Done:  E(RHF) =  -316.705930189     A.U. after   15 cycles
 E2 =    -0.9435991166D+00 EUMP2 =    -0.31764952930521D+03
 CCSD(T)
 CCSD(T)= -0.31771258143D+03
 191765\MP4SDQ=-317.6766569\CCSD=-317.6740657\CCSD(T)=-317.7125814\RMSD
 Normal termination of Gaussian 09 at Tue Aug 30 11:46:13 2022.

 ---------------------------------------------------------
 #P Geom=AllCheck Guess=TCheck SCRF=Check MP4=FrzG4/GTBas2
 ---------------------------------------------------------

 Structure from the checkpoint file:  "G4.Frag_876.chk"
 --------
 Frag_876
 --------
 Charge =  0 Multiplicity = 1

 SCF Done:  E(RHF) =  -316.717844645     A.U. after   14 cycles
 E2 =    -0.9573376659D+00 EUMP2 =    -0.31767518231102D+03
 Normal termination of Gaussian 09 at Tue Aug 30 11:46:42 2022.

 ---------------------------------------------------------
 #P Geom=AllCheck Guess=TCheck SCRF=Check MP4=FrzG4/GTBas3
 ---------------------------------------------------------

 Structure from the checkpoint file:  "G4.Frag_876.chk"
 --------
 Frag_876
 --------
 Charge =  0 Multiplicity = 1

 SCF Done:  E(RHF) =  -316.746984888     A.U. after   13 cycles
 E2 =    -0.1130809616D+01 EUMP2 =    -0.31787779450408D+03
 Normal termination of Gaussian 09 at Tue Aug 30 11:49:07 2022.

 -----------------------------------------------------------
 #P Geom=AllCheck Guess=TCheck SCRF=Check MP2=Full/GTLargeXP
 -----------------------------------------------------------

 Structure from the checkpoint file:  "G4.Frag_876.chk"
 --------
 Frag_876
 --------
 Charge =  0 Multiplicity = 1

 SCF Done:  E(RHF) =  -316.831074421     A.U. after   13 cycles
 E2 =    -0.1468890889D+01 EUMP2 =    -0.31829996530991D+03
 Normal termination of Gaussian 09 at Tue Aug 30 11:50:33 2022.
 SCF Done:  E(RHF) =  -316.856596191     A.U. after   10 cycles
 Normal termination of Gaussian 09 at Tue Aug 30 11:52:00 2022.

                         Standard orientation:
 ---------------------------------------------------------------------
 Center     Atomic      Atomic             Coordinates (Angstroms)
 Number     Number       Type             X           Y           Z
 ---------------------------------------------------------------------
      1          6           0        1.306864    1.295935    0.138892
      2          6           0        0.726462    0.105412   -0.014112
      3          7           0        1.302946   -1.128761   -0.217994
      4          7           0       -0.752938   -0.002655   -0.000262
      5          7           0       -1.413738    1.060593   -0.184601
      6          8           0       -1.222586   -1.143684    0.200537
      7          1           0        2.386427    1.378038    0.141431
      8          1           0        0.711502    2.187497    0.248994
      9          1           0        0.681877   -1.884056    0.044376
     10          1           0        2.242980   -1.219081    0.134969
     11          1           0       -2.395939    0.774750   -0.102748
 ---------------------------------------------------------------------

 SCF Done:  E(RHF) =  -316.861700004     A.U. after    8 cycles

 The electronic state is 1-A.
 Alpha  occ. eigenvalues --  -20.56810 -15.80431 -15.62014 -15.57818 -11.34000
 Alpha  occ. eigenvalues --  -11.23711  -1.53453  -1.28453  -1.24691  -1.05778
 Alpha  occ. eigenvalues --   -0.95560  -0.78936  -0.74816  -0.72883  -0.69563
 Alpha  occ. eigenvalues --   -0.66392  -0.62818  -0.58751  -0.52282  -0.51753
 Alpha  occ. eigenvalues --   -0.46578  -0.41317  -0.34343
 Alpha virt. eigenvalues --    0.03442   0.04445   0.04608   0.05345   0.07268
 Alpha virt. eigenvalues --    0.07530   0.07979   0.08307   0.09509   0.10523
 Alpha virt. eigenvalues --    0.12037   0.12068   0.12975   0.13302   0.14103

 Mulliken charges:
               1
     1  C   -0.405942
     2  C    0.240941
     3  N   -0.703398
     4  N    0.477358
     5  N   -0.477220
     6  O   -0.563163
     7  H    0.190518
     8  H    0.233636
     9  H    0.359462
    10  H    0.315412
    11  H    0.332395
 Sum of Mulliken charges =  -0.00000

 Dipole moment (field-independent basis, Debye):
    X=              1.7851    Y=              0.5002    Z=              0.7745  Tot=              2.0092
 Quadrupole moment (field-independent basis, Debye-Ang):
   XX=            -29.1102   YY=            -36.6744   ZZ=            -38.6677
   XY=             -3.3883   XZ=              2.0107   YZ=             -0.1661

 Normal termination of Gaussian 09 at Tue Aug 30 11:57:42 2022.
