 Gaussian 09, Revision E.01,
 Gaussian 09:  ES64L-G09RevE.01 30-Nov-2015

 -----
 #P G4
 -----

 --------
 Frag_997
 --------
 Symbolic Z-matrix:
 Charge =  0 Multiplicity = 1

 SCF Done:  E(RB3LYP) =  -327.115021356     A.U. after   14 cycles
 SCF Done:  E(RB3LYP) =  -327.127959542     A.U. after   12 cycles
 SCF Done:  E(RB3LYP) =  -327.129432287     A.U. after   12 cycles
 SCF Done:  E(RB3LYP) =  -327.130046995     A.U. after   11 cycles
 SCF Done:  E(RB3LYP) =  -327.130210725     A.U. after   11 cycles
 SCF Done:  E(RB3LYP) =  -327.130241036     A.U. after   10 cycles
 SCF Done:  E(RB3LYP) =  -327.130245847     A.U. after    9 cycles
 SCF Done:  E(RB3LYP) =  -327.130250223     A.U. after    7 cycles
 SCF Done:  E(RB3LYP) =  -327.130252178     A.U. after    9 cycles
 SCF Done:  E(RB3LYP) =  -327.130253979     A.U. after    9 cycles
 SCF Done:  E(RB3LYP) =  -327.130255801     A.U. after   10 cycles
 SCF Done:  E(RB3LYP) =  -327.130257153     A.U. after    9 cycles
 SCF Done:  E(RB3LYP) =  -327.130257450     A.U. after    7 cycles
 Optimization completed.
    -- Stationary point found.
 Normal termination of Gaussian 09 at Fri Aug 19 21:08:59 2022.

 ----------------------------------------------------------
 #P Geom=AllCheck Guess=TCheck SCRF=Check B3LYP/GTBas3 Freq
 ----------------------------------------------------------

 Structure from the checkpoint file:  "G4.Frag_997.chk"
 --------
 Frag_997
 --------
 Charge =  0 Multiplicity = 1

 SCF Done:  E(RB3LYP) =  -327.130257450     A.U. after    1 cycles

  Exact polarizability:  72.838   7.185  70.808   0.288   0.827  53.633
 Approx polarizability: 100.051  11.099 109.631   0.836   1.878  75.055

                      1                      2                      3
                      A                      A                      A
 Frequencies --     63.9125               180.6051               212.5760
 Red. masses --      2.6377                 1.3979                 1.2172
 Frc consts  --      0.0063                 0.0269                 0.0324
 IR Inten    --      4.2201                65.3045                 2.5757

                      4                      5                      6
                      A                      A                      A
 Frequencies --    235.4583               276.7922               293.1005
 Red. masses --      1.3928                 1.4818                 1.1338
 Frc consts  --      0.0455                 0.0669                 0.0574
 IR Inten    --     10.9606                 2.5285                20.9553

                      7                      8                      9
                      A                      A                      A
 Frequencies --    302.2884               345.7723               396.9412
 Red. masses --      2.0043                 2.3314                 2.7993
 Frc consts  --      0.1079                 0.1642                 0.2599
 IR Inten    --      8.6986                 1.4899                 6.8489

                     10                     11                     12
                      A                      A                      A
 Frequencies --    420.9804               496.7828               508.3525
 Red. masses --      2.5218                 2.7229                 2.7779
 Frc consts  --      0.2633                 0.3959                 0.4230
 IR Inten    --      4.9323                 3.4474                 3.0004

                     13                     14                     15
                      A                      A                      A
 Frequencies --    661.5405               695.4299               766.9923
 Red. masses --      3.3253                 3.3233                 1.1002
 Frc consts  --      0.8574                 0.9470                 0.3813
 IR Inten    --      4.7106                 4.5154                 6.3287

                     16                     17                     18
                      A                      A                      A
 Frequencies --    857.1265               865.3492               910.7181
 Red. masses --      1.9704                 1.4833                 1.4380
 Frc consts  --      0.8529                 0.6544                 0.7027
 IR Inten    --     74.8021                45.0208                46.8196

                     19                     20                     21
                      A                      A                      A
 Frequencies --    916.5837               971.3543               983.8604
 Red. masses --      1.6602                 1.7751                 1.8335
 Frc consts  --      0.8218                 0.9868                 1.0457
 IR Inten    --      1.8311                18.9103                23.4220

                     22                     23                     24
                      A                      A                      A
 Frequencies --   1021.1100              1086.9687              1179.4087
 Red. masses --      1.3197                 1.5448                 2.2927
 Frc consts  --      0.8107                 1.0754                 1.8790
 IR Inten    --      2.4390                11.5761                23.9610

                     25                     26                     27
                      A                      A                      A
 Frequencies --   1208.6849              1253.9948              1310.4034
 Red. masses --      2.0059                 2.0375                 1.8129
 Frc consts  --      1.7266                 1.8877                 1.8341
 IR Inten    --     11.4371                92.9952                85.9977

                     28                     29                     30
                      A                      A                      A
 Frequencies --   1353.3343              1392.4871              1416.0043
 Red. masses --      2.4256                 1.2219                 1.2353
 Frc consts  --      2.6175                 1.3960                 1.4593
 IR Inten    --     51.5111                 6.4412                 1.8513

                     31                     32                     33
                      A                      A                      A
 Frequencies --   1424.8907              1477.4880              1483.6702
 Red. masses --      1.1908                 1.0481                 1.0512
 Frc consts  --      1.4245                 1.3481                 1.3634
 IR Inten    --      9.1099                 0.4979                 0.5156

                     34                     35                     36
                      A                      A                      A
 Frequencies --   1502.3344              1505.3972              1645.5769
 Red. masses --      1.0554                 1.0814                 1.1075
 Frc consts  --      1.4034                 1.4439                 1.7670
 IR Inten    --      4.8505                12.8832                36.4765

                     37                     38                     39
                      A                      A                      A
 Frequencies --   1739.9515              3014.9125              3035.3508
 Red. masses --      5.3626                 1.0402                 1.0382
 Frc consts  --      9.5653                 5.5707                 5.6357
 IR Inten    --     70.1367                25.1356                24.2310

                     40                     41                     42
                      A                      A                      A
 Frequencies --   3077.5781              3103.3694              3109.5033
 Red. masses --      1.0937                 1.0984                 1.1029
 Frc consts  --      6.1035                 6.2325                 6.2829
 IR Inten    --     27.5873                27.8721                25.2562

                     43                     44                     45
                      A                      A                      A
 Frequencies --   3134.7975              3181.8677              3288.6246
 Red. masses --      1.1015                 1.0624                 1.1133
 Frc consts  --      6.3775                 6.3376                 7.0941
 IR Inten    --     14.4934                 3.5208                 1.3984

                     46                     47                     48
                      A                      A                      A
 Frequencies --   3480.5067              3562.1840              3848.7189
 Red. masses --      1.0488                 1.0925                 1.0655
 Frc consts  --      7.4857                 8.1681                 9.2992
 IR Inten    --      0.2813                 0.0603                44.4305

 - Thermochemistry -
 -------------------
 Temperature   298.150 Kelvin.  Pressure   1.00000 Atm.
 Atom     1 has atomic number  6 and mass  12.00000

 Molecular mass:   101.08406 amu.
 Principal axes and moments of inertia in atomic units:
                           1         2         3
     Eigenvalues --   553.29130 769.62442 928.13533
           X            0.99629   0.08603  -0.00127
           Y           -0.08602   0.99628   0.00534
           Z            0.00172  -0.00522   0.99998
 This molecule is an asymmetric top.
 Rotational symmetry number  1.
 Warning -- assumption of classical behavior for rotation
           may cause significant error
 Rotational temperatures (Kelvin)      0.15654     0.11254     0.09332
 Rotational constants (GHZ):           3.26183     2.34496     1.94448
 Zero-point vibrational energy     413917.7 (Joules/Mol)
                                   98.92870 (Kcal/Mol)
 Warning -- explicit consideration of  12 degrees of freedom as
           vibrations may cause significant error
 Vibrational temperatures:     91.96   259.85   305.85   338.77   398.24
          (Kelvin)            421.71   434.93   497.49   571.11   605.70
                              714.76   731.40   951.81  1000.57  1103.53
                             1233.21  1245.04  1310.32  1318.76  1397.56
                             1415.55  1469.15  1563.90  1696.90  1739.03
                             1804.22  1885.38  1947.14  2003.48  2037.31
                             2050.10  2125.77  2134.67  2161.52  2165.93
                             2367.62  2503.40  4337.78  4367.19  4427.94
                             4465.05  4473.88  4510.27  4577.99  4731.59
                             5007.67  5125.18  5537.44

 Zero-point correction=                           0.157653 (Hartree/Particle)
 Thermal correction to Energy=                    0.166454
 Thermal correction to Enthalpy=                  0.167398
 Thermal correction to Gibbs Free Energy=         0.125289
 Sum of electronic and zero-point Energies=           -326.972605
 Sum of electronic and thermal Energies=              -326.963803
 Sum of electronic and thermal Enthalpies=            -326.962859
 Sum of electronic and thermal Free Energies=         -327.004968

                     E (Thermal)             CV                S
                      KCal/Mol        Cal/Mol-Kelvin    Cal/Mol-Kelvin
 Total                  104.452             32.976             88.626
 Electronic               0.000              0.000              0.000
 Translational            0.889              2.981             39.750
 Rotational               0.889              2.981             27.471
 Vibrational            102.674             27.014             21.405
 Vibration     1          0.597              1.972              4.333
 Vibration     2          0.630              1.866              2.322
 Vibration     3          0.644              1.822              2.021
 Vibration     4          0.655              1.787              1.837
 Vibration     5          0.678              1.716              1.553
 Vibration     6          0.688              1.687              1.456
 Vibration     7          0.694              1.669              1.404
 Vibration     8          0.724              1.584              1.185
 Vibration     9          0.763              1.477              0.974
 Vibration    10          0.783              1.425              0.889
 Vibration    11          0.852              1.257              0.666
 Vibration    12          0.864              1.231              0.638

 Optimization completed.
    -- Stationary point found.
 Normal termination of Gaussian 09 at Fri Aug 19 21:14:28 2022.

 -----------------------------------------------------------------
 #P Geom=AllCheck Guess=TCheck SCRF=Check CCSD(T,E4T,FrzG4)/GTBas1
 -----------------------------------------------------------------

 Structure from the checkpoint file:  "G4.Frag_997.chk"
 --------
 Frag_997
 --------
 Charge =  0 Multiplicity = 1

 SCF Done:  E(RHF) =  -325.013153771     A.U. after   12 cycles
 E2 =    -0.9972388074D+00 EUMP2 =    -0.32601039257858D+03
 CCSD(T)
 CCSD(T)= -0.32610791315D+03
 48268\CCSD(T)=-326.1079131\RMSD=7.376e-09\PG=C01 [X(C5H11N1O1)]\\@
 Normal termination of Gaussian 09 at Fri Aug 19 21:30:56 2022.

 ---------------------------------------------------------
 #P Geom=AllCheck Guess=TCheck SCRF=Check MP4=FrzG4/GTBas2
 ---------------------------------------------------------

 Structure from the checkpoint file:  "G4.Frag_997.chk"
 --------
 Frag_997
 --------
 Charge =  0 Multiplicity = 1

 SCF Done:  E(RHF) =  -325.023579261     A.U. after   12 cycles
 E2 =    -0.1012118839D+01 EUMP2 =    -0.32603569810078D+03
 Normal termination of Gaussian 09 at Fri Aug 19 21:52:14 2022.

 ---------------------------------------------------------
 #P Geom=AllCheck Guess=TCheck SCRF=Check MP4=FrzG4/GTBas3
 ---------------------------------------------------------

 Structure from the checkpoint file:  "G4.Frag_997.chk"
 --------
 Frag_997
 --------
 Charge =  0 Multiplicity = 1

 SCF Done:  E(RHF) =  -325.060528871     A.U. after   11 cycles
 E2 =    -0.1231865335D+01 EUMP2 =    -0.32629239420593D+03
 Normal termination of Gaussian 09 at Sat Aug 20 03:08:50 2022.

 -----------------------------------------------------------
 #P Geom=AllCheck Guess=TCheck SCRF=Check MP2=Full/GTLargeXP
 -----------------------------------------------------------

 Structure from the checkpoint file:  "G4.Frag_997.chk"
 --------
 Frag_997
 --------
 Charge =  0 Multiplicity = 1

 SCF Done:  E(RHF) =  -325.141036473     A.U. after   12 cycles
 E2 =    -0.1617067834D+01 EUMP2 =    -0.32675810430724D+03
 Normal termination of Gaussian 09 at Sat Aug 20 03:30:49 2022.
 SCF Done:  E(RHF) =  -325.166804732     A.U. after    9 cycles
 Normal termination of Gaussian 09 at Sat Aug 20 03:42:30 2022.

                         Standard orientation:
 ---------------------------------------------------------------------
 Center     Atomic      Atomic             Coordinates (Angstroms)
 Number     Number       Type             X           Y           Z
 ---------------------------------------------------------------------
      1          6           0       -1.760385   -1.103464   -0.016058
      2          6           0       -0.968282   -0.033469   -0.010941
      3          8           0       -1.535211    1.215365    0.014355
      4          6           0        0.559139   -0.072166    0.003189
      5          6           0        1.128328    0.863084   -1.096478
      6          6           0        1.066330    0.380170    1.387463
      7          7           0        0.996205   -1.459585   -0.197379
      8          1           0       -1.339614   -2.095833    0.027303
      9          1           0       -2.836968   -0.985562   -0.023538
     10          1           0       -0.856071    1.882490   -0.114111
     11          1           0        0.744138    0.583010   -2.082350
     12          1           0        2.219680    0.778505   -1.113841
     13          1           0        0.905593    1.926431   -0.939271
     14          1           0        0.740669   -0.330472    2.149877
     15          1           0        0.682776    1.370594    1.648311
     16          1           0        2.161115    0.431190    1.398748
     17          1           0        0.725107   -1.772391   -1.126006
     18          1           0        2.011053   -1.498720   -0.161363
 ---------------------------------------------------------------------

 SCF Done:  E(RHF) =  -325.172322131     A.U. after    8 cycles

 The electronic state is 1-A.
 Alpha  occ. eigenvalues --  -20.57706 -15.54592 -11.28749 -11.28292 -11.23369
 Alpha  occ. eigenvalues --  -11.22355 -11.19346  -1.39543  -1.20442  -1.03738
 Alpha  occ. eigenvalues --   -1.00550  -0.94872  -0.83384  -0.76472  -0.70188
 Alpha  occ. eigenvalues --   -0.65078  -0.63492  -0.60368  -0.59753  -0.57248
 Alpha  occ. eigenvalues --   -0.56924  -0.54982  -0.53890  -0.52427  -0.49553
 Alpha  occ. eigenvalues --   -0.47481  -0.40309  -0.33189
 Alpha virt. eigenvalues --    0.02908   0.04182   0.04513   0.04772   0.06341
 Alpha virt. eigenvalues --    0.06565   0.07124   0.07163   0.07374   0.09430
 Alpha virt. eigenvalues --    0.09592   0.09912   0.10027   0.10662   0.11565

 Mulliken charges:
               1
     1  C   -0.540694
     2  C    0.216318
     3  O   -0.591051
     4  C    0.401782
     5  C   -0.566294
     6  C   -0.569102
     7  N   -0.797558
     8  H    0.219129
     9  H    0.206155
    10  H    0.383132
    11  H    0.183754
    12  H    0.174935
    13  H    0.149573
    14  H    0.196243
    15  H    0.174243
    16  H    0.161617
    17  H    0.306798
    18  H    0.291019
 Sum of Mulliken charges =  -0.00000

 Dipole moment (field-independent basis, Debye):
    X=              2.8929    Y=              1.0373    Z=             -1.0235  Tot=              3.2392
 Quadrupole moment (field-independent basis, Debye-Ang):
   XX=            -45.9640   YY=            -43.9788   ZZ=            -45.4795
   XY=              1.3350   XZ=             -0.6508   YZ=              1.6699

 Normal termination of Gaussian 09 at Sat Aug 20 08:54:21 2022.
