 Gaussian 09, Revision E.01,
 Gaussian 09:  ES64L-G09RevE.01 30-Nov-2015

 -----
 #P G4
 -----

 --------
 Frag_821
 --------
 Symbolic Z-matrix:
 Charge =  0 Multiplicity = 1

 SCF Done:  E(RB3LYP) =  -379.084344509     A.U. after   13 cycles
 SCF Done:  E(RB3LYP) =  -379.102133657     A.U. after   12 cycles
 SCF Done:  E(RB3LYP) =  -379.103624229     A.U. after   12 cycles
 SCF Done:  E(RB3LYP) =  -379.104050634     A.U. after   12 cycles
 SCF Done:  E(RB3LYP) =  -379.104323855     A.U. after   12 cycles
 SCF Done:  E(RB3LYP) =  -379.104744244     A.U. after   12 cycles
 SCF Done:  E(RB3LYP) =  -379.104616379     A.U. after   13 cycles
 SCF Done:  E(RB3LYP) =  -379.105103844     A.U. after   11 cycles
 SCF Done:  E(RB3LYP) =  -379.105462463     A.U. after   11 cycles
 SCF Done:  E(RB3LYP) =  -379.105924968     A.U. after   11 cycles
 SCF Done:  E(RB3LYP) =  -379.116501540     A.U. after    8 cycles
 SCF Done:  E(RB3LYP) =  -379.116503263     A.U. after    8 cycles
 SCF Done:  E(RB3LYP) =  -379.116503127     A.U. after    7 cycles
 Optimization completed.
    -- Stationary point found.
 Normal termination of Gaussian 09 at Tue Aug 23 10:33:07 2022.

 ----------------------------------------------------------
 #P Geom=AllCheck Guess=TCheck SCRF=Check B3LYP/GTBas3 Freq
 ----------------------------------------------------------

 Structure from the checkpoint file:  "G4.Frag_821.chk"
 --------
 Frag_821
 --------
 Charge =  0 Multiplicity = 1

 SCF Done:  E(RB3LYP) =  -379.116503127     A.U. after    1 cycles

  Exact polarizability:  59.374   2.396  59.188   0.146   0.325  43.873
 Approx polarizability:  79.451   5.231  96.485   2.902   1.178  61.799

                      1                      2                      3
                      A                      A                      A
 Frequencies --     75.6248               225.2030               238.0525
 Red. masses --      5.2553                 1.0678                 2.6760
 Frc consts  --      0.0177                 0.0319                 0.0893
 IR Inten    --      1.5686                 0.3534                 3.0293

                      4                      5                      6
                      A                      A                      A
 Frequencies --    289.7536               318.2962               369.2510
 Red. masses --      2.9378                 1.4211                 2.4232
 Frc consts  --      0.1453                 0.0848                 0.1947
 IR Inten    --      4.1062                99.6071                14.3676

                      7                      8                      9
                      A                      A                      A
 Frequencies --    398.5684               446.2493               492.2298
 Red. masses --      4.3740                 1.9577                 1.5454
 Frc consts  --      0.4094                 0.2297                 0.2206
 IR Inten    --     10.5646                20.2554               104.1507

                     10                     11                     12
                      A                      A                      A
 Frequencies --    518.0233               556.9583               574.0021
 Red. masses --      1.8335                 1.3196                 1.9867
 Frc consts  --      0.2899                 0.2412                 0.3857
 IR Inten    --     40.4939                62.5821                34.6206

                     13                     14                     15
                      A                      A                      A
 Frequencies --    601.2477               724.0208               728.4405
 Red. masses --      1.7905                 2.8783                 3.6945
 Frc consts  --      0.3813                 0.8890                 1.1550
 IR Inten    --     52.7947                 0.6641                 4.2463

                     16                     17                     18
                      A                      A                      A
 Frequencies --    846.1161               929.7374               971.0847
 Red. masses --      1.4526                 2.2923                 1.8677
 Frc consts  --      0.6127                 1.1674                 1.0377
 IR Inten    --     61.7310                13.8273                54.8550

                     19                     20                     21
                      A                      A                      A
 Frequencies --   1076.4576              1101.6523              1121.3191
 Red. masses --      2.2800                 1.3205                 1.9457
 Frc consts  --      1.5566                 0.9442                 1.4414
 IR Inten    --     92.5166                19.5579                29.3647

                     22                     23                     24
                      A                      A                      A
 Frequencies --   1148.2938              1197.3567              1367.0027
 Red. masses --      2.1199                 3.2634                 1.5179
 Frc consts  --      1.6469                 2.7566                 1.6712
 IR Inten    --     78.6221                81.1363                86.5015

                     25                     26                     27
                      A                      A                      A
 Frequencies --   1396.6353              1420.8838              1452.6577
 Red. masses --      1.5401                 1.7970                 1.3188
 Frc consts  --      1.7700                 2.1375                 1.6397
 IR Inten    --    124.6914                47.4869                91.3617

                     28                     29                     30
                      A                      A                      A
 Frequencies --   1482.0172              1496.6514              1627.0301
 Red. masses --      1.0604                 1.2231                 1.1996
 Frc consts  --      1.3722                 1.6142                 1.8710
 IR Inten    --      5.1033                26.5114                67.7492

                     31                     32                     33
                      A                      A                      A
 Frequencies --   1733.6982              3054.4895              3135.7712
 Red. masses --      7.2380                 1.0336                 1.1026
 Frc consts  --     12.8179                 5.6815                 6.3880
 IR Inten    --    192.1500                 8.9675                15.8244

                     34                     35                     36
                      A                      A                      A
 Frequencies --   3141.3280              3476.5903              3564.6904
 Red. masses --      1.1031                 1.0753                 1.0609
 Frc consts  --      6.4135                 7.6576                 7.9427
 IR Inten    --     12.3681                 5.4057               115.6881

                     37                     38                     39
                      A                      A                      A
 Frequencies --   3568.8166              3684.1535              3796.4623
 Red. masses --      1.0492                 1.1009                 1.0651
 Frc consts  --      7.8736                 8.8038                 9.0451
 IR Inten    --     78.2283                35.2655                33.7366

 - Thermochemistry -
 -------------------
 Temperature   298.150 Kelvin.  Pressure   1.00000 Atm.
 Atom     1 has atomic number  6 and mass  12.00000

 Molecular mass:   104.05858 amu.
 Principal axes and moments of inertia in atomic units:
                           1         2         3
     Eigenvalues --   522.49556 725.30602 883.42323
           X            0.99911  -0.00103  -0.04211
           Y            0.00008   0.99974  -0.02271
           Z            0.04213   0.02269   0.99885
 This molecule is an asymmetric top.
 Rotational symmetry number  1.
 Warning -- assumption of classical behavior for rotation
           may cause significant error
 Rotational temperatures (Kelvin)      0.16577     0.11942     0.09804
 Rotational constants (GHZ):           3.45408     2.48825     2.04290
 Zero-point vibrational energy     325066.2 (Joules/Mol)
                                   77.69267 (Kcal/Mol)
 Warning -- explicit consideration of  13 degrees of freedom as
           vibrations may cause significant error
 Vibrational temperatures:    108.81   324.02   342.50   416.89   457.96
          (Kelvin)            531.27   573.45   642.05   708.21   745.32
                              801.34   825.86   865.06  1041.70  1048.06
                             1217.37  1337.68  1397.17  1548.78  1585.03
                             1613.33  1652.14  1722.73  1966.81  2009.44
                             2044.33  2090.05  2132.29  2153.34  2340.93
                             2494.40  4394.72  4511.67  4519.66  5002.03
                             5128.79  5134.72  5300.67  5462.26

 Zero-point correction=                           0.123811 (Hartree/Particle)
 Thermal correction to Energy=                    0.131678
 Thermal correction to Enthalpy=                  0.132623
 Thermal correction to Gibbs Free Energy=         0.092408
 Sum of electronic and zero-point Energies=           -378.992692
 Sum of electronic and thermal Energies=              -378.984825
 Sum of electronic and thermal Enthalpies=            -378.983880
 Sum of electronic and thermal Free Energies=         -379.024095

                     E (Thermal)             CV                S
                      KCal/Mol        Cal/Mol-Kelvin    Cal/Mol-Kelvin
 Total                   82.630             29.885             84.639
 Electronic               0.000              0.000              0.000
 Translational            0.889              2.981             39.837
 Rotational               0.889              2.981             27.306
 Vibrational             80.852             23.924             17.496
 Vibration     1          0.599              1.965              4.001
 Vibration     2          0.650              1.803              1.917
 Vibration     3          0.656              1.782              1.817
 Vibration     4          0.686              1.693              1.475
 Vibration     5          0.705              1.639              1.319
 Vibration     6          0.742              1.535              1.083
 Vibration     7          0.765              1.473              0.968
 Vibration     8          0.806              1.369              0.807
 Vibration     9          0.848              1.267              0.678
 Vibration    10          0.873              1.210              0.615
 Vibration    11          0.912              1.124              0.530
 Vibration    12          0.930              1.087              0.497
 Vibration    13          0.959              1.029              0.448

 Optimization completed.
    -- Stationary point found.
 Normal termination of Gaussian 09 at Tue Aug 23 10:36:59 2022.

 -----------------------------------------------------------------
 #P Geom=AllCheck Guess=TCheck SCRF=Check CCSD(T,E4T,FrzG4)/GTBas1
 -----------------------------------------------------------------

 Structure from the checkpoint file:  "G4.Frag_821.chk"
 --------
 Frag_821
 --------
 Charge =  0 Multiplicity = 1

 SCF Done:  E(RHF) =  -376.872186284     A.U. after   13 cycles
 E2 =    -0.1072934696D+01 EUMP2 =    -0.37794512097973D+03
 CCSD(T)
 CCSD(T)= -0.37802391495D+03
 9908034\CCSD(T)=-378.023915\RMSD=4.137e-09\PG=C01 [X(C3H8N2O2)]\\@
 Normal termination of Gaussian 09 at Tue Aug 23 10:50:35 2022.

 ---------------------------------------------------------
 #P Geom=AllCheck Guess=TCheck SCRF=Check MP4=FrzG4/GTBas2
 ---------------------------------------------------------

 Structure from the checkpoint file:  "G4.Frag_821.chk"
 --------
 Frag_821
 --------
 Charge =  0 Multiplicity = 1

 SCF Done:  E(RHF) =  -376.886070020     A.U. after   12 cycles
 E2 =    -0.1092131635D+01 EUMP2 =    -0.37797820165475D+03
 Normal termination of Gaussian 09 at Tue Aug 23 11:08:44 2022.

 ---------------------------------------------------------
 #P Geom=AllCheck Guess=TCheck SCRF=Check MP4=FrzG4/GTBas3
 ---------------------------------------------------------

 Structure from the checkpoint file:  "G4.Frag_821.chk"
 --------
 Frag_821
 --------
 Charge =  0 Multiplicity = 1

 SCF Done:  E(RHF) =  -376.926028014     A.U. after   11 cycles
 E2 =    -0.1314956162D+01 EUMP2 =    -0.37824098417584D+03
 Normal termination of Gaussian 09 at Tue Aug 23 15:06:05 2022.

 -----------------------------------------------------------
 #P Geom=AllCheck Guess=TCheck SCRF=Check MP2=Full/GTLargeXP
 -----------------------------------------------------------

 Structure from the checkpoint file:  "G4.Frag_821.chk"
 --------
 Frag_821
 --------
 Charge =  0 Multiplicity = 1

 SCF Done:  E(RHF) =  -377.029704885     A.U. after   13 cycles
 E2 =    -0.1716835916D+01 EUMP2 =    -0.37874654080072D+03
 Normal termination of Gaussian 09 at Tue Aug 23 15:17:07 2022.
 SCF Done:  E(RHF) =  -377.059507740     A.U. after    8 cycles
 Normal termination of Gaussian 09 at Tue Aug 23 15:25:11 2022.

                         Standard orientation:
 ---------------------------------------------------------------------
 Center     Atomic      Atomic             Coordinates (Angstroms)
 Number     Number       Type             X           Y           Z
 ---------------------------------------------------------------------
      1          6           0       -1.219816   -0.439578    1.277813
      2          6           0       -0.603840    0.042319   -0.035686
      3          8           0       -1.062432    1.312640   -0.372977
      4          8           0       -0.990842   -0.893158   -1.037057
      5          6           0        0.940073    0.081979    0.044835
      6          7           0        1.483551    1.235230    0.136885
      7          7           0        1.528701   -1.152276    0.043394
      8          1           0       -2.307233   -0.399643    1.183219
      9          1           0       -0.906106    0.216034    2.093420
     10          1           0       -0.915937   -1.464010    1.505897
     11          1           0       -0.275106    1.887155   -0.302506
     12          1           0       -0.967463   -0.402810   -1.867819
     13          1           0        2.501814    1.204622    0.176458
     14          1           0        2.525776   -1.204664   -0.095310
     15          1           0        0.986178   -1.881533   -0.396822
 ---------------------------------------------------------------------

 SCF Done:  E(RHF) =  -377.066003654     A.U. after    8 cycles

 The electronic state is 1-A.
 Alpha  occ. eigenvalues --  -20.56905 -20.55339 -15.58826 -15.54137 -11.35153
 Alpha  occ. eigenvalues --  -11.32883 -11.21797  -1.42089  -1.33691  -1.27300
 Alpha  occ. eigenvalues --   -1.15893  -1.01484  -0.88550  -0.78777  -0.74460
 Alpha  occ. eigenvalues --   -0.72854  -0.70041  -0.64887  -0.63752  -0.57336
 Alpha  occ. eigenvalues --   -0.56069  -0.54745  -0.53656  -0.51628  -0.49178
 Alpha  occ. eigenvalues --   -0.46416  -0.43136  -0.39119
 Alpha virt. eigenvalues --    0.02846   0.04317   0.04907   0.05033   0.06842
 Alpha virt. eigenvalues --    0.07242   0.07355   0.07697   0.08244   0.09843
 Alpha virt. eigenvalues --    0.11771   0.11903   0.12290   0.12928   0.13528

 Mulliken charges:
               1
     1  C   -0.525958
     2  C    0.580490
     3  O   -0.662227
     4  O   -0.622342
     5  C    0.382541
     6  N   -0.736838
     7  N   -0.713580
     8  H    0.183087
     9  H    0.187401
    10  H    0.178504
    11  H    0.427947
    12  H    0.385438
    13  H    0.267126
    14  H    0.312378
    15  H    0.356032
 Sum of Mulliken charges =  -0.00000

 Dipole moment (field-independent basis, Debye):
    X=              2.8200    Y=             -2.0452    Z=             -0.6113  Tot=              3.5368
 Quadrupole moment (field-independent basis, Debye-Ang):
   XX=            -38.7063   YY=            -45.2583   ZZ=            -40.8608
   XY=             -1.9918   XZ=             -2.2565   YZ=              0.3004

 Normal termination of Gaussian 09 at Tue Aug 23 19:29:16 2022.
