 Gaussian 09, Revision E.01,
 Gaussian 09:  ES64L-G09RevE.01 30-Nov-2015

 -----
 #P G4
 -----

 --------
 Frag_600
 --------
 Symbolic Z-matrix:
 Charge =  0 Multiplicity = 1

 SCF Done:  E(RB3LYP) =  -322.523526560     A.U. after   15 cycles
 SCF Done:  E(RB3LYP) =  -322.543882845     A.U. after   13 cycles
 SCF Done:  E(RB3LYP) =  -322.546778597     A.U. after   12 cycles
 SCF Done:  E(RB3LYP) =  -322.546950332     A.U. after   10 cycles
 SCF Done:  E(RB3LYP) =  -322.546967030     A.U. after    9 cycles
 SCF Done:  E(RB3LYP) =  -322.546967725     A.U. after    8 cycles
 SCF Done:  E(RB3LYP) =  -322.546967575     A.U. after    8 cycles
 Optimization completed.
    -- Stationary point found.
 Normal termination of Gaussian 09 at Wed Aug 24 18:22:11 2022.

 ----------------------------------------------------------
 #P Geom=AllCheck Guess=TCheck SCRF=Check B3LYP/GTBas3 Freq
 ----------------------------------------------------------

 Structure from the checkpoint file:  "G4.Frag_600.chk"
 --------
 Frag_600
 --------
 Charge =  0 Multiplicity = 1

 SCF Done:  E(RB3LYP) =  -322.546967575     A.U. after    1 cycles

  Exact polarizability:  50.163   3.053  55.768  -0.000  -0.000  27.994
 Approx polarizability:  64.640   8.285 100.967  -0.003  -0.011  42.834

                      1                      2                      3
                      A                      A                      A
 Frequencies --     88.0108               129.2801               271.3949
 Red. masses --      1.5010                 2.1645                 3.6331
 Frc consts  --      0.0069                 0.0213                 0.1577
 IR Inten    --      3.5869                 1.0413                21.4077

                      4                      5                      6
                      A                      A                      A
 Frequencies --    386.9360               403.9901               509.7689
 Red. masses --      3.1834                 4.4738                 3.9749
 Frc consts  --      0.2808                 0.4302                 0.6086
 IR Inten    --      0.0069                15.1694                15.4665

                      7                      8                      9
                      A                      A                      A
 Frequencies --    601.4770               684.5773               711.3136
 Red. masses --      4.6333                 1.5119                 1.5278
 Frc consts  --      0.9876                 0.4175                 0.4555
 IR Inten    --     10.7513                53.5475                54.8351

                     10                     11                     12
                      A                      A                      A
 Frequencies --    744.1997               919.8197               982.7094
 Red. masses --      3.5255                 1.3714                 1.9270
 Frc consts  --      1.1504                 0.6836                 1.0964
 IR Inten    --     19.4195                50.0789                13.6981

                     13                     14                     15
                      A                      A                      A
 Frequencies --   1051.4990              1112.6704              1201.0053
 Red. masses --      1.8816                 2.7646                 1.9350
 Frc consts  --      1.2258                 2.0166                 1.6444
 IR Inten    --     14.8091                29.8354                38.7339

                     16                     17                     18
                      A                      A                      A
 Frequencies --   1284.4809              1386.3494              1442.3784
 Red. masses --      1.4817                 1.3023                 2.1333
 Frc consts  --      1.4403                 1.4747                 2.6150
 IR Inten    --    155.6895               103.4199               232.0799

                     19                     20                     21
                      A                      A                      A
 Frequencies --   1454.6045              1459.3181              1762.3689
 Red. masses --      1.1687                 1.0479                 8.0702
 Frc consts  --      1.4569                 1.3148                14.7683
 IR Inten    --     19.8270                 7.5763                15.4750

                     22                     23                     24
                      A                      A                      A
 Frequencies --   1788.2443              3056.0751              3119.2942
 Red. masses --      9.5615                 1.0350                 1.0971
 Frc consts  --     18.0148                 5.6953                 6.2891
 IR Inten    --    191.2269                 0.0832                 0.7493

                     25                     26                     27
                      A                      A                      A
 Frequencies --   3164.2231              3463.4263              3604.8854
 Red. masses --      1.1051                 1.0739                 1.0638
 Frc consts  --      6.5188                 7.5900                 8.1451
 IR Inten    --      7.9125                 3.6846               118.0153

 - Thermochemistry -
 -------------------
 Temperature   298.150 Kelvin.  Pressure   1.00000 Atm.
 Atom     1 has atomic number  6 and mass  12.00000

 Molecular mass:    87.03203 amu.
 Principal axes and moments of inertia in atomic units:
                           1         2         3
     Eigenvalues --   330.83774 503.42429 823.27064
           X            0.99628  -0.08619  -0.00001
           Y            0.08619   0.99628   0.00002
           Z            0.00000  -0.00002   1.00000
 This molecule is an asymmetric top.
 Rotational symmetry number  1.
 Rotational temperatures (Kelvin)      0.26180     0.17205     0.10521
 Rotational constants (GHZ):           5.45506     3.58493     2.19216
 Zero-point vibrational energy     220019.0 (Joules/Mol)
                                   52.58580 (Kcal/Mol)
 Warning -- explicit consideration of   7 degrees of freedom as
           vibrations may cause significant error
 Vibrational temperatures:    126.63   186.01   390.48   556.71   581.25
          (Kelvin)            733.44   865.39   984.95  1023.42  1070.74
                             1323.41  1413.90  1512.87  1600.88  1727.98
                             1848.08  1994.65  2075.26  2092.85  2099.63
                             2535.65  2572.88  4397.00  4487.96  4552.61
                             4983.09  5186.62

 Zero-point correction=                           0.083801 (Hartree/Particle)
 Thermal correction to Energy=                    0.090057
 Thermal correction to Enthalpy=                  0.091001
 Thermal correction to Gibbs Free Energy=         0.053754
 Sum of electronic and zero-point Energies=           -322.463167
 Sum of electronic and thermal Energies=              -322.456911
 Sum of electronic and thermal Enthalpies=            -322.455967
 Sum of electronic and thermal Free Energies=         -322.493214

                     E (Thermal)             CV                S
                      KCal/Mol        Cal/Mol-Kelvin    Cal/Mol-Kelvin
 Total                   56.511             21.456             78.393
 Electronic               0.000              0.000              0.000
 Translational            0.889              2.981             39.304
 Rotational               0.889              2.981             26.419
 Vibrational             54.734             15.494             12.669
 Vibration     1          0.601              1.958              3.704
 Vibration     2          0.612              1.924              2.957
 Vibration     3          0.675              1.726              1.587
 Vibration     4          0.755              1.498              1.012
 Vibration     5          0.769              1.462              0.948
 Vibration     6          0.865              1.228              0.634
 Vibration     7          0.960              1.029              0.447

 Optimization completed.
    -- Stationary point found.
 Normal termination of Gaussian 09 at Wed Aug 24 18:24:05 2022.

 -----------------------------------------------------------------
 #P Geom=AllCheck Guess=TCheck SCRF=Check CCSD(T,E4T,FrzG4)/GTBas1
 -----------------------------------------------------------------

 Structure from the checkpoint file:  "G4.Frag_600.chk"
 --------
 Frag_600
 --------
 Charge =  0 Multiplicity = 1

 SCF Done:  E(RHF) =  -320.679897358     A.U. after   13 cycles
 E2 =    -0.8958596481D+00 EUMP2 =    -0.32157575700580D+03
 CCSD(T)
 CCSD(T)= -0.32163901773D+03
 4994\MP4SDQ=-321.609862\CCSD=-321.6077097\CCSD(T)=-321.6390177\RMSD=7.
 Normal termination of Gaussian 09 at Wed Aug 24 18:29:10 2022.

 ---------------------------------------------------------
 #P Geom=AllCheck Guess=TCheck SCRF=Check MP4=FrzG4/GTBas2
 ---------------------------------------------------------

 Structure from the checkpoint file:  "G4.Frag_600.chk"
 --------
 Frag_600
 --------
 Charge =  0 Multiplicity = 1

 SCF Done:  E(RHF) =  -320.689651538     A.U. after   12 cycles
 E2 =    -0.9085960971D+00 EUMP2 =    -0.32159824763552D+03
 Normal termination of Gaussian 09 at Wed Aug 24 18:35:06 2022.

 ---------------------------------------------------------
 #P Geom=AllCheck Guess=TCheck SCRF=Check MP4=FrzG4/GTBas3
 ---------------------------------------------------------

 Structure from the checkpoint file:  "G4.Frag_600.chk"
 --------
 Frag_600
 --------
 Charge =  0 Multiplicity = 1

 SCF Done:  E(RHF) =  -320.719254774     A.U. after   12 cycles
 E2 =    -0.1088218875D+01 EUMP2 =    -0.32180747364948D+03
 Normal termination of Gaussian 09 at Wed Aug 24 20:13:21 2022.

 -----------------------------------------------------------
 #P Geom=AllCheck Guess=TCheck SCRF=Check MP2=Full/GTLargeXP
 -----------------------------------------------------------

 Structure from the checkpoint file:  "G4.Frag_600.chk"
 --------
 Frag_600
 --------
 Charge =  0 Multiplicity = 1

 SCF Done:  E(RHF) =  -320.804826728     A.U. after   12 cycles
 E2 =    -0.1426098805D+01 EUMP2 =    -0.32223092553295D+03
 Normal termination of Gaussian 09 at Wed Aug 24 20:17:27 2022.
 SCF Done:  E(RHF) =  -320.830144253     A.U. after    9 cycles
 Normal termination of Gaussian 09 at Wed Aug 24 20:21:52 2022.

                         Standard orientation:
 ---------------------------------------------------------------------
 Center     Atomic      Atomic             Coordinates (Angstroms)
 Number     Number       Type             X           Y           Z
 ---------------------------------------------------------------------
      1          6           0       -1.778240    0.784663    0.000036
      2          6           0       -0.689247   -0.247307   -0.000909
      3          8           0       -0.882103   -1.447616    0.000492
      4          6           0        0.756093    0.222312   -0.000039
      5          7           0        1.034177    1.459315    0.000195
      6          8           0        1.631278   -0.794453   -0.000024
      7          1           0       -2.752317    0.295300    0.000723
      8          1           0       -1.671774    1.434389    0.873769
      9          1           0       -1.673020    1.434448   -0.873793
     10          1           0        2.046372    1.604315    0.000436
     11          1           0        1.086460   -1.605105   -0.000784
 ---------------------------------------------------------------------

 SCF Done:  E(RHF) =  -320.835423379     A.U. after    8 cycles

 The electronic state is 1-A.
 Alpha  occ. eigenvalues --  -20.60858 -20.58617 -15.56523 -11.36560 -11.35960
 Alpha  occ. eigenvalues --  -11.24745  -1.45716  -1.41121  -1.21898  -1.03485
 Alpha  occ. eigenvalues --   -0.90354  -0.79380  -0.73691  -0.70506  -0.64254
 Alpha  occ. eigenvalues --   -0.63809  -0.61038  -0.59525  -0.55585  -0.52540
 Alpha  occ. eigenvalues --   -0.49731  -0.44544  -0.42897
 Alpha virt. eigenvalues --    0.03817   0.04451   0.05157   0.05282   0.06803
 Alpha virt. eigenvalues --    0.06941   0.06968   0.07535   0.08575   0.08720
 Alpha virt. eigenvalues --    0.09988   0.12138   0.13737   0.13960   0.14637

 Mulliken charges:
               1
     1  C   -0.551286
     2  C    0.492127
     3  O   -0.545239
     4  C    0.402032
     5  N   -0.633753
     6  O   -0.548942
     7  H    0.212990
     8  H    0.221218
     9  H    0.221151
    10  H    0.310058
    11  H    0.419645
 Sum of Mulliken charges =  -0.00000

 Dipole moment (field-independent basis, Debye):
    X=             -0.5875    Y=              0.6641    Z=             -0.0032  Tot=              0.8867
 Quadrupole moment (field-independent basis, Debye-Ang):
   XX=            -33.7204   YY=            -39.1465   ZZ=            -34.8681
   XY=             -2.3907   XZ=              0.0005   YZ=              0.0055

 Normal termination of Gaussian 09 at Wed Aug 24 22:23:06 2022.
