 Gaussian 09, Revision E.01,
 Gaussian 09:  ES64L-G09RevE.01 30-Nov-2015

 -----
 #P G4
 -----

 --------
 Frag_622
 --------
 Symbolic Z-matrix:
 Charge =  0 Multiplicity = 1

 SCF Done:  E(RB3LYP) =  -229.821085798     A.U. after   12 cycles
 SCF Done:  E(RB3LYP) =  -229.825309533     A.U. after   11 cycles
 SCF Done:  E(RB3LYP) =  -229.825634415     A.U. after   10 cycles
 SCF Done:  E(RB3LYP) =  -229.825697866     A.U. after    9 cycles
 SCF Done:  E(RB3LYP) =  -229.825710190     A.U. after    9 cycles
 SCF Done:  E(RB3LYP) =  -229.825711585     A.U. after    7 cycles
 SCF Done:  E(RB3LYP) =  -229.825711932     A.U. after    6 cycles
 Optimization completed.
    -- Stationary point found.
 Normal termination of Gaussian 09 at Tue Aug 23 06:11:57 2022.

 ----------------------------------------------------------
 #P Geom=AllCheck Guess=TCheck SCRF=Check B3LYP/GTBas3 Freq
 ----------------------------------------------------------

 Structure from the checkpoint file:  "G4.Frag_622.chk"
 --------
 Frag_622
 --------
 Charge =  0 Multiplicity = 1

 SCF Done:  E(RB3LYP) =  -229.825711932     A.U. after    1 cycles

  Exact polarizability:  57.397   0.051  48.974   0.143  -0.198  43.944
 Approx polarizability:  71.760   0.155  65.177  -0.147   0.193  65.256

                      1                      2                      3
                      A                      A                      A
 Frequencies --    138.9086               219.1760               233.7573
 Red. masses --      2.5336                 1.0547                 1.1221
 Frc consts  --      0.0288                 0.0299                 0.0361
 IR Inten    --      5.0216                 0.3130                 6.1349

                      4                      5                      6
                      A                      A                      A
 Frequencies --    271.3138               290.6130               351.9477
 Red. masses --      1.1365                 2.2868                 2.1881
 Frc consts  --      0.0493                 0.1138                 0.1597
 IR Inten    --     27.1767                 4.8126                 0.2890

                      7                      8                      9
                      A                      A                      A
 Frequencies --    469.6894               505.8472               777.2475
 Red. masses --      2.1073                 3.2246                 1.9337
 Frc consts  --      0.2739                 0.4861                 0.6883
 IR Inten    --      6.5563                 9.2799                26.8780

                     10                     11                     12
                      A                      A                      A
 Frequencies --    831.3561               922.3060               931.8174
 Red. masses --      1.9287                 1.6376                 1.2786
 Frc consts  --      0.7854                 0.8207                 0.6541
 IR Inten    --     14.6408                38.2365                16.6218

                     13                     14                     15
                      A                      A                      A
 Frequencies --    961.0261              1001.0934              1125.9251
 Red. masses --      1.3584                 1.7293                 1.8361
 Frc consts  --      0.7392                 1.0211                 1.3714
 IR Inten    --      3.3834                34.9236                20.1888

                     16                     17                     18
                      A                      A                      A
 Frequencies --   1163.7159              1179.2696              1211.1356
 Red. masses --      2.0443                 1.8752                 1.8468
 Frc consts  --      1.6311                 1.5365                 1.5960
 IR Inten    --      4.9917                 2.1353                 3.7423

                     19                     20                     21
                      A                      A                      A
 Frequencies --   1308.7312              1356.8543              1385.4551
 Red. masses --      1.3408                 1.3539                 1.2458
 Frc consts  --      1.3530                 1.4685                 1.4089
 IR Inten    --     18.7440                 3.1900                 4.5163

                     22                     23                     24
                      A                      A                      A
 Frequencies --   1393.8300              1411.8455              1475.7405
 Red. masses --      1.3354                 1.2695                 1.0602
 Frc consts  --      1.5286                 1.4909                 1.3603
 IR Inten    --     14.8923                10.3506                 3.8317

                     25                     26                     27
                      A                      A                      A
 Frequencies --   1489.3975              1490.9250              1510.8093
 Red. masses --      1.0667                 1.0508                 1.1353
 Frc consts  --      1.3942                 1.3761                 1.5268
 IR Inten    --      3.9847                 0.2092                 1.5366

                     28                     29                     30
                      A                      A                      A
 Frequencies --   1515.8217              1669.6305              2913.1236
 Red. masses --      1.0816                 1.0856                 1.0810
 Frc consts  --      1.4643                 1.7831                 5.4052
 IR Inten    --      3.2057                 8.4395                70.8297

                     31                     32                     33
                      A                      A                      A
 Frequencies --   3027.1002              3037.2484              3092.2452
 Red. masses --      1.0374                 1.0367                 1.0984
 Frc consts  --      5.6009                 5.6346                 6.1879
 IR Inten    --     27.6948                18.9209                32.4577

                     34                     35                     36
                      A                      A                      A
 Frequencies --   3103.4660              3116.1262              3133.1231
 Red. masses --      1.1017                 1.1011                 1.0994
 Frc consts  --      6.2521                 6.2994                 6.3586
 IR Inten    --     20.8229                35.8153                14.7130

                     37                     38                     39
                      A                      A                      A
 Frequencies --   3411.0537              3433.8149              3551.0539
 Red. masses --      1.0585                 1.0705                 1.0870
 Frc consts  --      7.2561                 7.4366                 8.0756
 IR Inten    --     20.8102                 6.9102                 0.4073

 - Thermochemistry -
 -------------------
 Temperature   298.150 Kelvin.  Pressure   1.00000 Atm.
 Atom     1 has atomic number  6 and mass  12.00000

 Molecular mass:    74.08440 amu.
 Principal axes and moments of inertia in atomic units:
                           1         2         3
     Eigenvalues --   236.67946 493.85912 659.65482
           X            0.99998  -0.00443   0.00528
           Y            0.00450   0.99989  -0.01411
           Z           -0.00521   0.01413   0.99989
 This molecule is an asymmetric top.
 Rotational symmetry number  1.
 Rotational temperatures (Kelvin)      0.36595     0.17538     0.13130
 Rotational constants (GHZ):           7.62525     3.65436     2.73589
 Zero-point vibrational energy     361353.2 (Joules/Mol)
                                   86.36549 (Kcal/Mol)
 Warning -- explicit consideration of   8 degrees of freedom as
           vibrations may cause significant error
 Vibrational temperatures:    199.86   315.35   336.32   390.36   418.13
          (Kelvin)            506.37   675.78   727.80  1118.28  1196.13
                             1326.99  1340.68  1382.70  1440.35  1619.95
                             1674.33  1696.70  1742.55  1882.97  1952.21
                             1993.36  2005.41  2031.33  2123.26  2142.91
                             2145.11  2173.71  2180.93  2402.22  4191.33
                             4355.32  4369.92  4449.05  4465.19  4483.40
                             4507.86  4907.74  4940.49  5109.17

 Zero-point correction=                           0.137632 (Hartree/Particle)
 Thermal correction to Energy=                    0.144362
 Thermal correction to Enthalpy=                  0.145306
 Thermal correction to Gibbs Free Energy=         0.108187
 Sum of electronic and zero-point Energies=           -229.688080
 Sum of electronic and thermal Energies=              -229.681350
 Sum of electronic and thermal Enthalpies=            -229.680406
 Sum of electronic and thermal Free Energies=         -229.717525

                     E (Thermal)             CV                S
                      KCal/Mol        Cal/Mol-Kelvin    Cal/Mol-Kelvin
 Total                   90.589             23.950             78.124
 Electronic               0.000              0.000              0.000
 Translational            0.889              2.981             38.824
 Rotational               0.889              2.981             25.847
 Vibrational             88.811             17.988             13.452
 Vibration     1          0.615              1.914              2.819
 Vibration     2          0.647              1.812              1.966
 Vibration     3          0.654              1.789              1.850
 Vibration     4          0.675              1.726              1.588
 Vibration     5          0.687              1.691              1.470
 Vibration     6          0.728              1.571              1.157
 Vibration     7          0.827              1.317              0.738
 Vibration     8          0.861              1.237              0.644

 Optimization completed.
    -- Stationary point found.
 Normal termination of Gaussian 09 at Tue Aug 23 06:14:02 2022.

 -----------------------------------------------------------------
 #P Geom=AllCheck Guess=TCheck SCRF=Check CCSD(T,E4T,FrzG4)/GTBas1
 -----------------------------------------------------------------

 Structure from the checkpoint file:  "G4.Frag_622.chk"
 --------
 Frag_622
 --------
 Charge =  0 Multiplicity = 1

 SCF Done:  E(RHF) =  -228.273692069     A.U. after   11 cycles
 E2 =    -0.7243030940D+00 EUMP2 =    -0.22899799516337D+03
 CCSD(T)
 CCSD(T)= -0.22907693267D+03
 29.0556259\CCSD(T)=-229.0769327\RMSD=7.686e-09\PG=C01 [X(C3H10N2)]\\@
 Normal termination of Gaussian 09 at Tue Aug 23 06:17:21 2022.

 ---------------------------------------------------------
 #P Geom=AllCheck Guess=TCheck SCRF=Check MP4=FrzG4/GTBas2
 ---------------------------------------------------------

 Structure from the checkpoint file:  "G4.Frag_622.chk"
 --------
 Frag_622
 --------
 Charge =  0 Multiplicity = 1

 SCF Done:  E(RHF) =  -228.280663659     A.U. after   12 cycles
 E2 =    -0.7353894810D+00 EUMP2 =    -0.22901605313975D+03
 Normal termination of Gaussian 09 at Tue Aug 23 06:21:25 2022.

 ---------------------------------------------------------
 #P Geom=AllCheck Guess=TCheck SCRF=Check MP4=FrzG4/GTBas3
 ---------------------------------------------------------

 Structure from the checkpoint file:  "G4.Frag_622.chk"
 --------
 Frag_622
 --------
 Charge =  0 Multiplicity = 1

 SCF Done:  E(RHF) =  -228.307702749     A.U. after   11 cycles
 E2 =    -0.9004954700D+00 EUMP2 =    -0.22920819821935D+03
 Normal termination of Gaussian 09 at Tue Aug 23 07:49:10 2022.

 -----------------------------------------------------------
 #P Geom=AllCheck Guess=TCheck SCRF=Check MP2=Full/GTLargeXP
 -----------------------------------------------------------

 Structure from the checkpoint file:  "G4.Frag_622.chk"
 --------
 Frag_622
 --------
 Charge =  0 Multiplicity = 1

 SCF Done:  E(RHF) =  -228.363178881     A.U. after   11 cycles
 E2 =    -0.1177694840D+01 EUMP2 =    -0.22954087372119D+03
 Normal termination of Gaussian 09 at Tue Aug 23 07:53:01 2022.
 SCF Done:  E(RHF) =  -228.381364117     A.U. after    9 cycles
 Normal termination of Gaussian 09 at Tue Aug 23 07:57:32 2022.

                         Standard orientation:
 ---------------------------------------------------------------------
 Center     Atomic      Atomic             Coordinates (Angstroms)
 Number     Number       Type             X           Y           Z
 ---------------------------------------------------------------------
      1          6           0       -0.628140    1.462168   -0.102475
      2          6           0       -0.432118    0.006219    0.320536
      3          6           0       -1.649589   -0.855832   -0.015725
      4          7           0        0.733778   -0.560261   -0.369680
      5          7           0        1.948294    0.019171    0.113156
      6          1           0        0.284489    2.031787    0.084148
      7          1           0       -1.449714    1.921114    0.456992
      8          1           0       -0.858126    1.519452   -1.171739
      9          1           0       -0.283523   -0.015135    1.416975
     10          1           0       -1.517237   -1.890163    0.323808
     11          1           0       -1.819056   -0.872394   -1.097440
     12          1           0       -2.547299   -0.460406    0.467673
     13          1           0        0.733791   -1.569118   -0.226081
     14          1           0        2.292434   -0.469536    0.940555
     15          1           0        2.648816   -0.083307   -0.613232
 ---------------------------------------------------------------------

 SCF Done:  E(RHF) =  -228.385320895     A.U. after    8 cycles

 The electronic state is 1-A.
 Alpha  occ. eigenvalues --  -15.56625 -15.56575 -11.24852 -11.21175 -11.19726
 Alpha  occ. eigenvalues --   -1.26775  -1.08189  -0.96773  -0.92526  -0.77664
 Alpha  occ. eigenvalues --   -0.68240  -0.65486  -0.63825  -0.59221  -0.53626
 Alpha  occ. eigenvalues --   -0.52754  -0.50631  -0.48424  -0.47077  -0.40985
 Alpha  occ. eigenvalues --   -0.38221
 Alpha virt. eigenvalues --    0.03836   0.04479   0.04769   0.05231   0.07087
 Alpha virt. eigenvalues --    0.07688   0.07763   0.08111   0.08867   0.10231
 Alpha virt. eigenvalues --    0.11277   0.11856   0.12311   0.12966   0.14023

 Mulliken charges:
               1
     1  C   -0.548362
     2  C    0.122963
     3  C   -0.545996
     4  N   -0.360342
     5  N   -0.649761
     6  H    0.196766
     7  H    0.151316
     8  H    0.160729
     9  H    0.109212
    10  H    0.144110
    11  H    0.176352
    12  H    0.168719
    13  H    0.273308
    14  H    0.280670
    15  H    0.320318
 Sum of Mulliken charges =  -0.00000

 Dipole moment (field-independent basis, Debye):
    X=              0.4375    Y=             -1.6035    Z=              0.9131  Tot=              1.8964
 Quadrupole moment (field-independent basis, Debye-Ang):
   XX=            -30.1105   YY=            -33.1608   ZZ=            -34.0698
   XY=             -2.8541   XZ=              0.0972   YZ=             -1.1038

 Normal termination of Gaussian 09 at Tue Aug 23 09:57:24 2022.
