 Gaussian 09, Revision E.01,
 Gaussian 09:  ES64L-G09RevE.01 30-Nov-2015

 -----
 #P G4
 -----

 ---------
 Frag_1085
 ---------
 Symbolic Z-matrix:
 Charge =  0 Multiplicity = 1

 SCF Done:  E(RB3LYP) =  -304.986392091     A.U. after   12 cycles
 SCF Done:  E(RB3LYP) =  -304.993068136     A.U. after   11 cycles
 SCF Done:  E(RB3LYP) =  -304.994676419     A.U. after   11 cycles
 SCF Done:  E(RB3LYP) =  -304.995186124     A.U. after   11 cycles
 SCF Done:  E(RB3LYP) =  -304.995344742     A.U. after   11 cycles
 SCF Done:  E(RB3LYP) =  -304.995365156     A.U. after   10 cycles
 SCF Done:  E(RB3LYP) =  -304.995371034     A.U. after    8 cycles
 SCF Done:  E(RB3LYP) =  -304.995371897     A.U. after    7 cycles
 SCF Done:  E(RB3LYP) =  -304.995371974     A.U. after    6 cycles
 Optimization completed.
    -- Stationary point found.
 Normal termination of Gaussian 09 at Mon Aug 22 09:27:09 2022.

 ----------------------------------------------------------
 #P Geom=AllCheck Guess=TCheck SCRF=Check B3LYP/GTBas3 Freq
 ----------------------------------------------------------

 Structure from the checkpoint file:  "G4.Frag_1085.chk"
 ---------
 Frag_1085
 ---------
 Charge =  0 Multiplicity = 1

 SCF Done:  E(RB3LYP) =  -304.995371974     A.U. after    1 cycles

  Exact polarizability:  61.087  -0.201  54.597  -0.201  -0.768  48.844
 Approx polarizability:  77.713  -2.359  76.514   2.098  -3.408  73.188

                      1                      2                      3
                      A                      A                      A
 Frequencies --    111.6202               205.9423               219.7817
 Red. masses --      2.2845                 1.1112                 1.2325
 Frc consts  --      0.0168                 0.0278                 0.0351
 IR Inten    --      0.7494                 1.5191                 3.5453

                      4                      5                      6
                      A                      A                      A
 Frequencies --    241.8353               276.7636               315.1115
 Red. masses --      1.1397                 2.0931                 1.8828
 Frc consts  --      0.0393                 0.0945                 0.1101
 IR Inten    --      1.7425                 7.8187                29.4968

                      7                      8                      9
                      A                      A                      A
 Frequencies --    325.2366               379.2638               442.7833
 Red. masses --      1.4993                 2.1380                 2.3692
 Frc consts  --      0.0934                 0.1812                 0.2737
 IR Inten    --     48.9908                 3.7675                 1.0258

                     10                     11                     12
                      A                      A                      A
 Frequencies --    538.6823               594.9120               754.9609
 Red. masses --      3.1612                 3.9375                 6.2028
 Frc consts  --      0.5405                 0.8211                 2.0830
 IR Inten    --      9.3406                11.0127                33.4694

                     13                     14                     15
                      A                      A                      A
 Frequencies --    776.6722               959.6232              1038.1364
 Red. masses --      4.3458                 3.0417                 1.6487
 Frc consts  --      1.5445                 1.6503                 1.0469
 IR Inten    --     56.9481                27.5961                13.1587

                     16                     17                     18
                      A                      A                      A
 Frequencies --   1106.7024              1120.5782              1146.6581
 Red. masses --      1.2326                 2.3285                 1.3875
 Frc consts  --      0.8895                 1.7227                 1.0748
 IR Inten    --      2.4505                 6.9772                10.9954

                     19                     20                     21
                      A                      A                      A
 Frequencies --   1173.9296              1206.3364              1252.4813
 Red. masses --      1.5627                 1.9255                 2.7543
 Frc consts  --      1.2688                 1.6509                 2.5456
 IR Inten    --      8.2185                 4.5304                 6.9142

                     22                     23                     24
                      A                      A                      A
 Frequencies --   1285.3199              1339.9030              1423.3461
 Red. masses --      2.2242                 1.3876                 1.1657
 Frc consts  --      2.1649                 1.4677                 1.3914
 IR Inten    --     12.4147                34.6401                 0.1776

                     25                     26                     27
                      A                      A                      A
 Frequencies --   1434.2528              1453.6246              1472.6803
 Red. masses --      1.1799                 1.1698                 1.0533
 Frc consts  --      1.4301                 1.4564                 1.3460
 IR Inten    --      0.4981                 0.5780                 4.4731

                     28                     29                     30
                      A                      A                      A
 Frequencies --   1480.2196              1490.8759              1501.0553
 Red. masses --      1.0525                 1.0558                 1.0494
 Frc consts  --      1.3586                 1.3827                 1.3931
 IR Inten    --      8.8312                 9.5571                 3.0024

                     31                     32                     33
                      A                      A                      A
 Frequencies --   1510.6374              1516.1727              2966.4042
 Red. masses --      1.0520                 1.0494                 1.0554
 Frc consts  --      1.4145                 1.4213                 5.4718
 IR Inten    --      3.1078                 6.3987                60.3085

                     34                     35                     36
                      A                      A                      A
 Frequencies --   3008.7947              3014.1109              3076.7622
 Red. masses --      1.0446                 1.0477                 1.0775
 Frc consts  --      5.5717                 5.6080                 6.0096
 IR Inten    --     30.9844                46.9173                25.5981

                     37                     38                     39
                      A                      A                      A
 Frequencies --   3092.4480              3102.0624              3128.1295
 Red. masses --      1.0890                 1.0854                 1.1006
 Frc consts  --      6.1360                 6.1537                 6.3455
 IR Inten    --     28.1012                26.9305                21.4167

                     40                     41                     42
                      A                      A                      A
 Frequencies --   3130.0507              3144.9284              3811.8523
 Red. masses --      1.1021                 1.1044                 1.0680
 Frc consts  --      6.3618                 6.4356                 9.1433
 IR Inten    --     21.3020                15.9499                35.4539

 - Thermochemistry -
 -------------------
 Temperature   298.150 Kelvin.  Pressure   1.00000 Atm.
 Atom     1 has atomic number  6 and mass  12.00000

 Molecular mass:    90.07931 amu.
 Principal axes and moments of inertia in atomic units:
                           1         2         3
     Eigenvalues --   372.51299 627.56001 693.94700
           X            0.99865   0.04534  -0.02530
           Y           -0.04274   0.99451   0.09550
           Z            0.02949  -0.09429   0.99511
 This molecule is an asymmetric top.
 Rotational symmetry number  1.
 Rotational temperatures (Kelvin)      0.23251     0.13802     0.12481
 Rotational constants (GHZ):           4.84477     2.87581     2.60069
 Zero-point vibrational energy     368280.2 (Joules/Mol)
                                   88.02108 (Kcal/Mol)
 Warning -- explicit consideration of  11 degrees of freedom as
           vibrations may cause significant error
 Vibrational temperatures:    160.60   296.30   316.22   347.95   398.20
          (Kelvin)            453.37   467.94   545.68   637.07   775.04
                              855.94  1086.22  1117.46  1380.68  1493.64
                             1592.30  1612.26  1649.78  1689.02  1735.65
                             1802.04  1849.29  1927.82  2047.88  2063.57
                             2091.44  2118.86  2129.70  2145.04  2159.68
                             2173.47  2181.43  4267.99  4328.98  4336.63
                             4426.77  4449.34  4463.17  4500.67  4503.44
                             4524.84  5484.40

 Zero-point correction=                           0.140271 (Hartree/Particle)
 Thermal correction to Energy=                    0.148037
 Thermal correction to Enthalpy=                  0.148981
 Thermal correction to Gibbs Free Energy=         0.109428
 Sum of electronic and zero-point Energies=           -304.855101
 Sum of electronic and thermal Energies=              -304.847335
 Sum of electronic and thermal Enthalpies=            -304.846391
 Sum of electronic and thermal Free Energies=         -304.885944

                     E (Thermal)             CV                S
                      KCal/Mol        Cal/Mol-Kelvin    Cal/Mol-Kelvin
 Total                   92.894             27.983             83.247
 Electronic               0.000              0.000              0.000
 Translational            0.889              2.981             39.407
 Rotational               0.889              2.981             26.586
 Vibrational             91.117             22.021             17.254
 Vibration     1          0.607              1.940              3.241
 Vibration     2          0.640              1.831              2.079
 Vibration     3          0.647              1.811              1.961
 Vibration     4          0.658              1.776              1.789
 Vibration     5          0.678              1.716              1.554
 Vibration     6          0.702              1.645              1.335
 Vibration     7          0.709              1.625              1.284
 Vibration     8          0.749              1.514              1.042
 Vibration     9          0.802              1.377              0.818
 Vibration    10          0.894              1.165              0.568
 Vibration    11          0.953              1.043              0.458

 Optimization completed.
    -- Stationary point found.
 Normal termination of Gaussian 09 at Mon Aug 22 09:30:15 2022.

 -----------------------------------------------------------------
 #P Geom=AllCheck Guess=TCheck SCRF=Check CCSD(T,E4T,FrzG4)/GTBas1
 -----------------------------------------------------------------

 Structure from the checkpoint file:  "G4.Frag_1085.chk"
 ---------
 Frag_1085
 ---------
 Charge =  0 Multiplicity = 1

 SCF Done:  E(RHF) =  -303.068433579     A.U. after   13 cycles
 E2 =    -0.9088492489D+00 EUMP2 =    -0.30397728282833D+03
 CCSD(T)
 CCSD(T)= -0.30406327255D+03
 DTQ=-304.0625586\MP4SDQ=-304.0337386\CCSD=-304.0346557\CCSD(T)=-304.06
 Normal termination of Gaussian 09 at Mon Aug 22 09:37:05 2022.

 ---------------------------------------------------------
 #P Geom=AllCheck Guess=TCheck SCRF=Check MP4=FrzG4/GTBas2
 ---------------------------------------------------------

 Structure from the checkpoint file:  "G4.Frag_1085.chk"
 ---------
 Frag_1085
 ---------
 Charge =  0 Multiplicity = 1

 SCF Done:  E(RHF) =  -303.076720786     A.U. after   12 cycles
 E2 =    -0.9235555733D+00 EUMP2 =    -0.30400027635968D+03
 Normal termination of Gaussian 09 at Mon Aug 22 09:46:48 2022.

 ---------------------------------------------------------
 #P Geom=AllCheck Guess=TCheck SCRF=Check MP4=FrzG4/GTBas3
 ---------------------------------------------------------

 Structure from the checkpoint file:  "G4.Frag_1085.chk"
 ---------
 Frag_1085
 ---------
 Charge =  0 Multiplicity = 1

 SCF Done:  E(RHF) =  -303.106699636     A.U. after   12 cycles
 E2 =    -0.1124528009D+01 EUMP2 =    -0.30423122764498D+03
 Normal termination of Gaussian 09 at Mon Aug 22 13:29:59 2022.

 -----------------------------------------------------------
 #P Geom=AllCheck Guess=TCheck SCRF=Check MP2=Full/GTLargeXP
 -----------------------------------------------------------

 Structure from the checkpoint file:  "G4.Frag_1085.chk"
 ---------
 Frag_1085
 ---------
 Charge =  0 Multiplicity = 1

 SCF Done:  E(RHF) =  -303.183930405     A.U. after   12 cycles
 E2 =    -0.1465002975D+01 EUMP2 =    -0.30464893337971D+03
 Normal termination of Gaussian 09 at Mon Aug 22 13:37:19 2022.
 SCF Done:  E(RHF) =  -303.207955720     A.U. after    9 cycles
 Normal termination of Gaussian 09 at Mon Aug 22 13:44:27 2022.

                         Standard orientation:
 ---------------------------------------------------------------------
 Center     Atomic      Atomic             Coordinates (Angstroms)
 Number     Number       Type             X           Y           Z
 ---------------------------------------------------------------------
      1          6           0       -0.884774    1.241663    0.656733
      2          7           0       -0.619848    0.258021   -0.396694
      3          6           0       -1.687425   -0.725679   -0.508037
      4          7           0        0.619056   -0.393943   -0.340125
      5          6           0        1.724792    0.512132   -0.625603
      6          8           0        0.880423   -0.894459    1.017703
      7          1           0       -0.098016    1.998225    0.677688
      8          1           0       -1.826408    1.746130    0.423308
      9          1           0       -0.961795    0.785024    1.653143
     10          1           0       -1.835838   -1.303468    0.419783
     11          1           0       -1.447204   -1.415734   -1.319466
     12          1           0       -2.625119   -0.213125   -0.742516
     13          1           0        1.860486    1.292782    0.135262
     14          1           0        2.641069   -0.079237   -0.674111
     15          1           0        1.536098    0.975134   -1.596049
     16          1           0        0.803317   -1.847299    0.900505
 ---------------------------------------------------------------------

 SCF Done:  E(RHF) =  -303.213216237     A.U. after    7 cycles

 The electronic state is 1-A.
 Alpha  occ. eigenvalues --  -20.57475 -15.63448 -15.57713 -11.24347 -11.24154
 Alpha  occ. eigenvalues --  -11.24051  -1.40242  -1.25029  -1.07994  -0.95642
 Alpha  occ. eigenvalues --   -0.90943  -0.79724  -0.69866  -0.67218  -0.65042
 Alpha  occ. eigenvalues --   -0.60986  -0.58941  -0.56302  -0.54951  -0.53917
 Alpha  occ. eigenvalues --   -0.52395  -0.51502  -0.47850  -0.39622  -0.37203
 Alpha virt. eigenvalues --    0.03804   0.04149   0.04442   0.05175   0.06430
 Alpha virt. eigenvalues --    0.06728   0.07169   0.07725   0.08584   0.09502
 Alpha virt. eigenvalues --    0.10891   0.11579   0.13902   0.14462   0.14848

 Mulliken charges:
               1
     1  C   -0.491265
     2  N    0.039784
     3  C   -0.503007
     4  N    0.046009
     5  C   -0.468461
     6  O   -0.592291
     7  H    0.171340
     8  H    0.177079
     9  H    0.180228
    10  H    0.148234
    11  H    0.189719
    12  H    0.168299
    13  H    0.166732
    14  H    0.179875
    15  H    0.194367
    16  H    0.393358
 Sum of Mulliken charges =  -0.00000

 Dipole moment (field-independent basis, Debye):
    X=             -0.4700    Y=             -0.1731    Z=             -0.1207  Tot=              0.5152
 Quadrupole moment (field-independent basis, Debye-Ang):
   XX=            -36.3762   YY=            -34.4707   ZZ=            -41.3535
   XY=              0.4545   XZ=             -1.6291   YZ=             -0.1825

 Normal termination of Gaussian 09 at Mon Aug 22 16:35:20 2022.
