 Gaussian 09, Revision E.01,
 Gaussian 09:  ES64L-G09RevE.01 30-Nov-2015

 -----
 #P G4
 -----

 --------
 Frag_629
 --------
 Symbolic Z-matrix:
 Charge =  0 Multiplicity = 1

 SCF Done:  E(RB3LYP) =  -340.934817711     A.U. after   12 cycles
 SCF Done:  E(RB3LYP) =  -340.945431990     A.U. after   12 cycles
 SCF Done:  E(RB3LYP) =  -340.946527987     A.U. after   11 cycles
 SCF Done:  E(RB3LYP) =  -340.946796785     A.U. after   11 cycles
 SCF Done:  E(RB3LYP) =  -340.946838759     A.U. after    9 cycles
 SCF Done:  E(RB3LYP) =  -340.946862111     A.U. after    9 cycles
 SCF Done:  E(RB3LYP) =  -340.946891651     A.U. after   10 cycles
 SCF Done:  E(RB3LYP) =  -340.946918760     A.U. after   10 cycles
 SCF Done:  E(RB3LYP) =  -340.946929827     A.U. after   10 cycles
 SCF Done:  E(RB3LYP) =  -340.946930990     A.U. after    7 cycles
 SCF Done:  E(RB3LYP) =  -340.946931309     A.U. after    7 cycles
 SCF Done:  E(RB3LYP) =  -340.946931376     A.U. after    6 cycles
 Optimization completed.
    -- Stationary point found.
 Normal termination of Gaussian 09 at Sun Aug 21 09:12:59 2022.

 ----------------------------------------------------------
 #P Geom=AllCheck Guess=TCheck SCRF=Check B3LYP/GTBas3 Freq
 ----------------------------------------------------------

 Structure from the checkpoint file:  "G4.Frag_629.chk"
 --------
 Frag_629
 --------
 Charge =  0 Multiplicity = 1

 SCF Done:  E(RB3LYP) =  -340.946931376     A.U. after    1 cycles

  Exact polarizability:  52.974   0.674  45.088   0.778  -1.231  40.796
 Approx polarizability:  70.345   2.541  60.185   2.755  -0.338  61.343

                      1                      2                      3
                      A                      A                      A
 Frequencies --    139.1412               186.0159               219.4165
 Red. masses --      3.5841                 1.0813                 1.1423
 Frc consts  --      0.0409                 0.0220                 0.0324
 IR Inten    --      1.0771                48.6085                 4.0293

                      4                      5                      6
                      A                      A                      A
 Frequencies --    239.4751               278.8482               361.3766
 Red. masses --      1.0596                 2.6893                 2.4435
 Frc consts  --      0.0358                 0.1232                 0.1880
 IR Inten    --     24.1640                 7.1503                11.8747

                      7                      8                      9
                      A                      A                      A
 Frequencies --    367.9885               408.5273               487.2233
 Red. masses --      1.8852                 1.6958                 3.4925
 Frc consts  --      0.1504                 0.1668                 0.4885
 IR Inten    --     37.6308                25.0968                19.3206

                     10                     11                     12
                      A                      A                      A
 Frequencies --    532.4487               574.3810               778.3810
 Red. masses --      3.5064                 3.4892                 4.5794
 Frc consts  --      0.5857                 0.6782                 1.6347
 IR Inten    --     37.8966                15.5230                 9.8186

                     13                     14                     15
                      A                      A                      A
 Frequencies --    879.2682               892.3796               956.0288
 Red. masses --      1.8281                 2.4815                 6.1951
 Frc consts  --      0.8327                 1.1643                 3.3361
 IR Inten    --     65.1521               177.7962                16.7676

                     16                     17                     18
                      A                      A                      A
 Frequencies --    983.5116              1033.0350              1101.4238
 Red. masses --      1.3833                 1.7542                 1.7021
 Frc consts  --      0.7883                 1.1030                 1.2166
 IR Inten    --     19.7656                44.7257               144.4152

                     19                     20                     21
                      A                      A                      A
 Frequencies --   1223.6993              1256.3448              1322.9030
 Red. masses --      1.4518                 3.1909                 1.1193
 Frc consts  --      1.2809                 2.9675                 1.1541
 IR Inten    --    105.5909                86.9146                 2.0931

                     22                     23                     24
                      A                      A                      A
 Frequencies --   1343.8726              1366.4839              1408.0860
 Red. masses --      1.8051                 1.4593                 1.6331
 Frc consts  --      1.9207                 1.6055                 1.9077
 IR Inten    --     84.0190                30.2258                42.1917

                     25                     26                     27
                      A                      A                      A
 Frequencies --   1483.7506              1495.3318              1650.5473
 Red. masses --      1.0622                 1.0544                 1.0907
 Frc consts  --      1.3777                 1.3891                 1.7507
 IR Inten    --      0.6577                 1.0071                31.6056

                     28                     29                     30
                      A                      A                      A
 Frequencies --   1665.0147              3054.8239              3131.3412
 Red. masses --      1.0832                 1.0342                 1.1020
 Frc consts  --      1.7693                 5.6865                 6.3662
 IR Inten    --     21.6666                 9.5773                17.6674

                     31                     32                     33
                      A                      A                      A
 Frequencies --   3142.3165              3435.1647              3488.5741
 Red. masses --      1.1029                 1.0478                 1.0499
 Frc consts  --      6.4161                 7.2851                 7.5284
 IR Inten    --     13.9885                 1.0396                 0.6529

                     34                     35                     36
                      A                      A                      A
 Frequencies --   3514.6491              3577.3900              3829.5122
 Red. masses --      1.0954                 1.0906                 1.0652
 Frc consts  --      7.9720                 8.2231                 9.2040
 IR Inten    --      0.4716                 3.3492                42.6658

 - Thermochemistry -
 -------------------
 Temperature   298.150 Kelvin.  Pressure   1.00000 Atm.
 Atom     1 has atomic number  6 and mass  12.00000

 Molecular mass:    92.05858 amu.
 Principal axes and moments of inertia in atomic units:
                           1         2         3
     Eigenvalues --   376.76428 617.04804 631.98975
           X            0.99971  -0.02218  -0.00889
           Y            0.01996   0.97967  -0.19960
           Z            0.01314   0.19937   0.97984
 This molecule is an asymmetric top.
 Rotational symmetry number  1.
 Rotational temperatures (Kelvin)      0.22989     0.14037     0.13705
 Rotational constants (GHZ):           4.79011     2.92480     2.85565
 Zero-point vibrational energy     309884.7 (Joules/Mol)
                                   74.06422 (Kcal/Mol)
 Warning -- explicit consideration of  11 degrees of freedom as
           vibrations may cause significant error
 Vibrational temperatures:    200.19   267.64   315.69   344.55   401.20
          (Kelvin)            519.94   529.45   587.78   701.00   766.07
                              826.41  1119.92  1265.07  1283.93  1375.51
                             1415.05  1486.31  1584.70  1760.63  1807.60
                             1903.36  1933.53  1966.06  2025.92  2134.78
                             2151.45  2374.77  2395.58  4395.20  4505.30
                             4521.09  4942.43  5019.27  5056.79  5147.06
                             5509.81

 Zero-point correction=                           0.118029 (Hartree/Particle)
 Thermal correction to Energy=                    0.125606
 Thermal correction to Enthalpy=                  0.126550
 Thermal correction to Gibbs Free Energy=         0.087434
 Sum of electronic and zero-point Energies=           -340.828903
 Sum of electronic and thermal Energies=              -340.821325
 Sum of electronic and thermal Enthalpies=            -340.820381
 Sum of electronic and thermal Free Energies=         -340.859498

                     E (Thermal)             CV                S
                      KCal/Mol        Cal/Mol-Kelvin    Cal/Mol-Kelvin
 Total                   78.819             27.384             82.327
 Electronic               0.000              0.000              0.000
 Translational            0.889              2.981             39.471
 Rotational               0.889              2.981             26.488
 Vibrational             77.041             21.422             16.368
 Vibration     1          0.615              1.914              2.816
 Vibration     2          0.632              1.859              2.267
 Vibration     3          0.647              1.812              1.964
 Vibration     4          0.657              1.780              1.807
 Vibration     5          0.679              1.713              1.541
 Vibration     6          0.736              1.552              1.116
 Vibration     7          0.741              1.538              1.088
 Vibration     8          0.773              1.452              0.932
 Vibration     9          0.843              1.278              0.691
 Vibration    10          0.887              1.178              0.582
 Vibration    11          0.931              1.087              0.496

 Optimization completed.
    -- Stationary point found.
 Normal termination of Gaussian 09 at Sun Aug 21 09:15:25 2022.

 -----------------------------------------------------------------
 #P Geom=AllCheck Guess=TCheck SCRF=Check CCSD(T,E4T,FrzG4)/GTBas1
 -----------------------------------------------------------------

 Structure from the checkpoint file:  "G4.Frag_629.chk"
 --------
 Frag_629
 --------
 Charge =  0 Multiplicity = 1

 SCF Done:  E(RHF) =  -338.940989846     A.U. after   12 cycles
 E2 =    -0.9517348338D+00 EUMP2 =    -0.33989272468006D+03
 CCSD(T)
 CCSD(T)= -0.33996592709D+03
 DQ=-339.9392817\CCSD=-339.9394469\CCSD(T)=-339.9659271\RMSD=5.512e-09\
 Normal termination of Gaussian 09 at Sun Aug 21 09:21:19 2022.

 ---------------------------------------------------------
 #P Geom=AllCheck Guess=TCheck SCRF=Check MP4=FrzG4/GTBas2
 ---------------------------------------------------------

 Structure from the checkpoint file:  "G4.Frag_629.chk"
 --------
 Frag_629
 --------
 Charge =  0 Multiplicity = 1

 SCF Done:  E(RHF) =  -338.953649446     A.U. after   12 cycles
 E2 =    -0.9696288772D+00 EUMP2 =    -0.33992327832338D+03
 Normal termination of Gaussian 09 at Sun Aug 21 09:29:52 2022.

 ---------------------------------------------------------
 #P Geom=AllCheck Guess=TCheck SCRF=Check MP4=FrzG4/GTBas3
 ---------------------------------------------------------

 Structure from the checkpoint file:  "G4.Frag_629.chk"
 --------
 Frag_629
 --------
 Charge =  0 Multiplicity = 1

 SCF Done:  E(RHF) =  -338.988008508     A.U. after   11 cycles
 E2 =    -0.1175799919D+01 EUMP2 =    -0.34016380842645D+03
 Normal termination of Gaussian 09 at Sun Aug 21 11:12:48 2022.

 -----------------------------------------------------------
 #P Geom=AllCheck Guess=TCheck SCRF=Check MP2=Full/GTLargeXP
 -----------------------------------------------------------

 Structure from the checkpoint file:  "G4.Frag_629.chk"
 --------
 Frag_629
 --------
 Charge =  0 Multiplicity = 1

 SCF Done:  E(RHF) =  -339.083405636     A.U. after   12 cycles
 E2 =    -0.1527178311D+01 EUMP2 =    -0.34061058394637D+03
 Normal termination of Gaussian 09 at Sun Aug 21 11:18:34 2022.
 SCF Done:  E(RHF) =  -339.110489181     A.U. after    9 cycles
 Normal termination of Gaussian 09 at Sun Aug 21 11:24:31 2022.

                         Standard orientation:
 ---------------------------------------------------------------------
 Center     Atomic      Atomic             Coordinates (Angstroms)
 Number     Number       Type             X           Y           Z
 ---------------------------------------------------------------------
      1          6           0       -0.517979    1.479397    0.303237
      2          6           0       -0.416885   -0.013214   -0.013013
      3          7           0       -0.560485   -0.801144    1.187818
      4          8           0       -1.390573   -0.413991   -0.938942
      5          8           0        0.784068   -0.296584   -0.753268
      6          7           0        1.927764    0.003413    0.060131
      7          1           0       -1.454749    1.686566    0.826400
      8          1           0       -0.502124    2.037611   -0.635031
      9          1           0        0.315329    1.805165    0.930443
     10          1           0        0.123086   -0.500144    1.875640
     11          1           0       -0.350490   -1.769856    0.958322
     12          1           0       -2.167641   -0.637935   -0.416151
     13          1           0        2.440891    0.697512   -0.483114
     14          1           0        2.485960   -0.847299    0.004189
 ---------------------------------------------------------------------

 SCF Done:  E(RHF) =  -339.116539571     A.U. after    8 cycles

 The electronic state is 1-A.
 Alpha  occ. eigenvalues --  -20.58265 -20.55617 -15.61023 -15.54919 -11.36433
 Alpha  occ. eigenvalues --  -11.21347  -1.43380  -1.35676  -1.18131  -1.09102
 Alpha  occ. eigenvalues --   -0.98379  -0.80754  -0.71817  -0.70373  -0.67813
 Alpha  occ. eigenvalues --   -0.65948  -0.61510  -0.59112  -0.54559  -0.54042
 Alpha  occ. eigenvalues --   -0.53105  -0.48810  -0.45316  -0.43288  -0.41821
 Alpha virt. eigenvalues --    0.03677   0.04513   0.04975   0.05880   0.07321
 Alpha virt. eigenvalues --    0.07496   0.07777   0.08720   0.08853   0.11122
 Alpha virt. eigenvalues --    0.11878   0.12821   0.13513   0.14850   0.16857

 Mulliken charges:
               1
     1  C   -0.579900
     2  C    0.603758
     3  N   -0.766619
     4  O   -0.604075
     5  O   -0.298201
     6  N   -0.566268
     7  H    0.184020
     8  H    0.191552
     9  H    0.186904
    10  H    0.315216
    11  H    0.304044
    12  H    0.386348
    13  H    0.320517
    14  H    0.322704
 Sum of Mulliken charges =  -0.00000

 Dipole moment (field-independent basis, Debye):
    X=              1.6818    Y=              0.0853    Z=              1.5877  Tot=              2.3144
 Quadrupole moment (field-independent basis, Debye-Ang):
   XX=            -30.0080   YY=            -33.8484   ZZ=            -41.6074
   XY=             -0.5139   XZ=             -0.9833   YZ=             -1.9850

 Normal termination of Gaussian 09 at Sun Aug 21 14:07:01 2022.
