 Gaussian 09, Revision E.01,
 Gaussian 09:  ES64L-G09RevE.01 30-Nov-2015

 -----
 #P G4
 -----

 --------
 Frag_702
 --------
 Symbolic Z-matrix:
 Charge =  0 Multiplicity = 1

 SCF Done:  E(RB3LYP) =  -300.023575204     A.U. after   14 cycles
 SCF Done:  E(RB3LYP) =  -300.041747664     A.U. after   12 cycles
 SCF Done:  E(RB3LYP) =  -300.043496395     A.U. after   12 cycles
 SCF Done:  E(RB3LYP) =  -300.043972847     A.U. after   12 cycles
 SCF Done:  E(RB3LYP) =  -300.044094853     A.U. after   11 cycles
 SCF Done:  E(RB3LYP) =  -300.044176553     A.U. after    9 cycles
 SCF Done:  E(RB3LYP) =  -300.044311112     A.U. after   11 cycles
 SCF Done:  E(RB3LYP) =  -300.044237512     A.U. after   13 cycles
 SCF Done:  E(RB3LYP) =  -300.045356815     A.U. after   11 cycles
 SCF Done:  E(RB3LYP) =  -300.039587036     A.U. after   13 cycles
 SCF Done:  E(RB3LYP) =  -300.045595301     A.U. after    9 cycles
 SCF Done:  E(RB3LYP) =  -300.045596469     A.U. after    7 cycles
 SCF Done:  E(RB3LYP) =  -300.045596710     A.U. after    7 cycles
 Optimization completed.
    -- Stationary point found.
 Normal termination of Gaussian 09 at Fri Aug 26 09:52:19 2022.

 ----------------------------------------------------------
 #P Geom=AllCheck Guess=TCheck SCRF=Check B3LYP/GTBas3 Freq
 ----------------------------------------------------------

 Structure from the checkpoint file:  "G4.Frag_702.chk"
 --------
 Frag_702
 --------
 Charge =  0 Multiplicity = 1

 SCF Done:  E(RB3LYP) =  -300.045596710     A.U. after    1 cycles

  Exact polarizability:  54.501   2.211  55.161  -0.736  -5.143  42.642
 Approx polarizability:  72.258   1.881  87.411  -1.175 -12.833  64.817

                      1                      2                      3
                      A                      A                      A
 Frequencies --     93.1188               234.3425               274.3994
 Red. masses --      3.9889                 2.6758                 1.2388
 Frc consts  --      0.0204                 0.0866                 0.0550
 IR Inten    --      1.2561                 2.7423                33.4460

                      4                      5                      6
                      A                      A                      A
 Frequencies --    316.1975               320.7321               394.1139
 Red. masses --      1.3872                 2.0429                 1.5413
 Frc consts  --      0.0817                 0.1238                 0.1410
 IR Inten    --     28.0652                20.4209                31.6574

                      7                      8                      9
                      A                      A                      A
 Frequencies --    440.7627               517.0017               574.8624
 Red. masses --      1.6405                 2.6890                 1.8173
 Frc consts  --      0.1878                 0.4235                 0.3538
 IR Inten    --     30.9143                 7.0851                89.1131

                     10                     11                     12
                      A                      A                      A
 Frequencies --    632.7506               733.0700               801.0654
 Red. masses --      1.9865                 4.6121                 2.1724
 Frc consts  --      0.4686                 1.4603                 0.8213
 IR Inten    --    123.0259                41.2464                21.7018

                     13                     14                     15
                      A                      A                      A
 Frequencies --    883.9716               929.8133               940.6861
 Red. masses --      1.3816                 1.2470                 1.7087
 Frc consts  --      0.6361                 0.6352                 0.8909
 IR Inten    --    108.9430                66.9359               136.4690

                     16                     17                     18
                      A                      A                      A
 Frequencies --    995.0206              1110.4001              1132.6498
 Red. masses --      2.1311                 1.8192                 1.5527
 Frc consts  --      1.2431                 1.3215                 1.1737
 IR Inten    --     10.4840                24.5248                21.9263

                     19                     20                     21
                      A                      A                      A
 Frequencies --   1168.1182              1194.3490              1301.9238
 Red. masses --      1.5454                 1.3541                 1.4173
 Frc consts  --      1.2424                 1.1381                 1.4154
 IR Inten    --     76.9074                37.0742                 9.4260

                     22                     23                     24
                      A                      A                      A
 Frequencies --   1360.0347              1412.1748              1448.0737
 Red. masses --      1.4816                 1.3366                 2.2739
 Frc consts  --      1.6146                 1.5705                 2.8094
 IR Inten    --     68.1320                10.6680                19.7235

                     25                     26                     27
                      A                      A                      A
 Frequencies --   1623.5024              1632.2668              1649.2638
 Red. masses --      1.2167                 1.1121                 1.0996
 Frc consts  --      1.8895                 1.7457                 1.7623
 IR Inten    --     51.3109                55.0539                27.7954

                     28                     29                     30
                      A                      A                      A
 Frequencies --   1733.3853              2911.7630              3462.3543
 Red. masses --      6.0618                 1.0814                 1.0725
 Frc consts  --     10.7311                 5.4021                 7.5749
 IR Inten    --    149.6798                91.0996                 9.7621

                     31                     32                     33
                      A                      A                      A
 Frequencies --   3478.4207              3509.4672              3558.3240
 Red. masses --      1.0503                 1.0486                 1.0461
 Frc consts  --      7.4874                 7.6092                 7.8038
 IR Inten    --      0.4935                 1.7860                13.9985

                     34                     35                     36
                      A                      A                      A
 Frequencies --   3564.6593              3598.6941              3669.5849
 Red. masses --      1.0906                 1.0939                 1.0990
 Frc consts  --      8.1646                 8.3464                 8.7189
 IR Inten    --      1.8583                 3.9924                17.8220

 - Thermochemistry -
 -------------------
 Temperature   298.150 Kelvin.  Pressure   1.00000 Atm.
 Atom     1 has atomic number  7 and mass  14.00307

 Molecular mass:    88.07490 amu.
 Principal axes and moments of inertia in atomic units:
                           1         2         3
     Eigenvalues --   355.63490 602.86091 785.54819
           X            0.99878   0.04875  -0.00732
           Y           -0.04870   0.99879   0.00709
           Z            0.00765  -0.00672   0.99995
 This molecule is an asymmetric top.
 Rotational symmetry number  1.
 Rotational temperatures (Kelvin)      0.24355     0.14367     0.11026
 Rotational constants (GHZ):           5.07470     2.99363     2.29743
 Zero-point vibrational energy     320607.1 (Joules/Mol)
                                   76.62693 (Kcal/Mol)
 Warning -- explicit consideration of   9 degrees of freedom as
           vibrations may cause significant error
 Vibrational temperatures:    133.98   337.17   394.80   454.94   461.46
          (Kelvin)            567.04   634.16   743.85   827.10   910.39
                             1054.72  1152.55  1271.84  1337.79  1353.44
                             1431.61  1597.62  1629.63  1680.66  1718.40
                             1873.18  1956.78  2031.80  2083.45  2335.85
                             2348.46  2372.92  2493.95  4189.37  4981.55
                             5004.67  5049.33  5119.63  5128.74  5177.71
                             5279.71

 Zero-point correction=                           0.122113 (Hartree/Particle)
 Thermal correction to Energy=                    0.129059
 Thermal correction to Enthalpy=                  0.130003
 Thermal correction to Gibbs Free Energy=         0.091900
 Sum of electronic and zero-point Energies=           -299.923484
 Sum of electronic and thermal Energies=              -299.916538
 Sum of electronic and thermal Enthalpies=            -299.915593
 Sum of electronic and thermal Free Energies=         -299.953696

                     E (Thermal)             CV                S
                      KCal/Mol        Cal/Mol-Kelvin    Cal/Mol-Kelvin
 Total                   80.986             25.646             80.195
 Electronic               0.000              0.000              0.000
 Translational            0.889              2.981             39.340
 Rotational               0.889              2.981             26.624
 Vibrational             79.208             19.685             14.231
 Vibration     1          0.602              1.954              3.593
 Vibration     2          0.654              1.788              1.845
 Vibration     3          0.677              1.721              1.568
 Vibration     4          0.703              1.643              1.330
 Vibration     5          0.706              1.634              1.306
 Vibration     6          0.761              1.483              0.985
 Vibration     7          0.801              1.381              0.824
 Vibration     8          0.872              1.212              0.617
 Vibration     9          0.931              1.086              0.495

 Optimization completed.
    -- Stationary point found.
 Normal termination of Gaussian 09 at Fri Aug 26 09:52:51 2022.

 -----------------------------------------------------------------
 #P Geom=AllCheck Guess=TCheck SCRF=Check CCSD(T,E4T,FrzG4)/GTBas1
 -----------------------------------------------------------------

 Structure from the checkpoint file:  "G4.Frag_702.chk"
 --------
 Frag_702
 --------
 Charge =  0 Multiplicity = 1

 SCF Done:  E(RHF) =  -298.162651091     A.U. after   13 cycles
 E2 =    -0.9104436347D+00 EUMP2 =    -0.29907309472551D+03
 CCSD(T)
 CCSD(T)= -0.29914921204D+03
 -299.1199786\CCSD=-299.1203975\CCSD(T)=-299.149212\RMSD=5.419e-09\PG=C
 Normal termination of Gaussian 09 at Fri Aug 26 09:54:49 2022.

 ---------------------------------------------------------
 #P Geom=AllCheck Guess=TCheck SCRF=Check MP4=FrzG4/GTBas2
 ---------------------------------------------------------

 Structure from the checkpoint file:  "G4.Frag_702.chk"
 --------
 Frag_702
 --------
 Charge =  0 Multiplicity = 1

 SCF Done:  E(RHF) =  -298.176195958     A.U. after   12 cycles
 E2 =    -0.9270680532D+00 EUMP2 =    -0.29910326401109D+03
 Normal termination of Gaussian 09 at Fri Aug 26 09:55:26 2022.

 ---------------------------------------------------------
 #P Geom=AllCheck Guess=TCheck SCRF=Check MP4=FrzG4/GTBas3
 ---------------------------------------------------------

 Structure from the checkpoint file:  "G4.Frag_702.chk"
 --------
 Frag_702
 --------
 Charge =  0 Multiplicity = 1

 SCF Done:  E(RHF) =  -298.209510187     A.U. after   11 cycles
 E2 =    -0.1106160971D+01 EUMP2 =    -0.29931567115735D+03
 Normal termination of Gaussian 09 at Fri Aug 26 09:58:52 2022.

 -----------------------------------------------------------
 #P Geom=AllCheck Guess=TCheck SCRF=Check MP2=Full/GTLargeXP
 -----------------------------------------------------------

 Structure from the checkpoint file:  "G4.Frag_702.chk"
 --------
 Frag_702
 --------
 Charge =  0 Multiplicity = 1

 SCF Done:  E(RHF) =  -298.290306710     A.U. after   12 cycles
 E2 =    -0.1443940926D+01 EUMP2 =    -0.29973424763668D+03
 Normal termination of Gaussian 09 at Fri Aug 26 10:00:49 2022.
 SCF Done:  E(RHF) =  -298.313052092     A.U. after    9 cycles
 Normal termination of Gaussian 09 at Fri Aug 26 10:02:43 2022.

                         Standard orientation:
 ---------------------------------------------------------------------
 Center     Atomic      Atomic             Coordinates (Angstroms)
 Number     Number       Type             X           Y           Z
 ---------------------------------------------------------------------
      1          7           0        1.071406   -1.275026    0.630902
      2          6           0        0.778927   -0.212090   -0.009018
      3          7           0        1.759272    0.709317   -0.341463
      4          6           0       -0.640952    0.259985   -0.364338
      5          7           0       -1.537930   -0.881811   -0.377587
      6          7           0       -1.185862    1.215418    0.604183
      7          1           0        0.204463   -1.770277    0.847675
      8          1           0        1.627730    1.216919   -1.203748
      9          1           0        2.700213    0.364599   -0.210468
     10          1           0       -0.591893    0.798421   -1.329562
     11          1           0       -2.485283   -0.551513   -0.528285
     12          1           0       -1.297861   -1.523955   -1.125159
     13          1           0       -0.574533    2.025590    0.654466
     14          1           0       -1.158892    0.777552    1.522973
 ---------------------------------------------------------------------

 SCF Done:  E(RHF) =  -298.317980842     A.U. after    8 cycles

 The electronic state is 1-A.
 Alpha  occ. eigenvalues --  -15.57062 -15.55445 -15.55409 -15.51906 -11.30707
 Alpha  occ. eigenvalues --  -11.30601  -1.27458  -1.22058  -1.14538  -1.13034
 Alpha  occ. eigenvalues --   -0.90909  -0.77741  -0.72571  -0.70114  -0.67671
 Alpha  occ. eigenvalues --   -0.61998  -0.60257  -0.57398  -0.57187  -0.51487
 Alpha  occ. eigenvalues --   -0.45585  -0.41740  -0.39250  -0.37092
 Alpha virt. eigenvalues --    0.03137   0.04503   0.04995   0.05178   0.07132
 Alpha virt. eigenvalues --    0.07542   0.07629   0.08880   0.09464   0.11466
 Alpha virt. eigenvalues --    0.11833   0.12543   0.13025   0.13184   0.13774

 Mulliken charges:
               1
     1  N   -0.703667
     2  C    0.406740
     3  N   -0.721547
     4  C    0.105350
     5  N   -0.740256
     6  N   -0.690862
     7  H    0.306462
     8  H    0.313413
     9  H    0.344531
    10  H    0.145737
    11  H    0.320057
    12  H    0.309783
    13  H    0.298572
    14  H    0.305686
 Sum of Mulliken charges =  -0.00000

 Dipole moment (field-independent basis, Debye):
    X=             -0.4480    Y=              1.6764    Z=             -2.6906  Tot=              3.2016
 Quadrupole moment (field-independent basis, Debye-Ang):
   XX=            -38.4232   YY=            -39.5613   ZZ=            -34.4800
   XY=              6.3052   XZ=             -1.9906   YZ=              1.3686

 Normal termination of Gaussian 09 at Fri Aug 26 10:09:58 2022.
