 Gaussian 09, Revision E.01,
 Gaussian 09:  ES64L-G09RevE.01 30-Nov-2015

 -----
 #P G4
 -----

 ---------
 Frag_9871
 ---------
 Symbolic Z-matrix:
 Charge =  0 Multiplicity = 1

 SCF Done:  E(RB3LYP) =  -171.902168185     A.U. after   13 cycles
 SCF Done:  E(RB3LYP) =  -171.983383459     A.U. after   12 cycles
 SCF Done:  E(RB3LYP) =  -172.013278395     A.U. after   12 cycles
 SCF Done:  E(RB3LYP) =  -172.020810223     A.U. after   11 cycles
 SCF Done:  E(RB3LYP) =  -172.021683231     A.U. after   11 cycles
 SCF Done:  E(RB3LYP) =  -172.022017079     A.U. after   11 cycles
 SCF Done:  E(RB3LYP) =  -172.021958264     A.U. after   10 cycles
 SCF Done:  E(RB3LYP) =  -172.022059313     A.U. after    8 cycles
 SCF Done:  E(RB3LYP) =  -172.022071148     A.U. after    8 cycles
 SCF Done:  E(RB3LYP) =  -172.022072368     A.U. after    7 cycles
 Optimization completed.
    -- Stationary point found.
 Normal termination of Gaussian 09 at Thu Sep  8 14:13:53 2022.

 ----------------------------------------------------------
 #P Geom=AllCheck Guess=TCheck SCRF=Check B3LYP/GTBas3 Freq
 ----------------------------------------------------------

 Structure from the checkpoint file:  "G4.Frag_987.chk"
 ---------
 Frag_9871
 ---------
 Charge =  0 Multiplicity = 1

 SCF Done:  E(RB3LYP) =  -172.022072368     A.U. after    1 cycles

  Exact polarizability:  64.022  -0.017  27.157   0.773  -0.002  24.670
 Approx polarizability:  97.127  -0.044  38.064   0.063  -0.003  34.358

                      1                      2                      3
                      A                      A                      A
 Frequencies --     11.4855               206.8523               223.5039
 Red. masses --      1.0327                 3.3073                 2.9084
 Frc consts  --      0.0001                 0.0834                 0.0856
 IR Inten    --     16.6534                14.6566                11.8841

                      4                      5                      6
                      A                      A                      A
 Frequencies --    419.1772               450.5308               672.6686
 Red. masses --      4.2241                 4.7790                 1.5488
 Frc consts  --      0.4373                 0.5715                 0.4129
 IR Inten    --      0.0392                12.4791               222.3512

                      7                      8                      9
                      A                      A                      A
 Frequencies --    767.2456              1055.3297              1060.0717
 Red. masses --      3.3557                 1.4113                 1.3522
 Frc consts  --      1.1639                 0.9261                 0.8953
 IR Inten    --      5.2560                 1.6217                 1.3090

                     10                     11                     12
                      A                      A                      A
 Frequencies --   1202.3941              1269.0719              1419.7154
 Red. masses --      1.2530                 4.6183                 1.2803
 Frc consts  --      1.0673                 4.3823                 1.5204
 IR Inten    --      0.0048                25.3363                 4.0723

                     13                     14                     15
                      A                      A                      A
 Frequencies --   1478.1950              1486.5018              1640.6596
 Red. masses --      1.0424                 1.0409                 1.1021
 Frc consts  --      1.3420                 1.3552                 1.7479
 IR Inten    --      5.5038                 4.1219                17.3869

                     16                     17                     18
                      A                      A                      A
 Frequencies --   2393.8769              3016.8383              3069.1833
 Red. masses --     11.5357                 1.0355                 1.1001
 Frc consts  --     38.9491                 5.5525                 6.1058
 IR Inten    --     70.2533                47.1471                18.8028

                     19                     20                     21
                      A                      A                      A
 Frequencies --   3078.3347              3517.0026              3596.2290
 Red. masses --      1.0993                 1.0461                 1.0964
 Frc consts  --      6.1375                 7.6238                 8.3541
 IR Inten    --     15.4170                 8.0107                18.3626

 - Thermochemistry -
 -------------------
 Temperature   298.150 Kelvin.  Pressure   1.00000 Atm.
 Atom     1 has atomic number  6 and mass  12.00000

 Molecular mass:    55.04220 amu.
 Principal axes and moments of inertia in atomic units:
                           1         2         3
     Eigenvalues --    17.15127 517.76414 521.70454
           X            0.99996   0.00003   0.00937
           Y           -0.00003   1.00000  -0.00002
           Z           -0.00937   0.00002   0.99996
 This molecule is an asymmetric top.
 Rotational symmetry number  1.
 Rotational temperatures (Kelvin)      5.04999     0.16728     0.16602
 Rotational constants (GHZ):         105.22493     3.48564     3.45932
 Zero-point vibrational energy     191611.1 (Joules/Mol)
                                   45.79614 (Kcal/Mol)
 Warning -- explicit consideration of   5 degrees of freedom as
           vibrations may cause significant error
 Vibrational temperatures:     16.53   297.61   321.57   603.10   648.21
          (Kelvin)            967.82  1103.89  1518.38  1525.20  1729.97
                             1825.91  2042.65  2126.79  2138.74  2360.54
                             3444.25  4340.55  4415.86  4429.03  5060.18
                             5174.17

 Zero-point correction=                           0.072981 (Hartree/Particle)
 Thermal correction to Energy=                    0.078682
 Thermal correction to Enthalpy=                  0.079626
 Thermal correction to Gibbs Free Energy=         0.043866
 Sum of electronic and zero-point Energies=           -171.949092
 Sum of electronic and thermal Energies=              -171.943390
 Sum of electronic and thermal Enthalpies=            -171.942446
 Sum of electronic and thermal Free Energies=         -171.978206

                     E (Thermal)             CV                S
                      KCal/Mol        Cal/Mol-Kelvin    Cal/Mol-Kelvin
 Total                   49.374             17.271             75.263
 Electronic               0.000              0.000              0.000
 Translational            0.889              2.981             37.938
 Rotational               0.889              2.981             23.053
 Vibrational             47.596             11.309             14.271
 Vibration     1          0.593              1.987              7.736
 Vibration     2          0.641              1.830              2.071
 Vibration     3          0.649              1.805              1.931
 Vibration     4          0.782              1.429              0.895
 Vibration     5          0.809              1.360              0.794

 Normal termination of Gaussian 09 at Thu Sep  8 14:14:06 2022.

 -----------------------------------------------------------------
 #P Geom=AllCheck Guess=TCheck SCRF=Check CCSD(T,E4T,FrzG4)/GTBas1
 -----------------------------------------------------------------

 Structure from the checkpoint file:  "G4.Frag_987.chk"
 ---------
 Frag_9871
 ---------
 Charge =  0 Multiplicity = 1

 SCF Done:  E(RHF) =  -170.887887126     A.U. after   13 cycles
 E2 =    -0.5378393307D+00 EUMP2 =    -0.17142572645659D+03
 CCSD(T)
 CCSD(T)= -0.17147759392D+03
 64\CCSD=-171.457968\CCSD(T)=-171.4775939\RMSD=9.637e-09\PG=C01 [X(C3H5
 Normal termination of Gaussian 09 at Thu Sep  8 14:14:26 2022.

 ---------------------------------------------------------
 #P Geom=AllCheck Guess=TCheck SCRF=Check MP4=FrzG4/GTBas2
 ---------------------------------------------------------

 Structure from the checkpoint file:  "G4.Frag_987.chk"
 ---------
 Frag_9871
 ---------
 Charge =  0 Multiplicity = 1

 SCF Done:  E(RHF) =  -170.894752677     A.U. after   15 cycles
 E2 =    -0.5432711899D+00 EUMP2 =    -0.17143802386685D+03
 Normal termination of Gaussian 09 at Thu Sep  8 14:14:32 2022.

 ---------------------------------------------------------
 #P Geom=AllCheck Guess=TCheck SCRF=Check MP4=FrzG4/GTBas3
 ---------------------------------------------------------

 Structure from the checkpoint file:  "G4.Frag_987.chk"
 ---------
 Frag_9871
 ---------
 Charge =  0 Multiplicity = 1

 SCF Done:  E(RHF) =  -170.913274044     A.U. after   12 cycles
 E2 =    -0.6527906714D+00 EUMP2 =    -0.17156606471510D+03
 Normal termination of Gaussian 09 at Thu Sep  8 14:14:57 2022.

 -----------------------------------------------------------
 #P Geom=AllCheck Guess=TCheck SCRF=Check MP2=Full/GTLargeXP
 -----------------------------------------------------------

 Structure from the checkpoint file:  "G4.Frag_987.chk"
 ---------
 Frag_9871
 ---------
 Charge =  0 Multiplicity = 1

 SCF Done:  E(RHF) =  -170.955216468     A.U. after   12 cycles
 E2 =    -0.8642896161D+00 EUMP2 =    -0.17181950608371D+03
 Normal termination of Gaussian 09 at Thu Sep  8 14:15:16 2022.
 SCF Done:  E(RHF) =  -170.968635481     A.U. after    9 cycles
 Normal termination of Gaussian 09 at Thu Sep  8 14:15:40 2022.

                         Standard orientation:
 ---------------------------------------------------------------------
 Center     Atomic      Atomic             Coordinates (Angstroms)
 Number     Number       Type             X           Y           Z
 ---------------------------------------------------------------------
      1          6           0        2.017336   -0.000027   -0.006757
      2          6           0        0.560427   -0.000774    0.001119
      3          6           0       -0.644029    0.000188    0.008751
      4          7           0       -1.999784    0.000022    0.089248
      5          1           0        2.439976   -0.025762    1.005006
      6          1           0        2.411988   -0.866344   -0.549886
      7          1           0        2.409982    0.895207   -0.503280
      8          1           0       -2.432956   -0.829722   -0.297713
      9          1           0       -2.432903    0.830150   -0.297535
 ---------------------------------------------------------------------

 SCF Done:  E(RHF) =  -170.971321872     A.U. after    8 cycles

 The electronic state is 1-A.
 Alpha  occ. eigenvalues --  -15.58328 -11.24376 -11.23811 -11.20781  -1.21882
 Alpha  occ. eigenvalues --   -1.03502  -0.93443  -0.72663  -0.69108  -0.61637
 Alpha  occ. eigenvalues --   -0.57861  -0.57460  -0.51110  -0.36842  -0.32899
 Alpha virt. eigenvalues --    0.03675   0.04640   0.05506   0.05785   0.07072
 Alpha virt. eigenvalues --    0.07939   0.08214   0.09990   0.11502   0.11846
 Alpha virt. eigenvalues --    0.13954   0.14549   0.15353   0.15733   0.18277

 Mulliken charges:
               1
     1  C   -0.569879
     2  C    0.154645
     3  C   -0.071797
     4  N   -0.713919
     5  H    0.188269
     6  H    0.187721
     7  H    0.187856
     8  H    0.318608
     9  H    0.318495
 Sum of Mulliken charges =  -0.00000

 Dipole moment (field-independent basis, Debye):
    X=             -0.5274    Y=              0.0026    Z=             -1.1837  Tot=              1.2959
 Quadrupole moment (field-independent basis, Debye-Ang):
   XX=            -17.1239   YY=            -23.6172   ZZ=            -26.7510
   XY=              0.0035   XZ=              3.1761   YZ=              0.0005

 Normal termination of Gaussian 09 at Thu Sep  8 14:17:58 2022.
