 Gaussian 09, Revision E.01,
 Gaussian 09:  ES64L-G09RevE.01 30-Nov-2015

 -----
 #P G4
 -----

 --------
 Frag_561
 --------
 Symbolic Z-matrix:
 Charge =  0 Multiplicity = 1

 SCF Done:  E(RB3LYP) =  -271.770522915     A.U. after   14 cycles
 SCF Done:  E(RB3LYP) =  -271.780745473     A.U. after   12 cycles
 SCF Done:  E(RB3LYP) =  -271.780951306     A.U. after   10 cycles
 SCF Done:  E(RB3LYP) =  -271.780965399     A.U. after    8 cycles
 SCF Done:  E(RB3LYP) =  -271.780965838     A.U. after    6 cycles
 Optimization completed.
    -- Stationary point found.
 Normal termination of Gaussian 09 at Fri Aug 26 09:29:53 2022.

 ----------------------------------------------------------
 #P Geom=AllCheck Guess=TCheck SCRF=Check B3LYP/GTBas3 Freq
 ----------------------------------------------------------

 Structure from the checkpoint file:  "G4.Frag_561.chk"
 --------
 Frag_561
 --------
 Charge =  0 Multiplicity = 1

 SCF Done:  E(RB3LYP) =  -271.780965838     A.U. after    1 cycles

  Exact polarizability:  70.008  -0.001  48.241  -7.180   0.001  57.835
 Approx polarizability:  94.356  -0.001  64.825 -12.962   0.002  90.586

                      1                      2                      3
                      A                      A                      A
 Frequencies --     77.6464               206.7732               213.5808
 Red. masses --      2.7369                 1.1281                 1.8838
 Frc consts  --      0.0097                 0.0284                 0.0506
 IR Inten    --      1.4989                22.9741                23.3011

                      4                      5                      6
                      A                      A                      A
 Frequencies --    236.5798               278.6038               284.5911
 Red. masses --      1.0754                 1.3459                 2.8042
 Frc consts  --      0.0355                 0.0615                 0.1338
 IR Inten    --      0.2205                38.8845                 1.2246

                      7                      8                      9
                      A                      A                      A
 Frequencies --    326.9423               455.2727               570.5382
 Red. masses --      2.2954                 2.3605                 2.5663
 Frc consts  --      0.1446                 0.2883                 0.4922
 IR Inten    --      0.5803                 1.0610                 3.1554

                     10                     11                     12
                      A                      A                      A
 Frequencies --    661.0960               744.4140               751.3021
 Red. masses --      3.0669                 1.1060                 2.6584
 Frc consts  --      0.7897                 0.3611                 0.8841
 IR Inten    --      3.0236                10.6502                 3.3701

                     13                     14                     15
                      A                      A                      A
 Frequencies --    845.6849               913.7068               930.1812
 Red. masses --      1.4407                 2.4164                 1.2101
 Frc consts  --      0.6071                 1.1886                 0.6169
 IR Inten    --     45.2172                 9.5782                 0.3257

                     16                     17                     18
                      A                      A                      A
 Frequencies --    963.6170               983.2956              1082.4286
 Red. masses --      1.4563                 1.8974                 1.4625
 Frc consts  --      0.7967                 1.0809                 1.0096
 IR Inten    --      0.0420                38.6068                 8.1234

                     19                     20                     21
                      A                      A                      A
 Frequencies --   1117.3205              1184.7519              1246.0696
 Red. masses --      2.3389                 1.9242                 1.3443
 Frc consts  --      1.7203                 1.5913                 1.2298
 IR Inten    --      3.6095                 1.0567                54.2619

                     22                     23                     24
                      A                      A                      A
 Frequencies --   1332.5917              1336.7397              1344.0149
 Red. masses --      1.5821                 1.3282                 2.2784
 Frc consts  --      1.6553                 1.3984                 2.4248
 IR Inten    --     17.9837                 3.4525               142.6885

                     25                     26                     27
                      A                      A                      A
 Frequencies --   1400.0119              1422.7679              1446.8696
 Red. masses --      1.2123                 1.2330                 1.1688
 Frc consts  --      1.4000                 1.4705                 1.4416
 IR Inten    --      2.5556                 0.9192                 5.6913

                     28                     29                     30
                      A                      A                      A
 Frequencies --   1483.1108              1493.2232              1502.3647
 Red. masses --      1.0472                 1.0461                 1.0540
 Frc consts  --      1.3572                 1.3742                 1.4017
 IR Inten    --      0.3185                 1.9557                 2.1233

                     31                     32                     33
                      A                      A                      A
 Frequencies --   1508.7591              1746.4746              3025.5706
 Red. masses --      1.0577                 5.3748                 1.0381
 Frc consts  --      1.4186                 9.6592                 5.5988
 IR Inten    --     21.7650                79.4948                15.9731

                     34                     35                     36
                      A                      A                      A
 Frequencies --   3029.4462              3054.4770              3087.8608
 Red. masses --      1.0405                 1.0820                 1.0974
 Frc consts  --      5.6262                 5.9476                 6.1648
 IR Inten    --     24.6374                 8.2077                 3.8988

                     37                     38                     39
                      A                      A                      A
 Frequencies --   3096.8547              3116.6102              3118.4651
 Red. masses --      1.0967                 1.1022                 1.1022
 Frc consts  --      6.1969                 6.3077                 6.3154
 IR Inten    --     65.6052                16.4138                27.0577

                     40                     41                     42
                      A                      A                      A
 Frequencies --   3174.9884              3265.8852              3841.3369
 Red. masses --      1.0609                 1.1159                 1.0659
 Frc consts  --      6.3010                 7.0126                 9.2670
 IR Inten    --      0.4705                 6.3943                38.1201

 - Thermochemistry -
 -------------------
 Temperature   298.150 Kelvin.  Pressure   1.00000 Atm.
 Atom     1 has atomic number  6 and mass  12.00000

 Molecular mass:    86.07317 amu.
 Principal axes and moments of inertia in atomic units:
                           1         2         3
     Eigenvalues --   383.14282 703.93795 714.79694
           X            0.99926  -0.00000  -0.03855
           Y            0.00000   1.00000  -0.00003
           Z            0.03855   0.00003   0.99926
 This molecule is an asymmetric top.
 Rotational symmetry number  1.
 Rotational temperatures (Kelvin)      0.22606     0.12304     0.12117
 Rotational constants (GHZ):           4.71036     2.56378     2.52483
 Zero-point vibrational energy     370261.1 (Joules/Mol)
                                   88.49452 (Kcal/Mol)
 Warning -- explicit consideration of   9 degrees of freedom as
           vibrations may cause significant error
 Vibrational temperatures:    111.72   297.50   307.29   340.39   400.85
          (Kelvin)            409.46   470.40   655.04   820.88   951.17
                             1071.04  1080.95  1216.75  1314.62  1338.32
                             1386.43  1414.74  1557.37  1607.57  1704.59
                             1792.81  1917.30  1923.27  1933.74  2014.30
                             2047.04  2081.72  2133.86  2148.41  2161.57
                             2170.77  2512.78  4353.12  4358.69  4394.71
                             4442.74  4455.68  4484.10  4486.77  4568.09
                             4698.87  5526.82

 Zero-point correction=                           0.141025 (Hartree/Particle)
 Thermal correction to Energy=                    0.148662
 Thermal correction to Enthalpy=                  0.149606
 Thermal correction to Gibbs Free Energy=         0.109992
 Sum of electronic and zero-point Energies=           -271.639941
 Sum of electronic and thermal Energies=              -271.632304
 Sum of electronic and thermal Enthalpies=            -271.631360
 Sum of electronic and thermal Free Energies=         -271.670974

                     E (Thermal)             CV                S
                      KCal/Mol        Cal/Mol-Kelvin    Cal/Mol-Kelvin
 Total                   93.287             27.537             83.374
 Electronic               0.000              0.000              0.000
 Translational            0.889              2.981             39.271
 Rotational               0.889              2.981             26.758
 Vibrational             91.509             21.575             17.345
 Vibration     1          0.599              1.964              3.950
 Vibration     2          0.641              1.830              2.072
 Vibration     3          0.644              1.820              2.013
 Vibration     4          0.655              1.785              1.828
 Vibration     5          0.679              1.713              1.542
 Vibration     6          0.683              1.702              1.506
 Vibration     7          0.711              1.622              1.275
 Vibration     8          0.814              1.349              0.780
 Vibration     9          0.927              1.095              0.503

 Optimization completed.
    -- Stationary point found.
 Normal termination of Gaussian 09 at Fri Aug 26 09:30:30 2022.

 -----------------------------------------------------------------
 #P Geom=AllCheck Guess=TCheck SCRF=Check CCSD(T,E4T,FrzG4)/GTBas1
 -----------------------------------------------------------------

 Structure from the checkpoint file:  "G4.Frag_561.chk"
 --------
 Frag_561
 --------
 Charge =  0 Multiplicity = 1

 SCF Done:  E(RHF) =  -269.994882289     A.U. after   11 cycles
 E2 =    -0.8289490045D+00 EUMP2 =    -0.27082383129322D+03
 CCSD(T)
 CCSD(T)= -0.27091105762D+03
 =-270.9097624\MP4SDQ=-270.8825117\CCSD=-270.8833767\CCSD(T)=-270.91105
 Normal termination of Gaussian 09 at Fri Aug 26 09:32:32 2022.

 ---------------------------------------------------------
 #P Geom=AllCheck Guess=TCheck SCRF=Check MP4=FrzG4/GTBas2
 ---------------------------------------------------------

 Structure from the checkpoint file:  "G4.Frag_561.chk"
 --------
 Frag_561
 --------
 Charge =  0 Multiplicity = 1

 SCF Done:  E(RHF) =  -270.002366090     A.U. after   13 cycles
 E2 =    -0.8396796643D+00 EUMP2 =    -0.27084204575454D+03
 Normal termination of Gaussian 09 at Fri Aug 26 09:33:15 2022.

 ---------------------------------------------------------
 #P Geom=AllCheck Guess=TCheck SCRF=Check MP4=FrzG4/GTBas3
 ---------------------------------------------------------

 Structure from the checkpoint file:  "G4.Frag_561.chk"
 --------
 Frag_561
 --------
 Charge =  0 Multiplicity = 1

 SCF Done:  E(RHF) =  -270.032845922     A.U. after   11 cycles
 E2 =    -0.1029095770D+01 EUMP2 =    -0.27106194169251D+03
 Normal termination of Gaussian 09 at Fri Aug 26 09:37:31 2022.

 -----------------------------------------------------------
 #P Geom=AllCheck Guess=TCheck SCRF=Check MP2=Full/GTLargeXP
 -----------------------------------------------------------

 Structure from the checkpoint file:  "G4.Frag_561.chk"
 --------
 Frag_561
 --------
 Charge =  0 Multiplicity = 1

 SCF Done:  E(RHF) =  -270.097837703     A.U. after   12 cycles
 E2 =    -0.1355547135D+01 EUMP2 =    -0.27145338483768D+03
 Normal termination of Gaussian 09 at Fri Aug 26 09:39:46 2022.
 SCF Done:  E(RHF) =  -270.119760134     A.U. after    8 cycles
 Normal termination of Gaussian 09 at Fri Aug 26 09:41:57 2022.

                         Standard orientation:
 ---------------------------------------------------------------------
 Center     Atomic      Atomic             Coordinates (Angstroms)
 Number     Number       Type             X           Y           Z
 ---------------------------------------------------------------------
      1          6           0        1.889992   -0.000062   -0.851335
      2          6           0        0.838913   -0.000005   -0.032852
      3          8           0        1.042559    0.000092    1.322776
      4          6           0       -0.601224   -0.000035   -0.497364
      5          6           0       -1.345042   -1.271095   -0.043694
      6          6           0       -1.345041    1.271087   -0.043863
      7          1           0        2.901414   -0.000031   -0.464394
      8          1           0        1.749795   -0.000142   -1.923450
      9          1           0        0.193981    0.000181    1.774739
     10          1           0       -0.572581   -0.000106   -1.591743
     11          1           0       -1.418182   -1.335800    1.048878
     12          1           0       -2.367162   -1.277147   -0.434824
     13          1           0       -0.833982   -2.171586   -0.395094
     14          1           0       -0.833977    2.171531   -0.395378
     15          1           0       -1.418190    1.335934    1.048700
     16          1           0       -2.367159    1.277090   -0.434999
 ---------------------------------------------------------------------

 SCF Done:  E(RHF) =  -270.124408622     A.U. after    7 cycles

 The electronic state is 1-A.
 Alpha  occ. eigenvalues --  -20.57899 -11.29077 -11.24623 -11.22759 -11.22756
 Alpha  occ. eigenvalues --  -11.19743  -1.39639  -1.09338  -1.00467  -0.94272
 Alpha  occ. eigenvalues --   -0.83835  -0.77200  -0.69582  -0.63979  -0.59817
 Alpha  occ. eigenvalues --   -0.59615  -0.57434  -0.56152  -0.55626  -0.53789
 Alpha  occ. eigenvalues --   -0.49047  -0.48864  -0.47569  -0.33324
 Alpha virt. eigenvalues --    0.03164   0.04181   0.04224   0.04875   0.06463
 Alpha virt. eigenvalues --    0.06761   0.07080   0.07296   0.07704   0.09592
 Alpha virt. eigenvalues --    0.09779   0.09852   0.10530   0.10853   0.12321

 Mulliken charges:
               1
     1  C   -0.503571
     2  C    0.237014
     3  O   -0.570968
     4  C   -0.043609
     5  C   -0.526599
     6  C   -0.526603
     7  H    0.199276
     8  H    0.176832
     9  H    0.383223
    10  H    0.171005
    11  H    0.150278
    12  H    0.170616
    13  H    0.181107
    14  H    0.181108
    15  H    0.150274
    16  H    0.170617
 Sum of Mulliken charges =  -0.00000

 Dipole moment (field-independent basis, Debye):
    X=             -2.4191    Y=              0.0001    Z=             -0.2694  Tot=              2.4340
 Quadrupole moment (field-independent basis, Debye-Ang):
   XX=            -40.5193   YY=            -40.6567   ZZ=            -37.3121
   XY=             -0.0002   XZ=             -2.2386   YZ=              0.0004

 Normal termination of Gaussian 09 at Fri Aug 26 09:49:38 2022.
