 Gaussian 09, Revision E.01,
 Gaussian 09:  ES64L-G09RevE.01 30-Nov-2015

 -----
 #P G4
 -----

 --------
 Frag_898
 --------
 Symbolic Z-matrix:
 Charge =  0 Multiplicity = 1

 SCF Done:  E(RB3LYP) =  -279.229748213     A.U. after   15 cycles
 SCF Done:  E(RB3LYP) =  -279.261155382     A.U. after   14 cycles
 SCF Done:  E(RB3LYP) =  -279.267543993     A.U. after   13 cycles
 SCF Done:  E(RB3LYP) =  -279.268588168     A.U. after   12 cycles
 SCF Done:  E(RB3LYP) =  -279.269147628     A.U. after   12 cycles
 SCF Done:  E(RB3LYP) =  -279.269243661     A.U. after   12 cycles
 SCF Done:  E(RB3LYP) =  -279.269115790     A.U. after   12 cycles
 SCF Done:  E(RB3LYP) =  -279.269250287     A.U. after    8 cycles
 SCF Done:  E(RB3LYP) =  -279.269259316     A.U. after    9 cycles
 SCF Done:  E(RB3LYP) =  -279.269260108     A.U. after    8 cycles
 Optimization completed.
    -- Stationary point found.
 Normal termination of Gaussian 09 at Sun Aug 21 15:01:07 2022.

 ----------------------------------------------------------
 #P Geom=AllCheck Guess=TCheck SCRF=Check B3LYP/GTBas3 Freq
 ----------------------------------------------------------

 Structure from the checkpoint file:  "G4.Frag_898.chk"
 --------
 Frag_898
 --------
 Charge =  0 Multiplicity = 1

 SCF Done:  E(RB3LYP) =  -279.269260108     A.U. after    1 cycles

  Exact polarizability:  54.764  -6.535  40.184  -0.000  -0.000  18.405
 Approx polarizability:  87.795 -22.082  81.223  -0.002   0.001  28.324

                      1                      2                      3
                      A                      A                      A
 Frequencies --    127.5861               396.7819               525.0907
 Red. masses --      4.3343                 3.3730                 7.5780
 Frc consts  --      0.0416                 0.3129                 1.2310
 IR Inten    --      6.7076                16.6352                 2.6693

                      4                      5                      6
                      A                      A                      A
 Frequencies --    583.1790               618.1143               775.7194
 Red. masses --      2.0350                 3.1792                 8.3595
 Frc consts  --      0.4078                 0.7157                 2.9637
 IR Inten    --     16.8035                 3.1749                32.8254

                      7                      8                      9
                      A                      A                      A
 Frequencies --    865.6371               874.6718              1091.4196
 Red. masses --      1.4367                 1.3813                 1.3445
 Frc consts  --      0.6343                 0.6226                 0.9436
 IR Inten    --     16.9768                45.6835                17.5105

                     10                     11                     12
                      A                      A                      A
 Frequencies --   1177.0993              1256.0208              1404.2395
 Red. masses --      1.5978                 3.3935                 1.1262
 Frc consts  --      1.3044                 3.1542                 1.3084
 IR Inten    --      0.8547                69.1462                12.3219

                     13                     14                     15
                      A                      A                      A
 Frequencies --   1449.4897              1691.1583              1741.1108
 Red. masses --      1.9085                 7.1015                 5.9668
 Frc consts  --      2.3626                11.9666                10.6573
 IR Inten    --    241.2433                51.6948               106.2891

                     16                     17                     18
                      A                      A                      A
 Frequencies --   3100.0685              3218.7372              3452.9379
 Red. masses --      1.0574                 1.1167                 1.0722
 Frc consts  --      5.9874                 6.8167                 7.5317
 IR Inten    --      8.4767                 0.0426                15.5537

 - Thermochemistry -
 -------------------
 Temperature   298.150 Kelvin.  Pressure   1.00000 Atm.
 Atom     1 has atomic number  6 and mass  12.00000

 Molecular mass:    73.02761 amu.
 Principal axes and moments of inertia in atomic units:
                           1         2         3
     Eigenvalues --   156.59239 353.96461 510.55700
           X            0.99913  -0.04176   0.00000
           Y            0.04176   0.99913  -0.00000
           Z           -0.00000   0.00000   1.00000
 This molecule is an asymmetric top.
 Rotational symmetry number  1.
 Rotational temperatures (Kelvin)      0.55312     0.24470     0.16965
 Rotational constants (GHZ):          11.52509     5.09865     3.53485
 Zero-point vibrational energy     145639.7 (Joules/Mol)
                                   34.80873 (Kcal/Mol)
 Warning -- explicit consideration of   5 degrees of freedom as
           vibrations may cause significant error
 Vibrational temperatures:    183.57   570.88   755.49   839.06   889.33
          (Kelvin)           1116.09  1245.46  1258.46  1570.31  1693.58
                             1807.13  2020.38  2085.49  2433.20  2505.07
                             4460.30  4631.04  4968.00

 Zero-point correction=                           0.055471 (Hartree/Particle)
 Thermal correction to Energy=                    0.060107
 Thermal correction to Enthalpy=                  0.061051
 Thermal correction to Gibbs Free Energy=         0.027880
 Sum of electronic and zero-point Energies=           -279.213789
 Sum of electronic and thermal Energies=              -279.209153
 Sum of electronic and thermal Enthalpies=            -279.208209
 Sum of electronic and thermal Free Energies=         -279.241380

                     E (Thermal)             CV                S
                      KCal/Mol        Cal/Mol-Kelvin    Cal/Mol-Kelvin
 Total                   37.718             15.338             69.813
 Electronic               0.000              0.000              0.000
 Translational            0.889              2.981             38.781
 Rotational               0.889              2.981             24.851
 Vibrational             35.940              9.376              6.181
 Vibration     1          0.611              1.926              2.982
 Vibration     2          0.763              1.477              0.975
 Vibration     3          0.880              1.194              0.598
 Vibration     4          0.940              1.068              0.480
 Vibration     5          0.978              0.994              0.420

 Optimization completed.
    -- Stationary point found.
 Normal termination of Gaussian 09 at Sun Aug 21 15:01:52 2022.

 -----------------------------------------------------------------
 #P Geom=AllCheck Guess=TCheck SCRF=Check CCSD(T,E4T,FrzG4)/GTBas1
 -----------------------------------------------------------------

 Structure from the checkpoint file:  "G4.Frag_898.chk"
 --------
 Frag_898
 --------
 Charge =  0 Multiplicity = 1

 SCF Done:  E(RHF) =  -277.645973756     A.U. after   15 cycles
 E2 =    -0.8136938982D+00 EUMP2 =    -0.27845966765400D+03
 CCSD(T)
 CCSD(T)= -0.27851031304D+03
 -278.5171201\MP4SDQ=-278.4769109\CCSD=-278.4744477\CCSD(T)=-278.510313
 Normal termination of Gaussian 09 at Sun Aug 21 15:02:59 2022.

 ---------------------------------------------------------
 #P Geom=AllCheck Guess=TCheck SCRF=Check MP4=FrzG4/GTBas2
 ---------------------------------------------------------

 Structure from the checkpoint file:  "G4.Frag_898.chk"
 --------
 Frag_898
 --------
 Charge =  0 Multiplicity = 1

 SCF Done:  E(RHF) =  -277.656446976     A.U. after   14 cycles
 E2 =    -0.8245157092D+00 EUMP2 =    -0.27848096268523D+03
 Normal termination of Gaussian 09 at Sun Aug 21 15:03:53 2022.

 ---------------------------------------------------------
 #P Geom=AllCheck Guess=TCheck SCRF=Check MP4=FrzG4/GTBas3
 ---------------------------------------------------------

 Structure from the checkpoint file:  "G4.Frag_898.chk"
 --------
 Frag_898
 --------
 Charge =  0 Multiplicity = 1

 SCF Done:  E(RHF) =  -277.679174634     A.U. after   13 cycles
 E2 =    -0.9656499567D+00 EUMP2 =    -0.27864482459070D+03
 Normal termination of Gaussian 09 at Sun Aug 21 15:27:52 2022.

 -----------------------------------------------------------
 #P Geom=AllCheck Guess=TCheck SCRF=Check MP2=Full/GTLargeXP
 -----------------------------------------------------------

 Structure from the checkpoint file:  "G4.Frag_898.chk"
 --------
 Frag_898
 --------
 Charge =  0 Multiplicity = 1

 SCF Done:  E(RHF) =  -277.754347228     A.U. after   13 cycles
 E2 =    -0.1249563654D+01 EUMP2 =    -0.27900391088222D+03
 Normal termination of Gaussian 09 at Sun Aug 21 15:29:22 2022.
 SCF Done:  E(RHF) =  -277.776928614     A.U. after   10 cycles
 Normal termination of Gaussian 09 at Sun Aug 21 15:31:46 2022.

                         Standard orientation:
 ---------------------------------------------------------------------
 Center     Atomic      Atomic             Coordinates (Angstroms)
 Number     Number       Type             X           Y           Z
 ---------------------------------------------------------------------
      1          6           0       -1.750337   -0.033048   -0.000008
      2          7           0       -0.716429   -0.762698   -0.000004
      3          7           0        0.540041    0.071904    0.000068
      4          7           0        1.599654   -0.605162   -0.000053
      5          8           0        0.455473    1.291263   -0.000013
      6          1           0       -1.683711    1.056017    0.000011
      7          1           0       -2.714269   -0.534579   -0.000054
      8          1           0        1.293356   -1.581567    0.000119
 ---------------------------------------------------------------------

 SCF Done:  E(RHF) =  -277.781378034     A.U. after    8 cycles

 The electronic state is 1-A.
 Alpha  occ. eigenvalues --  -20.57158 -15.82439 -15.65219 -15.61860 -11.33032
 Alpha  occ. eigenvalues --   -1.55379  -1.30967  -1.26351  -0.94464  -0.83628
 Alpha  occ. eigenvalues --   -0.78434  -0.70700  -0.69815  -0.67650  -0.53794
 Alpha  occ. eigenvalues --   -0.50378  -0.50271  -0.45575  -0.40693
 Alpha virt. eigenvalues --    0.03224   0.03757   0.04741   0.05595   0.07714
 Alpha virt. eigenvalues --    0.08275   0.09370   0.09437   0.10889   0.12524
 Alpha virt. eigenvalues --    0.12564   0.13971   0.15146   0.16176   0.16376

 Mulliken charges:
               1
     1  C   -0.147739
     2  N   -0.279595
     3  N    0.505157
     4  N   -0.440588
     5  O   -0.481459
     6  H    0.263616
     7  H    0.251146
     8  H    0.329463
 Sum of Mulliken charges =  -0.00000

 Dipole moment (field-independent basis, Debye):
    X=             -4.0010    Y=             -1.7747    Z=              0.0003  Tot=              4.3770
 Quadrupole moment (field-independent basis, Debye-Ang):
   XX=            -25.7094   YY=            -30.7682   ZZ=            -29.2510
   XY=             -3.5143   XZ=              0.0005   YZ=             -0.0003

 Normal termination of Gaussian 09 at Sun Aug 21 16:31:28 2022.
