 Gaussian 09, Revision E.01,
 Gaussian 09:  ES64L-G09RevE.01 30-Nov-2015

 -----
 #P G4
 -----

 --------
 Frag_619
 --------
 Symbolic Z-matrix:
 Charge =  0 Multiplicity = 1

 SCF Done:  E(RB3LYP) =  -305.064729963     A.U. after   12 cycles
 SCF Done:  E(RB3LYP) =  -305.071198714     A.U. after   11 cycles
 SCF Done:  E(RB3LYP) =  -305.071600790     A.U. after   10 cycles
 SCF Done:  E(RB3LYP) =  -305.071794233     A.U. after   10 cycles
 SCF Done:  E(RB3LYP) =  -305.071910561     A.U. after   10 cycles
 SCF Done:  E(RB3LYP) =  -305.072009189     A.U. after   10 cycles
 SCF Done:  E(RB3LYP) =  -305.072068581     A.U. after   10 cycles
 SCF Done:  E(RB3LYP) =  -305.072132907     A.U. after   11 cycles
 SCF Done:  E(RB3LYP) =  -305.072143560     A.U. after   10 cycles
 SCF Done:  E(RB3LYP) =  -305.048407662     A.U. after   12 cycles
 SCF Done:  E(RB3LYP) =  -305.079177087     A.U. after    9 cycles
 SCF Done:  E(RB3LYP) =  -305.079178627     A.U. after    7 cycles
 SCF Done:  E(RB3LYP) =  -305.079178813     A.U. after    7 cycles
 Optimization completed.
    -- Stationary point found.
 Normal termination of Gaussian 09 at Fri Aug 26 08:51:25 2022.

 ----------------------------------------------------------
 #P Geom=AllCheck Guess=TCheck SCRF=Check B3LYP/GTBas3 Freq
 ----------------------------------------------------------

 Structure from the checkpoint file:  "G4.Frag_619.chk"
 --------
 Frag_619
 --------
 Charge =  0 Multiplicity = 1

 SCF Done:  E(RB3LYP) =  -305.079178813     A.U. after    1 cycles

  Exact polarizability:  58.636   0.678  50.089  -0.662  -0.764  50.326
 Approx polarizability:  73.828   2.350  71.717  -1.385  -1.434  70.748

                      1                      2                      3
                      A                      A                      A
 Frequencies --    126.3700               167.5769               209.0671
 Red. masses --      1.6143                 1.3410                 1.1749
 Frc consts  --      0.0152                 0.0222                 0.0303
 IR Inten    --      2.1843                27.5583                 5.6650

                      4                      5                      6
                      A                      A                      A
 Frequencies --    249.2204               274.6169               321.1618
 Red. masses --      1.0355                 2.3938                 1.2915
 Frc consts  --      0.0379                 0.1064                 0.0785
 IR Inten    --      0.2360                 0.5284                34.7234

                      7                      8                      9
                      A                      A                      A
 Frequencies --    360.0908               401.5978               483.9378
 Red. masses --      2.3484                 2.3673                 2.4728
 Frc consts  --      0.1794                 0.2250                 0.3412
 IR Inten    --      8.7611                 4.1622                16.0294

                     10                     11                     12
                      A                      A                      A
 Frequencies --    522.1203               582.9635               747.8100
 Red. masses --      3.9813                 2.9979                 1.7734
 Frc consts  --      0.6395                 0.6003                 0.5843
 IR Inten    --      2.3480                 0.9314               107.1015

                     13                     14                     15
                      A                      A                      A
 Frequencies --    780.5350               882.2938               925.2439
 Red. masses --      3.6041                 1.5604                 1.5584
 Frc consts  --      1.2937                 0.7157                 0.7860
 IR Inten    --     19.3535               174.5528                25.6082

                     16                     17                     18
                      A                      A                      A
 Frequencies --    960.2621              1011.7433              1091.0621
 Red. masses --      1.6945                 1.7307                 1.6685
 Frc consts  --      0.9206                 1.0438                 1.1703
 IR Inten    --      8.1545                21.4270                57.9780

                     19                     20                     21
                      A                      A                      A
 Frequencies --   1113.2363              1181.4606              1207.7588
 Red. masses --      4.0892                 1.2881                 2.5401
 Frc consts  --      2.9858                 1.0593                 2.1831
 IR Inten    --     90.0764                 1.9844               121.0246

                     22                     23                     24
                      A                      A                      A
 Frequencies --   1218.8280              1318.2616              1336.9984
 Red. masses --      1.5044                 2.0120                 1.8440
 Frc consts  --      1.3167                 2.0601                 1.9421
 IR Inten    --     14.4295                55.8159                44.1994

                     25                     26                     27
                      A                      A                      A
 Frequencies --   1402.4368              1465.7382              1479.5945
 Red. masses --      1.3811                 1.1579                 1.0521
 Frc consts  --      1.6005                 1.4657                 1.3570
 IR Inten    --     22.6663                 3.7561                 0.3490

                     28                     29                     30
                      A                      A                      A
 Frequencies --   1483.8760              1496.9020              1523.4113
 Red. masses --      1.0516                 1.0652                 1.0494
 Frc consts  --      1.3642                 1.4063                 1.4350
 IR Inten    --      1.8887                 0.9250                 5.8598

                     31                     32                     33
                      A                      A                      A
 Frequencies --   1633.9382              1649.1171              3014.4932
 Red. masses --      1.1129                 1.1066                 1.0321
 Frc consts  --      1.7505                 1.7731                 5.5257
 IR Inten    --     30.9586                41.3443                53.5287

                     34                     35                     36
                      A                      A                      A
 Frequencies --   3040.5953              3075.1938              3114.7294
 Red. masses --      1.0358                 1.1036                 1.1014
 Frc consts  --      5.6422                 6.1492                 6.2957
 IR Inten    --     14.2047                33.6000                14.9148

                     37                     38                     39
                      A                      A                      A
 Frequencies --   3116.3444              3131.5969              3482.9713
 Red. masses --      1.1013                 1.1018                 1.0487
 Frc consts  --      6.3017                 6.3661                 7.4956
 IR Inten    --     37.9971                17.9038                 0.3304

                     40                     41                     42
                      A                      A                      A
 Frequencies --   3529.1661              3569.8284              3623.2058
 Red. masses --      1.0491                 1.0925                 1.0941
 Frc consts  --      7.6988                 8.2028                 8.4624
 IR Inten    --      2.2884                 0.2156                 4.3905

 - Thermochemistry -
 -------------------
 Temperature   298.150 Kelvin.  Pressure   1.00000 Atm.
 Atom     1 has atomic number  6 and mass  12.00000

 Molecular mass:    90.07931 amu.
 Principal axes and moments of inertia in atomic units:
                           1         2         3
     Eigenvalues --   386.79753 628.43310 641.53244
           X            0.99945  -0.03322   0.00165
           Y            0.03322   0.99417  -0.10255
           Z            0.00176   0.10255   0.99473
 This molecule is an asymmetric top.
 Rotational symmetry number  1.
 Rotational temperatures (Kelvin)      0.22393     0.13783     0.13501
 Rotational constants (GHZ):           4.66586     2.87181     2.81317
 Zero-point vibrational energy     372680.7 (Joules/Mol)
                                   89.07284 (Kcal/Mol)
 Warning -- explicit consideration of  11 degrees of freedom as
           vibrations may cause significant error
 Vibrational temperatures:    181.82   241.11   300.80   358.57   395.11
          (Kelvin)            462.08   518.09   577.81   696.28   751.21
                              838.75  1075.93  1123.01  1269.42  1331.22
                             1381.60  1455.67  1569.79  1601.70  1699.86
                             1737.69  1753.62  1896.68  1923.64  2017.79
                             2108.87  2128.80  2134.96  2153.71  2191.85
                             2350.87  2372.71  4337.18  4374.73  4424.51
                             4481.40  4483.72  4505.66  5011.21  5077.68
                             5136.18  5212.98

 Zero-point correction=                           0.141947 (Hartree/Particle)
 Thermal correction to Energy=                    0.149753
 Thermal correction to Enthalpy=                  0.150698
 Thermal correction to Gibbs Free Energy=         0.111129
 Sum of electronic and zero-point Energies=           -304.937232
 Sum of electronic and thermal Energies=              -304.929425
 Sum of electronic and thermal Enthalpies=            -304.928481
 Sum of electronic and thermal Free Energies=         -304.968050

                     E (Thermal)             CV                S
                      KCal/Mol        Cal/Mol-Kelvin    Cal/Mol-Kelvin
 Total                   93.972             28.516             83.280
 Electronic               0.000              0.000              0.000
 Translational            0.889              2.981             39.407
 Rotational               0.889              2.981             26.547
 Vibrational             92.194             22.554             17.326
 Vibration     1          0.611              1.927              3.001
 Vibration     2          0.624              1.882              2.462
 Vibration     3          0.642              1.827              2.052
 Vibration     4          0.662              1.764              1.736
 Vibration     5          0.677              1.720              1.567
 Vibration     6          0.707              1.633              1.304
 Vibration     7          0.735              1.554              1.122
 Vibration     8          0.767              1.467              0.957
 Vibration     9          0.840              1.286              0.700
 Vibration    10          0.877              1.201              0.605
 Vibration    11          0.940              1.068              0.480

 Optimization completed.
    -- Stationary point found.
 Normal termination of Gaussian 09 at Fri Aug 26 08:52:04 2022.

 -----------------------------------------------------------------
 #P Geom=AllCheck Guess=TCheck SCRF=Check CCSD(T,E4T,FrzG4)/GTBas1
 -----------------------------------------------------------------

 Structure from the checkpoint file:  "G4.Frag_619.chk"
 --------
 Frag_619
 --------
 Charge =  0 Multiplicity = 1

 SCF Done:  E(RHF) =  -303.161706941     A.U. after   12 cycles
 E2 =    -0.9023674403D+00 EUMP2 =    -0.30406407438102D+03
 CCSD(T)
 CCSD(T)= -0.30414638439D+03
 DTQ=-304.1459913\MP4SDQ=-304.1197127\CCSD=-304.1203541\CCSD(T)=-304.14
 Normal termination of Gaussian 09 at Fri Aug 26 08:54:36 2022.

 ---------------------------------------------------------
 #P Geom=AllCheck Guess=TCheck SCRF=Check MP4=FrzG4/GTBas2
 ---------------------------------------------------------

 Structure from the checkpoint file:  "G4.Frag_619.chk"
 --------
 Frag_619
 --------
 Charge =  0 Multiplicity = 1

 SCF Done:  E(RHF) =  -303.172635524     A.U. after   12 cycles
 E2 =    -0.9177123088D+00 EUMP2 =    -0.30409034783297D+03
 Normal termination of Gaussian 09 at Fri Aug 26 08:55:27 2022.

 ---------------------------------------------------------
 #P Geom=AllCheck Guess=TCheck SCRF=Check MP4=FrzG4/GTBas3
 ---------------------------------------------------------

 Structure from the checkpoint file:  "G4.Frag_619.chk"
 --------
 Frag_619
 --------
 Charge =  0 Multiplicity = 1

 SCF Done:  E(RHF) =  -303.205196697     A.U. after   10 cycles
 E2 =    -0.1119406148D+01 EUMP2 =    -0.30432460284526D+03
 Normal termination of Gaussian 09 at Fri Aug 26 09:00:06 2022.

 -----------------------------------------------------------
 #P Geom=AllCheck Guess=TCheck SCRF=Check MP2=Full/GTLargeXP
 -----------------------------------------------------------

 Structure from the checkpoint file:  "G4.Frag_619.chk"
 --------
 Frag_619
 --------
 Charge =  0 Multiplicity = 1

 SCF Done:  E(RHF) =  -303.285201167     A.U. after   11 cycles
 E2 =    -0.1459909377D+01 EUMP2 =    -0.30474511054347D+03
 Normal termination of Gaussian 09 at Fri Aug 26 09:02:28 2022.
 SCF Done:  E(RHF) =  -303.308782799     A.U. after    8 cycles
 Normal termination of Gaussian 09 at Fri Aug 26 09:04:41 2022.

                         Standard orientation:
 ---------------------------------------------------------------------
 Center     Atomic      Atomic             Coordinates (Angstroms)
 Number     Number       Type             X           Y           Z
 ---------------------------------------------------------------------
      1          6           0       -2.012766   -0.130117   -0.085742
      2          8           0       -0.769212   -0.805877   -0.037084
      3          6           0        0.381630    0.021245    0.003404
      4          6           0        1.546274   -0.948489   -0.227578
      5          7           0        0.389893    0.684067    1.315275
      6          7           0        0.362839    1.035812   -1.036622
      7          1           0       -2.783143   -0.904989   -0.098968
      8          1           0       -2.098015    0.477206   -0.994773
      9          1           0       -2.162771    0.513632    0.789694
     10          1           0        1.481402   -1.773618    0.485161
     11          1           0        1.500554   -1.364471   -1.237925
     12          1           0        2.506062   -0.439410   -0.092654
     13          1           0        1.260088    1.193711    1.439089
     14          1           0        0.345858   -0.021691    2.045671
     15          1           0        1.267091    1.142571   -1.476844
     16          1           0        0.076615    1.929082   -0.652848
 ---------------------------------------------------------------------

 SCF Done:  E(RHF) =  -303.314109802     A.U. after    8 cycles

 The electronic state is 1-A.
 Alpha  occ. eigenvalues --  -20.54110 -15.54375 -15.54058 -11.34013 -11.25123
 Alpha  occ. eigenvalues --  -11.21641  -1.37795  -1.20857  -1.13077  -0.99082
 Alpha  occ. eigenvalues --   -0.90733  -0.79111  -0.68970  -0.67942  -0.65809
 Alpha  occ. eigenvalues --   -0.62600  -0.59599  -0.57776  -0.54785  -0.53752
 Alpha  occ. eigenvalues --   -0.51407  -0.47666  -0.43553  -0.41364  -0.40076
 Alpha virt. eigenvalues --    0.03304   0.04289   0.05071   0.05181   0.06835
 Alpha virt. eigenvalues --    0.07029   0.07397   0.08136   0.08535   0.09975
 Alpha virt. eigenvalues --    0.11161   0.11925   0.12695   0.14018   0.14244

 Mulliken charges:
               1
     1  C   -0.396274
     2  O   -0.342348
     3  C    0.562595
     4  C   -0.567827
     5  N   -0.758218
     6  N   -0.795290
     7  H    0.172523
     8  H    0.179732
     9  H    0.180481
    10  H    0.189131
    11  H    0.187936
    12  H    0.163416
    13  H    0.293841
    14  H    0.302144
    15  H    0.304619
    16  H    0.323537
 Sum of Mulliken charges =  -0.00000

 Dipole moment (field-independent basis, Debye):
    X=              1.9147    Y=              1.0669    Z=              0.7379  Tot=              2.3127
 Quadrupole moment (field-independent basis, Debye-Ang):
   XX=            -34.0434   YY=            -38.4988   ZZ=            -38.8699
   XY=              1.2363   XZ=              0.0733   YZ=             -1.4778

 Normal termination of Gaussian 09 at Fri Aug 26 09:13:11 2022.
