 Gaussian 09, Revision E.01,
 Gaussian 09:  ES64L-G09RevE.01 30-Nov-2015

 -----
 #P G4
 -----

 --------
 Frag_517
 --------
 Symbolic Z-matrix:
 Charge =  0 Multiplicity = 1

 SCF Done:  E(RB3LYP) =  -244.641700933     A.U. after   13 cycles
 SCF Done:  E(RB3LYP) =  -244.655601469     A.U. after   13 cycles
 SCF Done:  E(RB3LYP) =  -244.660498319     A.U. after   12 cycles
 SCF Done:  E(RB3LYP) =  -244.664907730     A.U. after   13 cycles
 SCF Done:  E(RB3LYP) =  -244.668492600     A.U. after   12 cycles
 SCF Done:  E(RB3LYP) =  -244.670263710     A.U. after   12 cycles
 SCF Done:  E(RB3LYP) =  -244.670350036     A.U. after   10 cycles
 SCF Done:  E(RB3LYP) =  -244.670371024     A.U. after   10 cycles
 SCF Done:  E(RB3LYP) =  -244.670382151     A.U. after    9 cycles
 SCF Done:  E(RB3LYP) =  -244.670385028     A.U. after    8 cycles
 SCF Done:  E(RB3LYP) =  -244.670386000     A.U. after    8 cycles
 Optimization completed.
    -- Stationary point found.
 Normal termination of Gaussian 09 at Sun Aug 21 07:18:15 2022.

 ----------------------------------------------------------
 #P Geom=AllCheck Guess=TCheck SCRF=Check B3LYP/GTBas3 Freq
 ----------------------------------------------------------

 Structure from the checkpoint file:  "G4.Frag_517.chk"
 --------
 Frag_517
 --------
 Charge =  0 Multiplicity = 1

 SCF Done:  E(RB3LYP) =  -244.670386000     A.U. after    1 cycles

  Exact polarizability:  61.013  -3.961  44.914   1.113   0.308  29.974
 Approx polarizability:  83.813 -11.690  68.955   0.381   1.883  44.567

                      1                      2                      3
                      A                      A                      A
 Frequencies --    172.1813               219.8951               286.4486
 Red. masses --      1.1066                 1.1043                 2.9019
 Frc consts  --      0.0193                 0.0315                 0.1403
 IR Inten    --      0.5079                18.5737                10.3697

                      4                      5                      6
                      A                      A                      A
 Frequencies --    312.6324               392.4546               500.6284
 Red. masses --      3.0021                 2.5180                 1.1112
 Frc consts  --      0.1729                 0.2285                 0.1641
 IR Inten    --      2.3319                 2.9007                22.8316

                      7                      8                      9
                      A                      A                      A
 Frequencies --    601.9753               615.0563               713.7692
 Red. masses --      2.1803                 3.7263                 1.5979
 Frc consts  --      0.4655                 0.8305                 0.4796
 IR Inten    --     61.5553                10.3307               174.6133

                     10                     11                     12
                      A                      A                      A
 Frequencies --    871.8075               922.2783              1003.2689
 Red. masses --      3.6152                 2.2442                 1.3702
 Frc consts  --      1.6189                 1.1247                 0.8126
 IR Inten    --     11.4420                81.4770                18.4824

                     13                     14                     15
                      A                      A                      A
 Frequencies --   1061.5529              1081.5920              1187.4615
 Red. masses --      1.5690                 1.5878                 1.6906
 Frc consts  --      1.0417                 1.0944                 1.4046
 IR Inten    --      4.9875                24.0268                19.7238

                     16                     17                     18
                      A                      A                      A
 Frequencies --   1309.7997              1371.5172              1423.4110
 Red. masses --      1.5202                 1.5062                 1.9456
 Frc consts  --      1.5366                 1.6693                 2.3225
 IR Inten    --     22.3017                14.8835                28.6636

                     19                     20                     21
                      A                      A                      A
 Frequencies --   1478.5407              1483.6938              1622.5264
 Red. masses --      1.0519                 1.0552                 1.2036
 Frc consts  --      1.3548                 1.3686                 1.8669
 IR Inten    --      6.6745                 5.1861                56.4751

                     22                     23                     24
                      A                      A                      A
 Frequencies --   1659.9925              1741.8876              3025.7314
 Red. masses --      1.1231                 4.7952                 1.0407
 Frc consts  --      1.8234                 8.5722                 5.6138
 IR Inten    --     28.4300                91.4263                29.5333

                     25                     26                     27
                      A                      A                      A
 Frequencies --   3077.0189              3156.0740              3409.5248
 Red. masses --      1.0984                 1.0972                 1.0566
 Frc consts  --      6.1274                 6.4390                 7.2371
 IR Inten    --     19.2223                 6.1387                 3.5122

                     28                     29                     30
                      A                      A                      A
 Frequencies --   3517.9619              3558.7543              3642.9079
 Red. masses --      1.0493                 1.0852                 1.0949
 Frc consts  --      7.6513                 8.0974                 8.5612
 IR Inten    --     13.2402                 5.0473                19.3137

 - Thermochemistry -
 -------------------
 Temperature   298.150 Kelvin.  Pressure   1.00000 Atm.
 Atom     1 has atomic number  6 and mass  12.00000

 Molecular mass:    73.06400 amu.
 Principal axes and moments of inertia in atomic units:
                           1         2         3
     Eigenvalues --   188.08626 440.81013 611.02293
           X            0.99968   0.02269   0.01109
           Y           -0.02251   0.99962  -0.01583
           Z           -0.01145   0.01558   0.99981
 This molecule is an asymmetric top.
 Rotational symmetry number  1.
 Rotational temperatures (Kelvin)      0.46050     0.19649     0.14175
 Rotational constants (GHZ):           9.59528     4.09415     2.95364
 Zero-point vibrational energy     271685.9 (Joules/Mol)
                                   64.93450 (Kcal/Mol)
 Warning -- explicit consideration of   8 degrees of freedom as
           vibrations may cause significant error
 Vibrational temperatures:    247.73   316.38   412.14   449.81   564.65
          (Kelvin)            720.29   866.11   884.93  1026.95  1254.33
                             1326.95  1443.48  1527.34  1556.17  1708.49
                             1884.51  1973.30  2047.97  2127.29  2134.70
                             2334.45  2388.36  2506.18  4353.35  4427.14
                             4540.88  4905.54  5061.56  5120.25  5241.33

 Zero-point correction=                           0.103480 (Hartree/Particle)
 Thermal correction to Energy=                    0.109512
 Thermal correction to Enthalpy=                  0.110456
 Thermal correction to Gibbs Free Energy=         0.074868
 Sum of electronic and zero-point Energies=           -244.566906
 Sum of electronic and thermal Energies=              -244.560874
 Sum of electronic and thermal Enthalpies=            -244.559930
 Sum of electronic and thermal Free Energies=         -244.595518

                     E (Thermal)             CV                S
                      KCal/Mol        Cal/Mol-Kelvin    Cal/Mol-Kelvin
 Total                   68.720             21.411             74.901
 Electronic               0.000              0.000              0.000
 Translational            0.889              2.981             38.783
 Rotational               0.889              2.981             25.430
 Vibrational             66.942             15.449             10.688
 Vibration     1          0.626              1.877              2.412
 Vibration     2          0.647              1.811              1.960
 Vibration     3          0.684              1.699              1.495
 Vibration     4          0.701              1.650              1.348
 Vibration     5          0.760              1.486              0.991
 Vibration     6          0.856              1.249              0.657
 Vibration     7          0.960              1.028              0.446
 Vibration     8          0.975              1.000              0.424

 Normal termination of Gaussian 09 at Sun Aug 21 07:19:45 2022.

 -----------------------------------------------------------------
 #P Geom=AllCheck Guess=TCheck SCRF=Check CCSD(T,E4T,FrzG4)/GTBas1
 -----------------------------------------------------------------

 Structure from the checkpoint file:  "G4.Frag_517.chk"
 --------
 Frag_517
 --------
 Charge =  0 Multiplicity = 1

 SCF Done:  E(RHF) =  -243.112469886     A.U. after   13 cycles
 E2 =    -0.7501035482D+00 EUMP2 =    -0.24386257343393D+03
 CCSD(T)
 CCSD(T)= -0.24392913268D+03
 -243.9041759\CCSD(T)=-243.9291327\RMSD=4.662e-09\PG=C01 [X(C2H7N3)]\\@
 Normal termination of Gaussian 09 at Sun Aug 21 07:21:45 2022.

 ---------------------------------------------------------
 #P Geom=AllCheck Guess=TCheck SCRF=Check MP4=FrzG4/GTBas2
 ---------------------------------------------------------

 Structure from the checkpoint file:  "G4.Frag_517.chk"
 --------
 Frag_517
 --------
 Charge =  0 Multiplicity = 1

 SCF Done:  E(RHF) =  -243.122192267     A.U. after   14 cycles
 E2 =    -0.7622101178D+00 EUMP2 =    -0.24388440238456D+03
 Normal termination of Gaussian 09 at Sun Aug 21 07:23:49 2022.

 ---------------------------------------------------------
 #P Geom=AllCheck Guess=TCheck SCRF=Check MP4=FrzG4/GTBas3
 ---------------------------------------------------------

 Structure from the checkpoint file:  "G4.Frag_517.chk"
 --------
 Frag_517
 --------
 Charge =  0 Multiplicity = 1

 SCF Done:  E(RHF) =  -243.147572168     A.U. after   12 cycles
 E2 =    -0.9112849903D+00 EUMP2 =    -0.24405885715870D+03
 Normal termination of Gaussian 09 at Sun Aug 21 08:03:03 2022.

 -----------------------------------------------------------
 #P Geom=AllCheck Guess=TCheck SCRF=Check MP2=Full/GTLargeXP
 -----------------------------------------------------------

 Structure from the checkpoint file:  "G4.Frag_517.chk"
 --------
 Frag_517
 --------
 Charge =  0 Multiplicity = 1

 SCF Done:  E(RHF) =  -243.211200680     A.U. after   13 cycles
 E2 =    -0.1190192342D+01 EUMP2 =    -0.24440139302184D+03
 Normal termination of Gaussian 09 at Sun Aug 21 08:05:39 2022.
 SCF Done:  E(RHF) =  -243.230208670     A.U. after    8 cycles
 Normal termination of Gaussian 09 at Sun Aug 21 08:08:35 2022.

                         Standard orientation:
 ---------------------------------------------------------------------
 Center     Atomic      Atomic             Coordinates (Angstroms)
 Number     Number       Type             X           Y           Z
 ---------------------------------------------------------------------
      1          6           0       -1.782694   -0.587697    0.020176
      2          6           0       -0.393258   -0.022886   -0.006910
      3          7           0       -0.267535    1.360815    0.060291
      4          7           0        0.608956   -0.822433   -0.036006
      5          7           0        1.863033   -0.146366   -0.068263
      6          1           0       -2.321033   -0.265131    0.918996
      7          1           0       -1.730380   -1.676185    0.009952
      8          1           0       -2.362631   -0.249270   -0.847632
      9          1           0       -1.085232    1.878095   -0.227929
     10          1           0        0.582726    1.692994   -0.382292
     11          1           0        2.568631   -0.873373   -0.023996
     12          1           0        1.972451    0.412258    0.781154
 ---------------------------------------------------------------------

 SCF Done:  E(RHF) =  -243.234224212     A.U. after    8 cycles

 The electronic state is 1-A.
 Alpha  occ. eigenvalues --  -15.57117 -15.56699 -15.55594 -11.30120 -11.22996
 Alpha  occ. eigenvalues --   -1.29817  -1.19441  -1.06378  -0.96652  -0.76089
 Alpha  occ. eigenvalues --   -0.71499  -0.67315  -0.64021  -0.59948  -0.54976
 Alpha  occ. eigenvalues --   -0.54335  -0.53199  -0.46443  -0.41579  -0.33060
 Alpha virt. eigenvalues --    0.03588   0.04506   0.05474   0.05919   0.07352
 Alpha virt. eigenvalues --    0.07767   0.08082   0.10394   0.10797   0.11004
 Alpha virt. eigenvalues --    0.11847   0.12540   0.13138   0.14697   0.15450

 Mulliken charges:
               1
     1  C   -0.508649
     2  C    0.411266
     3  N   -0.750018
     4  N   -0.371729
     5  N   -0.643092
     6  H    0.193900
     7  H    0.209967
     8  H    0.178888
     9  H    0.308470
    10  H    0.341498
    11  H    0.321642
    12  H    0.307857
 Sum of Mulliken charges =  -0.00000

 Dipole moment (field-independent basis, Debye):
    X=             -1.1470    Y=              1.8014    Z=              0.2391  Tot=              2.1489
 Quadrupole moment (field-independent basis, Debye-Ang):
   XX=            -25.8439   YY=            -31.1040   ZZ=            -32.9135
   XY=             -0.9976   XZ=              2.8261   YZ=             -1.5315

 Normal termination of Gaussian 09 at Sun Aug 21 09:38:39 2022.
