 Gaussian 09, Revision E.01,
 Gaussian 09:  ES64L-G09RevE.01 30-Nov-2015

 -----
 #P G4
 -----

 --------
 Frag_716
 --------
 Symbolic Z-matrix:
 Charge =  0 Multiplicity = 1

 SCF Done:  E(RB3LYP) =  -342.405594295     A.U. after   15 cycles
 SCF Done:  E(RB3LYP) =  -342.427665710     A.U. after   13 cycles
 SCF Done:  E(RB3LYP) =  -342.430595903     A.U. after   12 cycles
 SCF Done:  E(RB3LYP) =  -342.430852294     A.U. after   10 cycles
 SCF Done:  E(RB3LYP) =  -342.430875888     A.U. after    9 cycles
 SCF Done:  E(RB3LYP) =  -342.430875677     A.U. after    9 cycles
 SCF Done:  E(RB3LYP) =  -342.430877588     A.U. after    9 cycles
 Optimization completed.
    -- Stationary point found.
 Normal termination of Gaussian 09 at Fri Aug 26 05:55:46 2022.

 ----------------------------------------------------------
 #P Geom=AllCheck Guess=TCheck SCRF=Check B3LYP/GTBas3 Freq
 ----------------------------------------------------------

 Structure from the checkpoint file:  "G4.Frag_716.chk"
 --------
 Frag_716
 --------
 Charge =  0 Multiplicity = 1

 SCF Done:  E(RB3LYP) =  -342.430877588     A.U. after    1 cycles

  Exact polarizability:  43.371  -1.576  48.890  -0.001  -0.001  26.593
 Approx polarizability:  55.638   0.843  88.213  -0.004  -0.007  40.207

                      1                      2                      3
                      A                      A                      A
 Frequencies --     90.3183               126.7644               253.3593
 Red. masses --      1.9445                 1.6621                 4.0518
 Frc consts  --      0.0093                 0.0157                 0.1532
 IR Inten    --      6.1112                 0.9712                24.2931

                      4                      5                      6
                      A                      A                      A
 Frequencies --    395.8533               398.1497               526.5835
 Red. masses --      4.7556                 4.4091                 6.2592
 Frc consts  --      0.4391                 0.4118                 1.0226
 IR Inten    --     12.9715                14.7728                 3.3087

                      7                      8                      9
                      A                      A                      A
 Frequencies --    606.8883               712.4910               756.0397
 Red. masses --      4.3789                 2.0183                 1.3363
 Frc consts  --      0.9502                 0.6037                 0.4500
 IR Inten    --     15.5637                52.1014                38.9824

                     10                     11                     12
                      A                      A                      A
 Frequencies --    769.0053               977.5471              1035.9308
 Red. masses --      6.6743                 1.9922                 2.0061
 Frc consts  --      2.3255                 1.1217                 1.2684
 IR Inten    --      7.4263                15.7243                 1.8113

                     13                     14                     15
                      A                      A                      A
 Frequencies --   1163.5349              1254.8792              1384.1268
 Red. masses --      3.3968                 2.1560                 1.3018
 Frc consts  --      2.7094                 2.0003                 1.4694
 IR Inten    --     67.5299                73.4825               172.3196

                     16                     17                     18
                      A                      A                      A
 Frequencies --   1411.3245              1450.6569              1456.9884
 Red. masses --      2.1212                 1.0597                 1.0480
 Frc consts  --      2.4894                 1.3139                 1.3108
 IR Inten    --    198.6123                11.6727                 9.2817

                     19                     20                     21
                      A                      A                      A
 Frequencies --   1801.0331              1870.2797              3049.4511
 Red. masses --     11.0860                10.1838                 1.0359
 Frc consts  --     21.1869                20.9880                 5.6757
 IR Inten    --     97.6331               197.3602                 0.1841

                     22                     23                     24
                      A                      A                      A
 Frequencies --   3109.1999              3165.9083              3618.9410
 Red. masses --      1.0966                 1.1044                 1.0640
 Frc consts  --      6.2460                 6.5217                 8.2106
 IR Inten    --      0.4656                 5.3840               105.1395

 - Thermochemistry -
 -------------------
 Temperature   298.150 Kelvin.  Pressure   1.00000 Atm.
 Atom     1 has atomic number  6 and mass  12.00000

 Molecular mass:    88.01604 amu.
 Principal axes and moments of inertia in atomic units:
                           1         2         3
     Eigenvalues --   327.19795 501.97969 818.18077
           X            0.98940  -0.14518   0.00000
           Y            0.14518   0.98940   0.00000
           Z           -0.00000  -0.00000   1.00000
 This molecule is an asymmetric top.
 Rotational symmetry number  1.
 Rotational temperatures (Kelvin)      0.26471     0.17254     0.10586
 Rotational constants (GHZ):           5.51575     3.59525     2.20580
 Zero-point vibrational energy     187725.5 (Joules/Mol)
                                   44.86747 (Kcal/Mol)
 Warning -- explicit consideration of   7 degrees of freedom as
           vibrations may cause significant error
 Vibrational temperatures:    129.95   182.39   364.53   569.54   572.85
          (Kelvin)            757.64   873.18  1025.11  1087.77  1106.43
                             1406.47  1490.47  1674.07  1805.49  1991.45
                             2030.58  2087.17  2096.28  2591.28  2690.91
                             4387.47  4473.44  4555.03  5206.84

 Zero-point correction=                           0.071501 (Hartree/Particle)
 Thermal correction to Energy=                    0.077661
 Thermal correction to Enthalpy=                  0.078605
 Thermal correction to Gibbs Free Energy=         0.041460
 Sum of electronic and zero-point Energies=           -342.359377
 Sum of electronic and thermal Energies=              -342.353216
 Sum of electronic and thermal Enthalpies=            -342.352272
 Sum of electronic and thermal Free Energies=         -342.389418

                     E (Thermal)             CV                S
                      KCal/Mol        Cal/Mol-Kelvin    Cal/Mol-Kelvin
 Total                   48.733             20.575             78.179
 Electronic               0.000              0.000              0.000
 Translational            0.889              2.981             39.338
 Rotational               0.889              2.981             26.399
 Vibrational             46.956             14.614             12.442
 Vibration     1          0.602              1.956              3.653
 Vibration     2          0.611              1.926              2.995
 Vibration     3          0.665              1.757              1.707
 Vibration     4          0.763              1.479              0.978
 Vibration     5          0.764              1.474              0.969
 Vibration     6          0.882              1.191              0.595
 Vibration     7          0.966              1.017              0.438

 Optimization completed.
    -- Stationary point found.
 Normal termination of Gaussian 09 at Fri Aug 26 05:56:09 2022.

 -----------------------------------------------------------------
 #P Geom=AllCheck Guess=TCheck SCRF=Check CCSD(T,E4T,FrzG4)/GTBas1
 -----------------------------------------------------------------

 Structure from the checkpoint file:  "G4.Frag_716.chk"
 --------
 Frag_716
 --------
 Charge =  0 Multiplicity = 1

 SCF Done:  E(RHF) =  -340.527312241     A.U. after   14 cycles
 E2 =    -0.9099300837D+00 EUMP2 =    -0.34143724232502D+03
 CCSD(T)
 CCSD(T)= -0.34149250171D+03
 Normal termination of Gaussian 09 at Fri Aug 26 05:57:34 2022.

 ---------------------------------------------------------
 #P Geom=AllCheck Guess=TCheck SCRF=Check MP4=FrzG4/GTBas2
 ---------------------------------------------------------

 Structure from the checkpoint file:  "G4.Frag_716.chk"
 --------
 Frag_716
 --------
 Charge =  0 Multiplicity = 1

 SCF Done:  E(RHF) =  -340.536738757     A.U. after   12 cycles
 E2 =    -0.9229287599D+00 EUMP2 =    -0.34145966751671D+03
 Normal termination of Gaussian 09 at Fri Aug 26 05:58:01 2022.

 ---------------------------------------------------------
 #P Geom=AllCheck Guess=TCheck SCRF=Check MP4=FrzG4/GTBas3
 ---------------------------------------------------------

 Structure from the checkpoint file:  "G4.Frag_716.chk"
 --------
 Frag_716
 --------
 Charge =  0 Multiplicity = 1

 SCF Done:  E(RHF) =  -340.566537461     A.U. after   12 cycles
 E2 =    -0.1109737761D+01 EUMP2 =    -0.34167627522173D+03
 Normal termination of Gaussian 09 at Fri Aug 26 06:00:16 2022.

 -----------------------------------------------------------
 #P Geom=AllCheck Guess=TCheck SCRF=Check MP2=Full/GTLargeXP
 -----------------------------------------------------------

 Structure from the checkpoint file:  "G4.Frag_716.chk"
 --------
 Frag_716
 --------
 Charge =  0 Multiplicity = 1

 SCF Done:  E(RHF) =  -340.659345881     A.U. after   12 cycles
 E2 =    -0.1452750695D+01 EUMP2 =    -0.34211209657603D+03
 Normal termination of Gaussian 09 at Fri Aug 26 06:01:44 2022.
 SCF Done:  E(RHF) =  -340.686555581     A.U. after    9 cycles
 Normal termination of Gaussian 09 at Fri Aug 26 06:02:57 2022.

                         Standard orientation:
 ---------------------------------------------------------------------
 Center     Atomic      Atomic             Coordinates (Angstroms)
 Number     Number       Type             X           Y           Z
 ---------------------------------------------------------------------
      1          6           0        1.791775   -0.712537    0.000120
      2          6           0        0.673640    0.283911    0.000131
      3          8           0        0.806067    1.488861   -0.000163
      4          6           0       -0.768024   -0.284240   -0.000505
      5          8           0       -1.012336   -1.459641    0.000019
      6          8           0       -1.687258    0.681875    0.000235
      7          1           0        2.754990   -0.202672    0.000193
      8          1           0        1.699815   -1.365875    0.874090
      9          1           0        1.699916   -1.365805   -0.873914
     10          1           0       -1.190855    1.522789    0.000428
 ---------------------------------------------------------------------

 SCF Done:  E(RHF) =  -340.692247096     A.U. after    8 cycles

 The electronic state is 1-A.
 Alpha  occ. eigenvalues --  -20.62487 -20.60490 -20.57438 -11.40750 -11.38140
 Alpha  occ. eigenvalues --  -11.26106  -1.49018  -1.43744  -1.39091  -1.05308
 Alpha  occ. eigenvalues --   -0.91471  -0.82550  -0.74670  -0.69886  -0.66639
 Alpha  occ. eigenvalues --   -0.65608  -0.62621  -0.61408  -0.57393  -0.54057
 Alpha  occ. eigenvalues --   -0.53928  -0.50061  -0.44586
 Alpha virt. eigenvalues --    0.03404   0.04623   0.05008   0.05208   0.05539
 Alpha virt. eigenvalues --    0.06978   0.07335   0.07473   0.08063   0.08218
 Alpha virt. eigenvalues --    0.09950   0.13242   0.14382   0.15114   0.15464

 Mulliken charges:
               1
     1  C   -0.531431
     2  C    0.448759
     3  O   -0.524900
     4  C    0.538121
     5  O   -0.501326
     6  O   -0.505332
     7  H    0.216510
     8  H    0.219599
     9  H    0.219575
    10  H    0.420425
 Sum of Mulliken charges =  -0.00000

 Dipole moment (field-independent basis, Debye):
    X=              2.5744    Y=              0.4800    Z=             -0.0004  Tot=              2.6188
 Quadrupole moment (field-independent basis, Debye-Ang):
   XX=            -36.5742   YY=            -39.0973   ZZ=            -32.7750
   XY=             -6.6156   XZ=              0.0013   YZ=              0.0018

 Normal termination of Gaussian 09 at Fri Aug 26 06:08:01 2022.
