 Gaussian 09, Revision E.01,
 Gaussian 09:  ES64L-G09RevE.01 30-Nov-2015

 -----
 #P G4
 -----

 --------
 Frag_890
 --------
 Symbolic Z-matrix:
 Charge =  0 Multiplicity = 1

 SCF Done:  E(RB3LYP) =  -241.164797436     A.U. after   14 cycles
 SCF Done:  E(RB3LYP) =  -241.179562332     A.U. after   14 cycles
 SCF Done:  E(RB3LYP) =  -241.180337617     A.U. after   12 cycles
 SCF Done:  E(RB3LYP) =  -241.180756859     A.U. after   12 cycles
 SCF Done:  E(RB3LYP) =  -241.180786497     A.U. after   12 cycles
 SCF Done:  E(RB3LYP) =  -241.180916080     A.U. after   12 cycles
 SCF Done:  E(RB3LYP) =  -241.180960485     A.U. after   10 cycles
 SCF Done:  E(RB3LYP) =  -241.180966562     A.U. after    8 cycles
 SCF Done:  E(RB3LYP) =  -241.180967081     A.U. after    7 cycles
 SCF Done:  E(RB3LYP) =  -241.180967209     A.U. after    8 cycles
 Optimization completed.
    -- Stationary point found.
 Normal termination of Gaussian 09 at Tue Aug 30 10:24:38 2022.

 ----------------------------------------------------------
 #P Geom=AllCheck Guess=TCheck SCRF=Check B3LYP/GTBas3 Freq
 ----------------------------------------------------------

 Structure from the checkpoint file:  "G4.Frag_890.chk"
 --------
 Frag_890
 --------
 Charge =  0 Multiplicity = 1

 SCF Done:  E(RB3LYP) =  -241.180967209     A.U. after    1 cycles

  Exact polarizability:  32.904   3.029  36.179   0.493  -0.469  15.590
 Approx polarizability:  51.568  10.553  71.780  -0.377  -0.695  23.016

                      1                      2                      3
                      A                      A                      A
 Frequencies --    274.5479               545.5580               633.6825
 Red. masses --      1.0977                 3.0509                 6.4915
 Frc consts  --      0.0488                 0.5350                 1.5358
 IR Inten    --     42.4949                 2.9723                14.4431

                      4                      5                      6
                      A                      A                      A
 Frequencies --    689.7959               778.9600               837.0953
 Red. masses --      3.5444                 1.2557                 3.3357
 Frc consts  --      0.9937                 0.4489                 1.3771
 IR Inten    --     33.0693                89.3417               125.4939

                      7                      8                      9
                      A                      A                      A
 Frequencies --   1016.1538              1247.9187              1277.2845
 Red. masses --      1.8652                 1.3099                 2.4014
 Frc consts  --      1.1347                 1.2018                 2.3083
 IR Inten    --     52.0539                31.6267               102.1399

                     10                     11                     12
                      A                      A                      A
 Frequencies --   1447.9119              1622.0677              1725.9415
 Red. masses --      2.3352                 1.1112                 3.9803
 Frc consts  --      2.8844                 1.7226                 6.9858
 IR Inten    --    214.8148                36.1573               171.1133

                     13                     14                     15
                      A                      A                      A
 Frequencies --   3451.9549              3488.0499              3599.0572
 Red. masses --      1.0740                 1.0465                 1.0978
 Frc consts  --      7.5399                 7.5018                 8.3784
 IR Inten    --      4.0316                16.2100                26.7248

 - Thermochemistry -
 -------------------
 Temperature   298.150 Kelvin.  Pressure   1.00000 Atm.
 Atom     1 has atomic number  7 and mass  14.00307

 Molecular mass:    61.02761 amu.
 Principal axes and moments of inertia in atomic units:
                           1         2         3
     Eigenvalues --   149.28212 159.06068 304.69421
           X            0.99522   0.09470   0.02392
           Y           -0.09444   0.99546  -0.01194
           Z           -0.02494   0.00962   0.99964
 This molecule is an asymmetric top.
 Rotational symmetry number  1.
 Rotational temperatures (Kelvin)      0.58020     0.54453     0.28426
 Rotational constants (GHZ):          12.08947    11.34624     5.92312
 Zero-point vibrational energy     135393.2 (Joules/Mol)
                                   32.35976 (Kcal/Mol)
 Warning -- explicit consideration of   2 degrees of freedom as
           vibrations may cause significant error
 Vibrational temperatures:    395.01   784.94   911.73   992.46  1120.75
          (Kelvin)           1204.39  1462.02  1795.47  1837.73  2083.22
                             2333.79  2483.24  4966.59  5018.52  5178.23

 Zero-point correction=                           0.051569 (Hartree/Particle)
 Thermal correction to Energy=                    0.055530
 Thermal correction to Enthalpy=                  0.056475
 Thermal correction to Gibbs Free Energy=         0.025516
 Sum of electronic and zero-point Energies=           -241.129399
 Sum of electronic and thermal Energies=              -241.125437
 Sum of electronic and thermal Enthalpies=            -241.124493
 Sum of electronic and thermal Free Energies=         -241.155452

                     E (Thermal)             CV                S
                      KCal/Mol        Cal/Mol-Kelvin    Cal/Mol-Kelvin
 Total                   34.846             12.786             65.159
 Electronic               0.000              0.000              0.000
 Translational            0.889              2.981             38.246
 Rotational               0.889              2.981             23.496
 Vibrational             33.068              6.824              3.416
 Vibration     1          0.677              1.720              1.567
 Vibration     2          0.901              1.149              0.553

 Optimization completed.
    -- Stationary point found.
 Normal termination of Gaussian 09 at Tue Aug 30 10:24:49 2022.

 -----------------------------------------------------------------
 #P Geom=AllCheck Guess=TCheck SCRF=Check CCSD(T,E4T,FrzG4)/GTBas1
 -----------------------------------------------------------------

 Structure from the checkpoint file:  "G4.Frag_890.chk"
 --------
 Frag_890
 --------
 Charge =  0 Multiplicity = 1

 SCF Done:  E(RHF) =  -239.794501955     A.U. after   14 cycles
 E2 =    -0.6899315492D+00 EUMP2 =    -0.24048443350385D+03
 CCSD(T)
 CCSD(T)= -0.24052111600D+03
 53\CCSD(T)=-240.521116\RMSD=9.964e-09\PG=C01 [X(H3N3O1)]\\@
 Normal termination of Gaussian 09 at Tue Aug 30 10:25:09 2022.

 ---------------------------------------------------------
 #P Geom=AllCheck Guess=TCheck SCRF=Check MP4=FrzG4/GTBas2
 ---------------------------------------------------------

 Structure from the checkpoint file:  "G4.Frag_890.chk"
 --------
 Frag_890
 --------
 Charge =  0 Multiplicity = 1

 SCF Done:  E(RHF) =  -239.805161428     A.U. after   14 cycles
 E2 =    -0.7005236694D+00 EUMP2 =    -0.24050568509750D+03
 Normal termination of Gaussian 09 at Tue Aug 30 10:25:16 2022.

 ---------------------------------------------------------
 #P Geom=AllCheck Guess=TCheck SCRF=Check MP4=FrzG4/GTBas3
 ---------------------------------------------------------

 Structure from the checkpoint file:  "G4.Frag_890.chk"
 --------
 Frag_890
 --------
 Charge =  0 Multiplicity = 1

 SCF Done:  E(RHF) =  -239.829149732     A.U. after   13 cycles
 E2 =    -0.8257986802D+00 EUMP2 =    -0.24065494841187D+03
 Normal termination of Gaussian 09 at Tue Aug 30 10:25:38 2022.

 -----------------------------------------------------------
 #P Geom=AllCheck Guess=TCheck SCRF=Check MP2=Full/GTLargeXP
 -----------------------------------------------------------

 Structure from the checkpoint file:  "G4.Frag_890.chk"
 --------
 Frag_890
 --------
 Charge =  0 Multiplicity = 1

 SCF Done:  E(RHF) =  -239.898355239     A.U. after   13 cycles
 E2 =    -0.1061428373D+01 EUMP2 =    -0.24095978361221D+03
 Normal termination of Gaussian 09 at Tue Aug 30 10:25:52 2022.
 SCF Done:  E(RHF) =  -239.918617452     A.U. after   11 cycles
 Normal termination of Gaussian 09 at Tue Aug 30 10:26:12 2022.

                         Standard orientation:
 ---------------------------------------------------------------------
 Center     Atomic      Atomic             Coordinates (Angstroms)
 Number     Number       Type             X           Y           Z
 ---------------------------------------------------------------------
      1          7           0       -1.104480   -0.762163    0.008003
      2          7           0       -0.144819    0.063195   -0.002804
      3          7           0        1.198990   -0.419095   -0.110785
      4          8           0       -0.258589    1.284578    0.018735
      5          1           0       -0.699983   -1.695291   -0.096062
      6          1           0        1.781089    0.387616    0.095729
      7          1           0        1.339763   -1.142506    0.589547
 ---------------------------------------------------------------------

 SCF Done:  E(RHF) =  -239.922776851     A.U. after    8 cycles

 The electronic state is 1-A.
 Alpha  occ. eigenvalues --  -20.57457 -15.84063 -15.64924 -15.61269  -1.56269
 Alpha  occ. eigenvalues --   -1.30980  -1.22898  -0.88908  -0.79919  -0.74632
 Alpha  occ. eigenvalues --   -0.71173  -0.67565  -0.51309  -0.50269  -0.47166
 Alpha  occ. eigenvalues --   -0.40616
 Alpha virt. eigenvalues --    0.03772   0.05696   0.06082   0.07612   0.09350
 Alpha virt. eigenvalues --    0.09990   0.10284   0.12809   0.12935   0.13442
 Alpha virt. eigenvalues --    0.15143   0.17539   0.17898   0.18718   0.19098

 Mulliken charges:
               1
     1  N   -0.465706
     2  N    0.523162
     3  N   -0.547681
     4  O   -0.476553
     5  H    0.292430
     6  H    0.354065
     7  H    0.320284
 Sum of Mulliken charges =  -0.00000

 Dipole moment (field-independent basis, Debye):
    X=              3.4745    Y=             -3.0767    Z=              1.1511  Tot=              4.7815
 Quadrupole moment (field-independent basis, Debye-Ang):
   XX=            -23.6498   YY=            -23.0081   ZZ=            -24.0409
   XY=              0.6822   XZ=              2.4460   YZ=             -1.2339

 Normal termination of Gaussian 09 at Tue Aug 30 10:27:51 2022.
