 Gaussian 09, Revision E.01,
 Gaussian 09:  ES64L-G09RevE.01 30-Nov-2015

 -----
 #P G4
 -----

 --------
 Frag_853
 --------
 Symbolic Z-matrix:
 Charge =  0 Multiplicity = 1

 SCF Done:  E(RB3LYP) =  -340.983923914     A.U. after   12 cycles
 SCF Done:  E(RB3LYP) =  -340.990973121     A.U. after   11 cycles
 SCF Done:  E(RB3LYP) =  -340.991620620     A.U. after   10 cycles
 SCF Done:  E(RB3LYP) =  -340.992200071     A.U. after   10 cycles
 SCF Done:  E(RB3LYP) =  -340.992843674     A.U. after   11 cycles
 SCF Done:  E(RB3LYP) =  -340.993738569     A.U. after   11 cycles
 SCF Done:  E(RB3LYP) =  -340.995802418     A.U. after   12 cycles
 SCF Done:  E(RB3LYP) =  -340.997425133     A.U. after   12 cycles
 SCF Done:  E(RB3LYP) =  -341.000033639     A.U. after   11 cycles
 SCF Done:  E(RB3LYP) =  -341.001813300     A.U. after   11 cycles
 SCF Done:  E(RB3LYP) =  -341.006050941     A.U. after    7 cycles
 SCF Done:  E(RB3LYP) =  -341.006051372     A.U. after    7 cycles
 SCF Done:  E(RB3LYP) =  -341.006051581     A.U. after    6 cycles
 Optimization completed.
    -- Stationary point found.
 Normal termination of Gaussian 09 at Sun Aug 21 13:32:56 2022.

 ----------------------------------------------------------
 #P Geom=AllCheck Guess=TCheck SCRF=Check B3LYP/GTBas3 Freq
 ----------------------------------------------------------

 Structure from the checkpoint file:  "G4.Frag_853.chk"
 --------
 Frag_853
 --------
 Charge =  0 Multiplicity = 1

 SCF Done:  E(RB3LYP) =  -341.006051581     A.U. after    1 cycles

  Exact polarizability:  50.842  -0.931  43.954  -1.011   0.134  41.827
 Approx polarizability:  65.658  -1.432  61.912  -0.860  -1.243  61.996

                      1                      2                      3
                      A                      A                      A
 Frequencies --    144.4754               241.5276               249.2468
 Red. masses --      2.8696                 2.6126                 1.0897
 Frc consts  --      0.0353                 0.0898                 0.0399
 IR Inten    --      9.3414                 2.2344                17.7492

                      4                      5                      6
                      A                      A                      A
 Frequencies --    313.5807               337.5122               395.6532
 Red. masses --      1.4033                 1.2821                 3.1086
 Frc consts  --      0.0813                 0.0860                 0.2867
 IR Inten    --     15.1837                68.9185                 4.4579

                      7                      8                      9
                      A                      A                      A
 Frequencies --    442.5495               509.9294               530.2789
 Red. masses --      2.1844                 2.9978                 2.5729
 Frc consts  --      0.2521                 0.4593                 0.4263
 IR Inten    --     17.6992                 7.4199                24.7961

                     10                     11                     12
                      A                      A                      A
 Frequencies --    623.7016               638.2690               793.7616
 Red. masses --      2.8429                 1.3723                 3.0588
 Frc consts  --      0.6516                 0.3294                 1.1355
 IR Inten    --     30.6229                94.8196                47.4951

                     13                     14                     15
                      A                      A                      A
 Frequencies --    857.2005               871.4033               945.2781
 Red. masses --      1.5403                 1.3209                 2.3621
 Frc consts  --      0.6669                 0.5910                 1.2435
 IR Inten    --    141.9790                82.8535               124.6671

                     16                     17                     18
                      A                      A                      A
 Frequencies --   1020.1119              1046.6253              1080.8247
 Red. masses --      2.4488                 1.6814                 2.5150
 Frc consts  --      1.5014                 1.0852                 1.7310
 IR Inten    --    113.9812                18.2112                20.2927

                     19                     20                     21
                      A                      A                      A
 Frequencies --   1120.0068              1223.6044              1286.4859
 Red. masses --      1.5835                 1.7646                 1.4844
 Frc consts  --      1.1703                 1.5566                 1.4475
 IR Inten    --     77.3120               105.5769                14.1147

                     22                     23                     24
                      A                      A                      A
 Frequencies --   1337.9080              1359.6068              1402.2618
 Red. masses --      1.4334                 1.6938                 1.3402
 Frc consts  --      1.5117                 1.8447                 1.5526
 IR Inten    --      4.4686                50.7502                40.0703

                     25                     26                     27
                      A                      A                      A
 Frequencies --   1466.2142              1492.1682              1632.8141
 Red. masses --      1.6082                 1.1020                 1.1372
 Frc consts  --      2.0369                 1.4456                 1.7863
 IR Inten    --    135.5900                16.8451                28.8560

                     28                     29                     30
                      A                      A                      A
 Frequencies --   1641.9686              2989.8361              3083.7223
 Red. masses --      1.1011                 1.0685                 1.0945
 Frc consts  --      1.7491                 5.6276                 6.1322
 IR Inten    --     52.5406                56.9480                25.6017

                     31                     32                     33
                      A                      A                      A
 Frequencies --   3508.2464              3509.3397              3592.9671
 Red. masses --      1.0486                 1.0482                 1.0938
 Frc consts  --      7.6038                 7.6057                 8.3195
 IR Inten    --      0.8668                 1.9670                 4.4520

                     34                     35                     36
                      A                      A                      A
 Frequencies --   3601.8568              3668.9436              3790.7945
 Red. masses --      1.0939                 1.0644                 1.0648
 Frc consts  --      8.3613                 8.4416                 9.0153
 IR Inten    --      3.0052               105.6195                28.0137

 - Thermochemistry -
 -------------------
 Temperature   298.150 Kelvin.  Pressure   1.00000 Atm.
 Atom     1 has atomic number  7 and mass  14.00307

 Molecular mass:    92.05858 amu.
 Principal axes and moments of inertia in atomic units:
                           1         2         3
     Eigenvalues --   347.80479 646.11798 657.80302
           X            0.99996   0.00015  -0.00852
           Y            0.00699  -0.58698   0.80957
           Z            0.00488   0.80960   0.58696
 This molecule is an asymmetric top.
 Rotational symmetry number  1.
 Rotational temperatures (Kelvin)      0.24903     0.13405     0.13167
 Rotational constants (GHZ):           5.18895     2.79321     2.74359
 Zero-point vibrational energy     315519.1 (Joules/Mol)
                                   75.41088 (Kcal/Mol)
 Warning -- explicit consideration of   9 degrees of freedom as
           vibrations may cause significant error
 Vibrational temperatures:    207.87   347.50   358.61   451.17   485.60
          (Kelvin)            569.26   636.73   733.67   762.95   897.37
                              918.33  1142.04  1233.32  1253.75  1360.04
                             1467.71  1505.86  1555.06  1611.44  1760.49
                             1850.96  1924.95  1956.17  2017.54  2109.55
                             2146.89  2349.25  2362.42  4301.70  4436.78
                             5047.58  5049.15  5169.47  5182.26  5278.78
                             5454.10

 Zero-point correction=                           0.120175 (Hartree/Particle)
 Thermal correction to Energy=                    0.127149
 Thermal correction to Enthalpy=                  0.128093
 Thermal correction to Gibbs Free Energy=         0.090212
 Sum of electronic and zero-point Energies=           -340.885877
 Sum of electronic and thermal Energies=              -340.878903
 Sum of electronic and thermal Enthalpies=            -340.877958
 Sum of electronic and thermal Free Energies=         -340.915840

                     E (Thermal)             CV                S
                      KCal/Mol        Cal/Mol-Kelvin    Cal/Mol-Kelvin
 Total                   79.787             26.264             79.728
 Electronic               0.000              0.000              0.000
 Translational            0.889              2.981             39.471
 Rotational               0.889              2.981             26.494
 Vibrational             78.010             20.303             13.762
 Vibration     1          0.616              1.909              2.744
 Vibration     2          0.658              1.777              1.792
 Vibration     3          0.662              1.764              1.736
 Vibration     4          0.701              1.648              1.343
 Vibration     5          0.718              1.601              1.224
 Vibration     6          0.762              1.479              0.979
 Vibration     7          0.802              1.377              0.819
 Vibration     8          0.865              1.228              0.634
 Vibration     9          0.885              1.183              0.587

 Optimization completed.
    -- Stationary point found.
 Normal termination of Gaussian 09 at Sun Aug 21 13:35:19 2022.

 -----------------------------------------------------------------
 #P Geom=AllCheck Guess=TCheck SCRF=Check CCSD(T,E4T,FrzG4)/GTBas1
 -----------------------------------------------------------------

 Structure from the checkpoint file:  "G4.Frag_853.chk"
 --------
 Frag_853
 --------
 Charge =  0 Multiplicity = 1

 SCF Done:  E(RHF) =  -339.002648803     A.U. after   12 cycles
 E2 =    -0.9501220818D+00 EUMP2 =    -0.33995277088457D+03
 CCSD(T)
 CCSD(T)= -0.34002244710D+03
 DQ=-339.9971236\CCSD=-339.9973791\CCSD(T)=-340.0224471\RMSD=4.072e-09\
 Normal termination of Gaussian 09 at Sun Aug 21 13:41:11 2022.

 ---------------------------------------------------------
 #P Geom=AllCheck Guess=TCheck SCRF=Check MP4=FrzG4/GTBas2
 ---------------------------------------------------------

 Structure from the checkpoint file:  "G4.Frag_853.chk"
 --------
 Frag_853
 --------
 Charge =  0 Multiplicity = 1

 SCF Done:  E(RHF) =  -339.017239459     A.U. after   11 cycles
 E2 =    -0.9693999711D+00 EUMP2 =    -0.33998663943017D+03
 Normal termination of Gaussian 09 at Sun Aug 21 13:49:35 2022.

 ---------------------------------------------------------
 #P Geom=AllCheck Guess=TCheck SCRF=Check MP4=FrzG4/GTBas3
 ---------------------------------------------------------

 Structure from the checkpoint file:  "G4.Frag_853.chk"
 --------
 Frag_853
 --------
 Charge =  0 Multiplicity = 1

 SCF Done:  E(RHF) =  -339.054213752     A.U. after   11 cycles
 E2 =    -0.1175432593D+01 EUMP2 =    -0.34022964634433D+03
 Normal termination of Gaussian 09 at Sun Aug 21 15:32:16 2022.

 -----------------------------------------------------------
 #P Geom=AllCheck Guess=TCheck SCRF=Check MP2=Full/GTLargeXP
 -----------------------------------------------------------

 Structure from the checkpoint file:  "G4.Frag_853.chk"
 --------
 Frag_853
 --------
 Charge =  0 Multiplicity = 1

 SCF Done:  E(RHF) =  -339.151443229     A.U. after   11 cycles
 E2 =    -0.1528459953D+01 EUMP2 =    -0.34067990318107D+03
 Normal termination of Gaussian 09 at Sun Aug 21 15:38:07 2022.
 SCF Done:  E(RHF) =  -339.178569870     A.U. after    8 cycles
 Normal termination of Gaussian 09 at Sun Aug 21 15:43:30 2022.

                         Standard orientation:
 ---------------------------------------------------------------------
 Center     Atomic      Atomic             Coordinates (Angstroms)
 Number     Number       Type             X           Y           Z
 ---------------------------------------------------------------------
      1          7           0       -1.988776   -0.001331    0.063584
      2          6           0       -0.824350   -0.717965   -0.463619
      3          6           0        0.446651    0.010428    0.016468
      4          7           0        1.701551   -0.660340   -0.242907
      5          8           0        0.440364    1.237051   -0.685106
      6          8           0        0.386538    0.191108    1.400111
      7          1           0       -2.087250    0.882220   -0.426258
      8          1           0       -2.841947   -0.530406   -0.077163
      9          1           0       -0.793715   -0.800424   -1.560558
     10          1           0       -0.818132   -1.727939   -0.042431
     11          1           0        1.783117   -1.482603    0.345697
     12          1           0        1.748274   -0.947029   -1.215144
     13          1           0        1.227008    1.708949   -0.384546
     14          1           0       -0.555806    0.348878    1.578537
 ---------------------------------------------------------------------

 SCF Done:  E(RHF) =  -339.184641099     A.U. after    8 cycles

 The electronic state is 1-A.
 Alpha  occ. eigenvalues --  -20.55663 -20.55097 -15.55610 -15.54787 -11.36272
 Alpha  occ. eigenvalues --  -11.26008  -1.41891  -1.33207  -1.19062  -1.17242
 Alpha  occ. eigenvalues --   -0.95039  -0.81659  -0.75159  -0.69024  -0.65967
 Alpha  occ. eigenvalues --   -0.64787  -0.63767  -0.60120  -0.58711  -0.54135
 Alpha  occ. eigenvalues --   -0.50954  -0.49339  -0.46809  -0.42670  -0.40284
 Alpha virt. eigenvalues --    0.03283   0.04651   0.05245   0.05480   0.06975
 Alpha virt. eigenvalues --    0.07378   0.07640   0.09460   0.09704   0.11662
 Alpha virt. eigenvalues --    0.12040   0.12589   0.14052   0.15394   0.16039

 Mulliken charges:
               1
     1  N   -0.733825
     2  C   -0.201541
     3  C    0.579478
     4  N   -0.732200
     5  O   -0.623778
     6  O   -0.617688
     7  H    0.315760
     8  H    0.297661
     9  H    0.157805
    10  H    0.166023
    11  H    0.306461
    12  H    0.294721
    13  H    0.384956
    14  H    0.406167
 Sum of Mulliken charges =  -0.00000

 Dipole moment (field-independent basis, Debye):
    X=             -1.6829    Y=             -1.6908    Z=             -1.6443  Tot=              2.8974
 Quadrupole moment (field-independent basis, Debye-Ang):
   XX=            -34.4802   YY=            -33.1409   ZZ=            -39.4497
   XY=              0.1008   XZ=             -0.8061   YZ=              1.2282

 Normal termination of Gaussian 09 at Sun Aug 21 18:26:00 2022.
