 Gaussian 09, Revision E.01,
 Gaussian 09:  ES64L-G09RevE.01 30-Nov-2015

 -----
 #P G4
 -----

 --------
 Frag_441
 --------
 Symbolic Z-matrix:
 Charge =  0 Multiplicity = 1

 SCF Done:  E(RB3LYP) =  -327.005260796     A.U. after   14 cycles
 SCF Done:  E(RB3LYP) =  -327.127249801     A.U. after   13 cycles
 SCF Done:  E(RB3LYP) =  -327.168272931     A.U. after   13 cycles
 SCF Done:  E(RB3LYP) =  -327.179653642     A.U. after   12 cycles
 SCF Done:  E(RB3LYP) =  -327.180960107     A.U. after   12 cycles
 SCF Done:  E(RB3LYP) =  -327.179891093     A.U. after   13 cycles
 SCF Done:  E(RB3LYP) =  -327.181649480     A.U. after    9 cycles
 SCF Done:  E(RB3LYP) =  -327.182230484     A.U. after   11 cycles
 SCF Done:  E(RB3LYP) =  -327.182405777     A.U. after   11 cycles
 SCF Done:  E(RB3LYP) =  -327.182499000     A.U. after   10 cycles
 SCF Done:  E(RB3LYP) =  -327.182551891     A.U. after    8 cycles
 SCF Done:  E(RB3LYP) =  -327.182551806     A.U. after    8 cycles
 SCF Done:  E(RB3LYP) =  -327.182551794     A.U. after    7 cycles
 Optimization completed.
    -- Stationary point found.
 Normal termination of Gaussian 09 at Tue Aug 30 10:45:01 2022.

 ----------------------------------------------------------
 #P Geom=AllCheck Guess=TCheck SCRF=Check B3LYP/GTBas3 Freq
 ----------------------------------------------------------

 Structure from the checkpoint file:  "G4.Frag_441.chk"
 --------
 Frag_441
 --------
 Charge =  0 Multiplicity = 1

 SCF Done:  E(RB3LYP) =  -327.182551794     A.U. after    1 cycles

  Exact polarizability:  67.641  -1.376  67.522   0.044  -0.056  55.355
 Approx polarizability:  91.695   1.404 105.038  -0.085   0.060  77.569

                      1                      2                      3
                      A                      A                      A
 Frequencies --     26.5619               107.7421               192.9389
 Red. masses --      5.7159                 1.1793                 1.1631
 Frc consts  --      0.0024                 0.0081                 0.0255
 IR Inten    --      0.1593               170.2422                 4.2296

                      4                      5                      6
                      A                      A                      A
 Frequencies --    230.6268               255.8476               266.9665
 Red. masses --      1.2531                 1.0472                 2.7109
 Frc consts  --      0.0393                 0.0404                 0.1138
 IR Inten    --      1.7265                 0.2668                 4.5234

                      7                      8                      9
                      A                      A                      A
 Frequencies --    287.0348               345.2144               367.8909
 Red. masses --      1.4991                 2.7766                 2.5911
 Frc consts  --      0.0728                 0.1950                 0.2066
 IR Inten    --      4.6061                 5.2393                 0.3862

                     10                     11                     12
                      A                      A                      A
 Frequencies --    376.0407               483.9773               557.0730
 Red. masses --      2.2145                 2.6728                 2.8720
 Frc consts  --      0.1845                 0.3689                 0.5251
 IR Inten    --      0.3698                 3.1428                 5.0037

                     13                     14                     15
                      A                      A                      A
 Frequencies --    567.9134               698.1859               775.0539
 Red. masses --      1.1903                 3.0750                 5.1053
 Frc consts  --      0.2262                 0.8832                 1.8069
 IR Inten    --      7.7632                 4.5927                 3.6400

                     16                     17                     18
                      A                      A                      A
 Frequencies --    854.4113               939.4955               948.4957
 Red. masses --      2.2619                 1.7264                 1.6545
 Frc consts  --      0.9729                 0.8978                 0.8770
 IR Inten    --      4.5160                 0.7259                 0.9640

                     19                     20                     21
                      A                      A                      A
 Frequencies --    965.4970              1037.6708              1048.6323
 Red. masses --      1.2033                 1.4830                 1.4481
 Frc consts  --      0.6609                 0.9409                 0.9382
 IR Inten    --      0.1198                 2.0377                 0.1153

                     22                     23                     24
                      A                      A                      A
 Frequencies --   1089.8935              1229.6389              1229.9949
 Red. masses --      1.7525                 2.5328                 2.6057
 Frc consts  --      1.2265                 2.2564                 2.3226
 IR Inten    --      0.4626                31.6039                21.4926

                     25                     26                     27
                      A                      A                      A
 Frequencies --   1247.6880              1346.1683              1401.7533
 Red. masses --      2.9243                 3.2607                 1.2055
 Frc consts  --      2.6822                 3.4815                 1.3956
 IR Inten    --      9.1591                73.4717                 2.3973

                     28                     29                     30
                      A                      A                      A
 Frequencies --   1404.8227              1437.1354              1475.1877
 Red. masses --      1.2451                 1.2451                 1.0475
 Frc consts  --      1.4478                 1.5151                 1.3430
 IR Inten    --      2.9225                10.1100                 0.0431

                     31                     32                     33
                      A                      A                      A
 Frequencies --   1480.3467              1482.9565              1499.2555
 Red. masses --      1.0451                 1.0468                 1.0514
 Frc consts  --      1.3494                 1.3564                 1.3925
 IR Inten    --      0.1920                 0.5019                 4.0205

                     34                     35                     36
                      A                      A                      A
 Frequencies --   1504.6447              1515.4065              1617.0401
 Red. masses --      1.0569                 1.0706                 1.2357
 Frc consts  --      1.4098                 1.4486                 1.9037
 IR Inten    --      4.3737                14.4365               108.7870

                     37                     38                     39
                      A                      A                      A
 Frequencies --   1786.6826              3029.2939              3033.2972
 Red. masses --      9.7902                 1.0344                 1.0350
 Frc consts  --     18.4135                 5.5927                 5.6107
 IR Inten    --    259.2247                22.8114                23.3490

                     40                     41                     42
                      A                      A                      A
 Frequencies --   3044.4034              3095.2097              3100.6389
 Red. masses --      1.0377                 1.1013                 1.1005
 Frc consts  --      5.6667                 6.2163                 6.2337
 IR Inten    --     17.7341                 4.3011                55.1511

                     43                     44                     45
                      A                      A                      A
 Frequencies --   3105.0986              3106.9931              3116.5879
 Red. masses --      1.1021                 1.1016                 1.0992
 Frc consts  --      6.2606                 6.2653                 6.2907
 IR Inten    --     13.6034                20.4485                35.4659

                     46                     47                     48
                      A                      A                      A
 Frequencies --   3130.9597              3609.9917              3747.3632
 Red. masses --      1.1015                 1.0449                 1.1036
 Frc consts  --      6.3619                 8.0233                 9.1313
 IR Inten    --     20.0545                28.7101                30.0141

 - Thermochemistry -
 -------------------
 Temperature   298.150 Kelvin.  Pressure   1.00000 Atm.
 Atom     1 has atomic number  6 and mass  12.00000

 Molecular mass:   101.08406 amu.
 Principal axes and moments of inertia in atomic units:
                           1         2         3
     Eigenvalues --   553.38898 771.70833 923.79193
           X            0.99687  -0.07908   0.00205
           Y            0.07909   0.99686  -0.00266
           Z           -0.00183   0.00281   0.99999
 This molecule is an asymmetric top.
 Rotational symmetry number  1.
 Warning -- assumption of classical behavior for rotation
           may cause significant error
 Rotational temperatures (Kelvin)      0.15652     0.11224     0.09376
 Rotational constants (GHZ):           3.26125     2.33863     1.95362
 Zero-point vibrational energy     413918.2 (Joules/Mol)
                                   98.92883 (Kcal/Mol)
 Warning -- explicit consideration of  13 degrees of freedom as
           vibrations may cause significant error
 Vibrational temperatures:     38.22   155.02   277.60   331.82   368.11
          (Kelvin)            384.10   412.98   496.69   529.31   541.04
                              696.33   801.50   817.10  1004.53  1115.13
                             1229.31  1351.72  1364.67  1389.13  1492.97
                             1508.75  1568.11  1769.17  1769.69  1795.14
                             1936.83  2016.81  2021.22  2067.71  2122.46
                             2129.89  2133.64  2157.09  2164.85  2180.33
                             2326.56  2570.63  4358.47  4364.23  4380.21
                             4453.31  4461.12  4467.54  4470.26  4484.07
                             4504.75  5193.97  5391.61

 Zero-point correction=                           0.157653 (Hartree/Particle)
 Thermal correction to Energy=                    0.166791
 Thermal correction to Enthalpy=                  0.167735
 Thermal correction to Gibbs Free Energy=         0.123989
 Sum of electronic and zero-point Energies=           -327.024899
 Sum of electronic and thermal Energies=              -327.015761
 Sum of electronic and thermal Enthalpies=            -327.014817
 Sum of electronic and thermal Free Energies=         -327.058563

                     E (Thermal)             CV                S
                      KCal/Mol        Cal/Mol-Kelvin    Cal/Mol-Kelvin
 Total                  104.663             32.735             92.071
 Electronic               0.000              0.000              0.000
 Translational            0.889              2.981             39.750
 Rotational               0.889              2.981             27.469
 Vibrational            102.885             26.773             24.852
 Vibration     1          0.593              1.984              6.071
 Vibration     2          0.606              1.943              3.309
 Vibration     3          0.635              1.850              2.199
 Vibration     4          0.652              1.794              1.874
 Vibration     5          0.666              1.753              1.690
 Vibration     6          0.672              1.734              1.616
 Vibration     7          0.684              1.698              1.491
 Vibration     8          0.724              1.585              1.188
 Vibration     9          0.740              1.538              1.089
 Vibration    10          0.747              1.521              1.055
 Vibration    11          0.840              1.286              0.699
 Vibration    12          0.913              1.124              0.530
 Vibration    13          0.924              1.101              0.508

 Normal termination of Gaussian 09 at Tue Aug 30 10:45:54 2022.

 -----------------------------------------------------------------
 #P Geom=AllCheck Guess=TCheck SCRF=Check CCSD(T,E4T,FrzG4)/GTBas1
 -----------------------------------------------------------------

 Structure from the checkpoint file:  "G4.Frag_441.chk"
 --------
 Frag_441
 --------
 Charge =  0 Multiplicity = 1

 SCF Done:  E(RHF) =  -325.076147551     A.U. after   13 cycles
 E2 =    -0.9948989815D+00 EUMP2 =    -0.32607104653238D+03
 CCSD(T)
 CCSD(T)= -0.32616513842D+03
 623\CCSD(T)=-326.1651384\RMSD=5.077e-09\PG=C01 [X(C5H11N1O1)]\\@
 Normal termination of Gaussian 09 at Tue Aug 30 10:50:32 2022.

 ---------------------------------------------------------
 #P Geom=AllCheck Guess=TCheck SCRF=Check MP4=FrzG4/GTBas2
 ---------------------------------------------------------

 Structure from the checkpoint file:  "G4.Frag_441.chk"
 --------
 Frag_441
 --------
 Charge =  0 Multiplicity = 1

 SCF Done:  E(RHF) =  -325.084158634     A.U. after   12 cycles
 E2 =    -0.1008674485D+01 EUMP2 =    -0.32609283311889D+03
 Normal termination of Gaussian 09 at Tue Aug 30 10:51:57 2022.

 ---------------------------------------------------------
 #P Geom=AllCheck Guess=TCheck SCRF=Check MP4=FrzG4/GTBas3
 ---------------------------------------------------------

 Structure from the checkpoint file:  "G4.Frag_441.chk"
 --------
 Frag_441
 --------
 Charge =  0 Multiplicity = 1

 SCF Done:  E(RHF) =  -325.117080273     A.U. after   11 cycles
 E2 =    -0.1229010573D+01 EUMP2 =    -0.32634609084627D+03
 Normal termination of Gaussian 09 at Tue Aug 30 11:04:21 2022.

 -----------------------------------------------------------
 #P Geom=AllCheck Guess=TCheck SCRF=Check MP2=Full/GTLargeXP
 -----------------------------------------------------------

 Structure from the checkpoint file:  "G4.Frag_441.chk"
 --------
 Frag_441
 --------
 Charge =  0 Multiplicity = 1

 SCF Done:  E(RHF) =  -325.195506095     A.U. after   12 cycles
 E2 =    -0.1613026360D+01 EUMP2 =    -0.32680853245536D+03
 Normal termination of Gaussian 09 at Tue Aug 30 11:08:56 2022.
 SCF Done:  E(RHF) =  -325.220856311     A.U. after    8 cycles
 Normal termination of Gaussian 09 at Tue Aug 30 11:12:35 2022.

                         Standard orientation:
 ---------------------------------------------------------------------
 Center     Atomic      Atomic             Coordinates (Angstroms)
 Number     Number       Type             X           Y           Z
 ---------------------------------------------------------------------
      1          6           0       -0.971596   -0.862581   -1.235750
      2          6           0       -0.570135   -0.028611   -0.000776
      3          6           0       -1.280535    1.332105   -0.045246
      4          6           0       -0.966102   -0.775667    1.290985
      5          6           0        0.955807    0.220431   -0.004616
      6          7           0        1.740388   -0.899519   -0.017906
      7          8           0        1.445368    1.333849   -0.002974
      8          1           0       -0.668163   -0.366529   -2.162931
      9          1           0       -0.523635   -1.861470   -1.229927
     10          1           0       -2.058902   -0.990803   -1.262523
     11          1           0       -1.001631    1.948572    0.812134
     12          1           0       -1.009315    1.887495   -0.946132
     13          1           0       -2.366088    1.188350   -0.036340
     14          1           0       -0.509299   -1.768772    1.355609
     15          1           0       -0.667373   -0.211547    2.180049
     16          1           0       -2.052188   -0.911314    1.327296
     17          1           0        2.737588   -0.772954    0.033469
     18          1           0        1.368715   -1.829249    0.050854
 ---------------------------------------------------------------------

 SCF Done:  E(RHF) =  -325.226213119     A.U. after    8 cycles

 The electronic state is 1-A.
 Alpha  occ. eigenvalues --  -20.51277 -15.57791 -11.34425 -11.25318 -11.22887
 Alpha  occ. eigenvalues --  -11.22813 -11.20941  -1.37847  -1.20695  -1.10069
 Alpha  occ. eigenvalues --   -0.94566  -0.93379  -0.85747  -0.75900  -0.71262
 Alpha  occ. eigenvalues --   -0.65958  -0.61575  -0.61482  -0.59855  -0.57155
 Alpha  occ. eigenvalues --   -0.54814  -0.53412  -0.51967  -0.51495  -0.47473
 Alpha  occ. eigenvalues --   -0.47334  -0.41323  -0.41041
 Alpha virt. eigenvalues --    0.02853   0.04066   0.04128   0.04460   0.06271
 Alpha virt. eigenvalues --    0.06722   0.06838   0.07408   0.07440   0.09341
 Alpha virt. eigenvalues --    0.09512   0.09845   0.09871   0.11602   0.12721

 Mulliken charges:
               1
     1  C   -0.566927
     2  C    0.322723
     3  C   -0.587504
     4  C   -0.569783
     5  C    0.545402
     6  N   -0.752507
     7  O   -0.639143
     8  H    0.182123
     9  H    0.153641
    10  H    0.174288
    11  H    0.185001
    12  H    0.181482
    13  H    0.167805
    14  H    0.152003
    15  H    0.183645
    16  H    0.174590
    17  H    0.358651
    18  H    0.334510
 Sum of Mulliken charges =  -0.00000

 Dipole moment (field-independent basis, Debye):
    X=             -1.1519    Y=             -3.7656    Z=              0.1819  Tot=              3.9420
 Quadrupole moment (field-independent basis, Debye-Ang):
   XX=            -43.3933   YY=            -46.5280   ZZ=            -45.0149
   XY=             -6.5119   XZ=              0.3753   YZ=             -0.2625

 Normal termination of Gaussian 09 at Tue Aug 30 11:26:09 2022.
