 Gaussian 09, Revision E.01,
 Gaussian 09:  ES64L-G09RevE.01 30-Nov-2015

 ----------------
 #P G4 OPT=calcfc
 ----------------

 --------
 Frag_297
 --------
 Symbolic Z-matrix:
 Charge =  0 Multiplicity = 1

 SCF Done:  E(RB3LYP) =  -343.205846836     A.U. after   14 cycles
 SCF Done:  E(RB3LYP) =  -343.217815172     A.U. after   13 cycles
 SCF Done:  E(RB3LYP) =  -343.218747394     A.U. after   12 cycles
 SCF Done:  E(RB3LYP) =  -343.218611541     A.U. after   13 cycles
 SCF Done:  E(RB3LYP) =  -343.219151312     A.U. after   10 cycles
 SCF Done:  E(RB3LYP) =  -343.219306909     A.U. after   11 cycles
 SCF Done:  E(RB3LYP) =  -343.219332086     A.U. after   10 cycles
 SCF Done:  E(RB3LYP) =  -343.219336532     A.U. after    9 cycles
 SCF Done:  E(RB3LYP) =  -343.219338266     A.U. after    9 cycles
 SCF Done:  E(RB3LYP) =  -343.219339512     A.U. after    8 cycles
 SCF Done:  E(RB3LYP) =  -343.219340745     A.U. after    8 cycles
 Optimization completed.
    -- Stationary point found.
 Normal termination of Gaussian 09 at Wed Sep  8 07:00:04 2021.

 ----------------------------------------------------------
 #P Geom=AllCheck Guess=TCheck SCRF=Check B3LYP/GTBas3 Freq
 ----------------------------------------------------------

 Structure from the checkpoint file:  "/public/home/users/caep010/.cache/gau_scr/Gau-25751.chk"
 --------
 Frag_297
 --------
 Charge =  0 Multiplicity = 1

 SCF Done:  E(RB3LYP) =  -343.219340745     A.U. after    1 cycles

  Exact polarizability:  63.059   1.210  64.503   0.536   0.765  53.190
 Approx polarizability:  86.108  -0.356 101.073   1.129   2.442  74.767

                      1                      2                      3
                      A                      A                      A
 Frequencies --     32.4114               147.2450               223.5960
 Red. masses --      4.4149                 1.2783                 1.1671
 Frc consts  --      0.0027                 0.0163                 0.0344
 IR Inten    --      6.7841               148.9702                 8.5047

                      4                      5                      6
                      A                      A                      A
 Frequencies --    230.2448               260.8561               271.3103
 Red. masses --      1.7529                 1.4328                 1.2359
 Frc consts  --      0.0548                 0.0574                 0.0536
 IR Inten    --      8.7077                30.0976                 0.8406

                      7                      8                      9
                      A                      A                      A
 Frequencies --    306.4729               343.8359               379.0559
 Red. masses --      1.5845                 2.5370                 3.1624
 Frc consts  --      0.0877                 0.1767                 0.2677
 IR Inten    --     13.4342                 4.1851                10.0716

                     10                     11                     12
                      A                      A                      A
 Frequencies --    398.9212               487.2066               572.4384
 Red. masses --      2.5341                 2.6834                 2.4330
 Frc consts  --      0.2376                 0.3753                 0.4697
 IR Inten    --      1.6611                 5.0925                 5.1755

                     13                     14                     15
                      A                      A                      A
 Frequencies --    590.6762               700.0891               778.3671
 Red. masses --      1.3382                 3.0450                 4.8123
 Frc consts  --      0.2751                 0.8793                 1.7178
 IR Inten    --     12.5081                 7.5194                 3.2325

                     16                     17                     18
                      A                      A                      A
 Frequencies --    865.3150               921.6163               946.4474
 Red. masses --      2.3861                 1.8114                 1.5317
 Frc consts  --      1.0527                 0.9065                 0.8084
 IR Inten    --      1.8680                98.3959                15.9097

                     19                     20                     21
                      A                      A                      A
 Frequencies --   1009.6363              1042.6044              1075.3372
 Red. masses --      1.2721                 1.3622                 1.7827
 Frc consts  --      0.7640                 0.8724                 1.2146
 IR Inten    --      4.6255                45.8510                 5.9777

                     22                     23                     24
                      A                      A                      A
 Frequencies --   1091.4831              1197.4681              1255.5390
 Red. masses --      1.8556                 2.3385                 2.9626
 Frc consts  --      1.3025                 1.9757                 2.7516
 IR Inten    --      0.9638                75.5402                11.8842

                     25                     26                     27
                      A                      A                      A
 Frequencies --   1335.5641              1359.8912              1393.7417
 Red. masses --      2.5503                 1.9230                 1.3005
 Frc consts  --      2.6803                 2.0953                 1.4884
 IR Inten    --     56.7517                14.8469                 8.7890

                     28                     29                     30
                      A                      A                      A
 Frequencies --   1417.8082              1481.7773              1485.7670
 Red. masses --      1.2939                 1.0578                 1.0536
 Frc consts  --      1.5324                 1.3684                 1.3703
 IR Inten    --      9.1627                 1.3072                 0.9258

                     31                     32                     33
                      A                      A                      A
 Frequencies --   1503.9655              1506.9250              1614.4141
 Red. masses --      1.0618                 1.0540                 1.2413
 Frc consts  --      1.4151                 1.4102                 1.9062
 IR Inten    --      9.1523                 6.2484                99.4333

                     34                     35                     36
                      A                      A                      A
 Frequencies --   1674.1247              1778.7801              3030.8055
 Red. masses --      1.0876                 9.7521                 1.0359
 Frc consts  --      1.7959                18.1799                 5.6065
 IR Inten    --     25.3349               251.3026                21.3650

                     37                     38                     39
                      A                      A                      A
 Frequencies --   3039.0477              3096.8739              3111.5905
 Red. masses --      1.0345                 1.1015                 1.1013
 Frc consts  --      5.6295                 6.2240                 6.2822
 IR Inten    --     13.9841                25.2280                17.3616

                     40                     41                     42
                      A                      A                      A
 Frequencies --   3114.9603              3123.1742              3462.4534
 Red. masses --      1.1006                 1.1025                 1.0497
 Frc consts  --      6.2920                 6.3362                 7.4146
 IR Inten    --     19.9273                21.7640                 3.6439

                     43                     44                     45
                      A                      A                      A
 Frequencies --   3531.8465              3605.6838              3747.4571
 Red. masses --      1.0900                 1.0457                 1.1028
 Frc consts  --      8.0107                 8.0097                 9.1251
 IR Inten    --      4.3092                26.0071                34.6030

 - Thermochemistry -
 -------------------
 Temperature   298.150 Kelvin.  Pressure   1.00000 Atm.
 Atom     1 has atomic number  6 and mass  12.00000

 Molecular mass:   102.07931 amu.
 Principal axes and moments of inertia in atomic units:
                           1         2         3
     Eigenvalues --   541.21441 766.32950 914.24649
           X            0.99957   0.02878  -0.00579
           Y           -0.02892   0.99928  -0.02473
           Z            0.00508   0.02489   0.99968
 This molecule is an asymmetric top.
 Rotational symmetry number  1.
 Warning -- assumption of classical behavior for rotation
           may cause significant error
 Rotational temperatures (Kelvin)      0.16004     0.11302     0.09474
 Rotational constants (GHZ):           3.33461     2.35505     1.97402
 Zero-point vibrational energy     386063.8 (Joules/Mol)
                                   92.27146 (Kcal/Mol)
 Warning -- explicit consideration of  13 degrees of freedom as
           vibrations may cause significant error
 Vibrational temperatures:     46.63   211.85   321.70   331.27   375.31
          (Kelvin)            390.35   440.95   494.70   545.38   573.96
                              700.98   823.61   849.85  1007.27  1119.90
                             1244.99  1326.00  1361.72  1452.64  1500.07
                             1547.17  1570.40  1722.89  1806.44  1921.58
                             1956.58  2005.28  2039.91  2131.94  2137.68
                             2163.87  2168.13  2322.78  2408.69  2559.26
                             4360.65  4372.51  4455.71  4476.88  4481.73
                             4493.55  4981.69  5081.53  5187.77  5391.75

 Zero-point correction=                           0.147044 (Hartree/Particle)
 Thermal correction to Energy=                    0.155925
 Thermal correction to Enthalpy=                  0.156869
 Thermal correction to Gibbs Free Energy=         0.113945
 Sum of electronic and zero-point Energies=           -343.072297
 Sum of electronic and thermal Energies=              -343.063416
 Sum of electronic and thermal Enthalpies=            -343.062471
 Sum of electronic and thermal Free Energies=         -343.105396

                     E (Thermal)             CV                S
                      KCal/Mol        Cal/Mol-Kelvin    Cal/Mol-Kelvin
 Total                   97.845             32.105             90.343
 Electronic               0.000              0.000              0.000
 Translational            0.889              2.981             39.779
 Rotational               0.889              2.981             27.430
 Vibrational             96.067             26.144             23.133
 Vibration     1          0.594              1.983              5.676
 Vibration     2          0.617              1.906              2.708
 Vibration     3          0.649              1.805              1.930
 Vibration     4          0.652              1.795              1.877
 Vibration     5          0.669              1.744              1.656
 Vibration     6          0.675              1.726              1.588
 Vibration     7          0.697              1.661              1.381
 Vibration     8          0.723              1.588              1.194
 Vibration     9          0.749              1.515              1.043
 Vibration    10          0.765              1.472              0.967
 Vibration    11          0.843              1.278              0.691
 Vibration    12          0.929              1.091              0.500
 Vibration    13          0.948              1.052              0.466

 Normal termination of Gaussian 09 at Wed Sep  8 07:00:56 2021.

 -----------------------------------------------------------------
 #P Geom=AllCheck Guess=TCheck SCRF=Check CCSD(T,E4T,FrzG4)/GTBas1
 -----------------------------------------------------------------

 Structure from the checkpoint file:  "/public/home/users/caep010/.cache/gau_scr/Gau-25751.chk"
 --------
 Frag_297
 --------
 Charge =  0 Multiplicity = 1

 SCF Done:  E(RHF) =  -341.065688838     A.U. after   13 cycles
 E2 =    -0.1026624942D+01 EUMP2 =    -0.34209231378044D+03
 CCSD(T)
 CCSD(T)= -0.34218136235D+03
 =-342.1487324\CCSD=-342.1478668\CCSD(T)=-342.1813623\RMSD=7.208e-09\PG
 Normal termination of Gaussian 09 at Wed Sep  8 07:05:36 2021.

 ---------------------------------------------------------
 #P Geom=AllCheck Guess=TCheck SCRF=Check MP4=FrzG4/GTBas2
 ---------------------------------------------------------

 Structure from the checkpoint file:  "/public/home/users/caep010/.cache/gau_scr/Gau-25751.chk"
 --------
 Frag_297
 --------
 Charge =  0 Multiplicity = 1

 SCF Done:  E(RHF) =  -341.076542783     A.U. after   13 cycles
 E2 =    -0.1042646365D+01 EUMP2 =    -0.34211918914800D+03
 Normal termination of Gaussian 09 at Wed Sep  8 07:07:02 2021.

 ---------------------------------------------------------
 #P Geom=AllCheck Guess=TCheck SCRF=Check MP4=FrzG4/GTBas3
 ---------------------------------------------------------

 Structure from the checkpoint file:  "/public/home/users/caep010/.cache/gau_scr/Gau-25751.chk"
 --------
 Frag_297
 --------
 Charge =  0 Multiplicity = 1

 SCF Done:  E(RHF) =  -341.110974626     A.U. after   11 cycles
 E2 =    -0.1261460516D+01 EUMP2 =    -0.34237243514238D+03
 Normal termination of Gaussian 09 at Wed Sep  8 07:18:05 2021.

 -----------------------------------------------------------
 #P Geom=AllCheck Guess=TCheck SCRF=Check MP2=Full/GTLargeXP
 -----------------------------------------------------------

 Structure from the checkpoint file:  "/public/home/users/caep010/.cache/gau_scr/Gau-25751.chk"
 --------
 Frag_297
 --------
 Charge =  0 Multiplicity = 1

 SCF Done:  E(RHF) =  -341.198006481     A.U. after   12 cycles
 E2 =    -0.1651361286D+01 EUMP2 =    -0.34284936776669D+03
 Normal termination of Gaussian 09 at Wed Sep  8 07:22:14 2021.
 SCF Done:  E(RHF) =  -341.224429845     A.U. after    9 cycles
 Normal termination of Gaussian 09 at Wed Sep  8 07:25:57 2021.

                         Standard orientation:
 ---------------------------------------------------------------------
 Center     Atomic      Atomic             Coordinates (Angstroms)
 Number     Number       Type             X           Y           Z
 ---------------------------------------------------------------------
      1          6           0        1.100619   -1.275099    0.688230
      2          6           0        0.589292    0.005606    0.013920
      3          6           0        1.008930    0.037580   -1.469546
      4          7           0        1.207952    1.157178    0.679968
      5          6           0       -0.959625    0.141978    0.044170
      6          7           0       -1.689487   -1.005727   -0.032562
      7          8           0       -1.489783    1.238267    0.088948
      8          1           0        0.838791   -2.176233    0.124071
      9          1           0        0.709385   -1.380383    1.706090
     10          1           0        2.191663   -1.232784    0.746294
     11          1           0        0.567397   -0.792645   -2.029916
     12          1           0        0.682479    0.972799   -1.933763
     13          1           0        2.098241   -0.020312   -1.541189
     14          1           0        1.066317    1.071750    1.684719
     15          1           0        0.665841    1.978596    0.415488
     16          1           0       -2.693638   -0.929153   -0.047419
     17          1           0       -1.272758   -1.918315   -0.028433
 ---------------------------------------------------------------------

 SCF Done:  E(RHF) =  -341.230053029     A.U. after    8 cycles

 The electronic state is 1-A.
 Alpha  occ. eigenvalues --  -20.51866 -15.58690 -15.53723 -11.34908 -11.28052
 Alpha  occ. eigenvalues --  -11.23295 -11.22173  -1.38503  -1.21584  -1.19307
 Alpha  occ. eigenvalues --   -1.02922  -0.94931  -0.86445  -0.77035  -0.73139
 Alpha  occ. eigenvalues --   -0.67444  -0.64842  -0.62700  -0.61008  -0.58585
 Alpha  occ. eigenvalues --   -0.55255  -0.54017  -0.53346  -0.50979  -0.48555
 Alpha  occ. eigenvalues --   -0.43522  -0.41896  -0.39639
 Alpha virt. eigenvalues --    0.02712   0.04152   0.04253   0.05042   0.06681
 Alpha virt. eigenvalues --    0.07021   0.07087   0.07317   0.07381   0.09787
 Alpha virt. eigenvalues --    0.10085   0.10360   0.10893   0.11635   0.12700

 Mulliken charges:
               1
     1  C   -0.614153
     2  C    0.389536
     3  C   -0.570518
     4  N   -0.747673
     5  C    0.554799
     6  N   -0.758292
     7  O   -0.643788
     8  H    0.160787
     9  H    0.175378
    10  H    0.210024
    11  H    0.167678
    12  H    0.189600
    13  H    0.177751
    14  H    0.280491
    15  H    0.322320
    16  H    0.362282
    17  H    0.343779
 Sum of Mulliken charges =  -0.00000

 Dipole moment (field-independent basis, Debye):
    X=             -0.0966    Y=             -3.9420    Z=              0.1656  Tot=              3.9467
 Quadrupole moment (field-independent basis, Debye-Ang):
   XX=            -46.8110   YY=            -43.6300   ZZ=            -42.5192
   XY=              4.5160   XZ=              0.0592   YZ=              0.0489

 Normal termination of Gaussian 09 at Wed Sep  8 07:38:50 2021.
