 Gaussian 09, Revision E.01,
 Gaussian 09:  ES64L-G09RevE.01 30-Nov-2015

 -----
 #P G4
 -----

 ---------
 Frag_1054
 ---------
 Symbolic Z-matrix:
 Charge =  0 Multiplicity = 1

 SCF Done:  E(RB3LYP) =  -266.192860120     A.U. after   12 cycles
 SCF Done:  E(RB3LYP) =  -266.197252490     A.U. after   11 cycles
 SCF Done:  E(RB3LYP) =  -266.197714617     A.U. after   10 cycles
 SCF Done:  E(RB3LYP) =  -266.197971689     A.U. after   10 cycles
 SCF Done:  E(RB3LYP) =  -266.198307951     A.U. after   10 cycles
 SCF Done:  E(RB3LYP) =  -266.198495812     A.U. after   10 cycles
 SCF Done:  E(RB3LYP) =  -266.198924862     A.U. after   11 cycles
 SCF Done:  E(RB3LYP) =  -266.199104037     A.U. after   10 cycles
 SCF Done:  E(RB3LYP) =  -266.199160832     A.U. after   10 cycles
 SCF Done:  E(RB3LYP) =  -266.199170906     A.U. after    8 cycles
 SCF Done:  E(RB3LYP) =  -266.199179313     A.U. after    8 cycles
 SCF Done:  E(RB3LYP) =  -266.199179961     A.U. after    8 cycles
 SCF Done:  E(RB3LYP) =  -266.199180105     A.U. after    7 cycles
 Optimization completed.
    -- Stationary point found.
 Normal termination of Gaussian 09 at Fri Aug 26 10:09:47 2022.

 ----------------------------------------------------------
 #P Geom=AllCheck Guess=TCheck SCRF=Check B3LYP/GTBas3 Freq
 ----------------------------------------------------------

 Structure from the checkpoint file:  "G4.Frag_1054.chk"
 ---------
 Frag_1054
 ---------
 Charge =  0 Multiplicity = 1

 SCF Done:  E(RB3LYP) =  -266.199180105     A.U. after    1 cycles

  Exact polarizability:  25.016   0.707  24.291  -0.592  -0.525  23.362
 Approx polarizability:  34.591   0.790  33.017  -1.654  -0.217  32.154

                      1                      2                      3
                      A                      A                      A
 Frequencies --     87.6206               228.3839               351.5171
 Red. masses --      1.1652                 1.1787                 1.1085
 Frc consts  --      0.0053                 0.0362                 0.0807
 IR Inten    --    150.3355                66.5393                35.4457

                      4                      5                      6
                      A                      A                      A
 Frequencies --    500.6856               529.9147               646.8526
 Red. masses --      3.7239                 3.7376                 3.5127
 Frc consts  --      0.5500                 0.6184                 0.8660
 IR Inten    --     21.0885                39.8300                25.5216

                      7                      8                      9
                      A                      A                      A
 Frequencies --    984.6362              1056.3716              1073.8699
 Red. masses --      4.1581                 3.8753                 3.3414
 Frc consts  --      2.3752                 2.5480                 2.2703
 IR Inten    --     46.2299               243.3439               196.6981

                     10                     11                     12
                      A                      A                      A
 Frequencies --   1233.2052              1317.6790              1350.4238
 Red. masses --      1.1395                 1.4625                 1.2794
 Frc consts  --      1.0210                 1.4961                 1.3746
 IR Inten    --     75.0789                23.3546                60.3993

                     13                     14                     15
                      A                      A                      A
 Frequencies --   1423.5594              1472.5072              3028.6920
 Red. masses --      1.3290                 1.3494                 1.0859
 Frc consts  --      1.5869                 1.7239                 5.8686
 IR Inten    --     98.9248               111.3020                67.2367

                     16                     17                     18
                      A                      A                      A
 Frequencies --   3781.0513              3807.3416              3827.2624
 Red. masses --      1.0647                 1.0655                 1.0652
 Frc consts  --      8.9678                 9.1003                 9.1930
 IR Inten    --     25.4438                45.3274                42.8478

 - Thermochemistry -
 -------------------
 Temperature   298.150 Kelvin.  Pressure   1.00000 Atm.
 Atom     1 has atomic number  8 and mass  15.99491

 Molecular mass:    64.01604 amu.
 Principal axes and moments of inertia in atomic units:
                           1         2         3
     Eigenvalues --   178.16157 189.37351 327.65788
           X            0.97988   0.19958   0.00174
           Y           -0.19950   0.97969  -0.02006
           Z           -0.00571   0.01931   0.99980
 This molecule is an asymmetric top.
 Rotational symmetry number  1.
 Rotational temperatures (Kelvin)      0.48615     0.45737     0.26434
 Rotational constants (GHZ):          10.12980     9.53006     5.50800
 Zero-point vibrational energy     159710.9 (Joules/Mol)
                                   38.17182 (Kcal/Mol)
 Warning -- explicit consideration of   5 degrees of freedom as
           vibrations may cause significant error
 Vibrational temperatures:    126.07   328.59   505.75   720.37   762.43
          (Kelvin)            930.68  1416.67  1519.88  1545.06  1774.30
                             1895.84  1942.96  2048.18  2118.61  4357.61
                             5440.08  5477.91  5506.57

 Zero-point correction=                           0.060831 (Hartree/Particle)
 Thermal correction to Energy=                    0.066004
 Thermal correction to Enthalpy=                  0.066948
 Thermal correction to Gibbs Free Energy=         0.033192
 Sum of electronic and zero-point Energies=           -266.138349
 Sum of electronic and thermal Energies=              -266.133176
 Sum of electronic and thermal Enthalpies=            -266.132232
 Sum of electronic and thermal Free Energies=         -266.165988

                     E (Thermal)             CV                S
                      KCal/Mol        Cal/Mol-Kelvin    Cal/Mol-Kelvin
 Total                   41.418             16.302             71.045
 Electronic               0.000              0.000              0.000
 Translational            0.889              2.981             38.389
 Rotational               0.889              2.981             23.918
 Vibrational             39.641             10.340              8.739
 Vibration     1          0.601              1.958              3.713
 Vibration     2          0.651              1.798              1.892
 Vibration     3          0.728              1.572              1.159
 Vibration     4          0.856              1.248              0.656
 Vibration     5          0.885              1.184              0.587

 Optimization completed.
    -- Stationary point found.
 Normal termination of Gaussian 09 at Fri Aug 26 10:09:59 2022.

 -----------------------------------------------------------------
 #P Geom=AllCheck Guess=TCheck SCRF=Check CCSD(T,E4T,FrzG4)/GTBas1
 -----------------------------------------------------------------

 Structure from the checkpoint file:  "G4.Frag_1054.chk"
 ---------
 Frag_1054
 ---------
 Charge =  0 Multiplicity = 1

 SCF Done:  E(RHF) =  -264.769560274     A.U. after   12 cycles
 E2 =    -0.6655463160D+00 EUMP2 =    -0.26543510658982D+03
 CCSD(T)
 CCSD(T)= -0.26547211246D+03
 265.4729818\MP4SDQ=-265.4573352\CCSD=-265.4571692\CCSD(T)=-265.4721125
 Normal termination of Gaussian 09 at Fri Aug 26 10:10:20 2022.

 ---------------------------------------------------------
 #P Geom=AllCheck Guess=TCheck SCRF=Check MP4=FrzG4/GTBas2
 ---------------------------------------------------------

 Structure from the checkpoint file:  "G4.Frag_1054.chk"
 ---------
 Frag_1054
 ---------
 Charge =  0 Multiplicity = 1

 SCF Done:  E(RHF) =  -264.780987782     A.U. after   11 cycles
 E2 =    -0.6799247569D+00 EUMP2 =    -0.26546091253930D+03
 Normal termination of Gaussian 09 at Fri Aug 26 10:10:26 2022.

 ---------------------------------------------------------
 #P Geom=AllCheck Guess=TCheck SCRF=Check MP4=FrzG4/GTBas3
 ---------------------------------------------------------

 Structure from the checkpoint file:  "G4.Frag_1054.chk"
 ---------
 Frag_1054
 ---------
 Charge =  0 Multiplicity = 1

 SCF Done:  E(RHF) =  -264.808988105     A.U. after   11 cycles
 E2 =    -0.8310306607D+00 EUMP2 =    -0.26564001876591D+03
 Normal termination of Gaussian 09 at Fri Aug 26 10:10:53 2022.

 -----------------------------------------------------------
 #P Geom=AllCheck Guess=TCheck SCRF=Check MP2=Full/GTLargeXP
 -----------------------------------------------------------

 Structure from the checkpoint file:  "G4.Frag_1054.chk"
 ---------
 Frag_1054
 ---------
 Charge =  0 Multiplicity = 1

 SCF Done:  E(RHF) =  -264.891738692     A.U. after   11 cycles
 E2 =    -0.1079372382D+01 EUMP2 =    -0.26597111107458D+03
 Normal termination of Gaussian 09 at Fri Aug 26 10:11:09 2022.
 SCF Done:  E(RHF) =  -264.914387445     A.U. after    8 cycles
 Normal termination of Gaussian 09 at Fri Aug 26 10:11:29 2022.

                         Standard orientation:
 ---------------------------------------------------------------------
 Center     Atomic      Atomic             Coordinates (Angstroms)
 Number     Number       Type             X           Y           Z
 ---------------------------------------------------------------------
      1          8           0       -1.279418    0.420894   -0.066624
      2          6           0       -0.017241    0.022016    0.368362
      3          8           0        0.333985   -1.245606   -0.131537
      4          8           0        0.978984    0.896663   -0.048185
      5          1           0       -1.183877    0.678378   -0.992959
      6          1           0       -0.078119    0.021499    1.465177
      7          1           0       -0.446859   -1.805242   -0.061581
      8          1           0        1.543894    0.397660   -0.650034
 ---------------------------------------------------------------------

 SCF Done:  E(RHF) =  -264.919494283     A.U. after    8 cycles

 The electronic state is 1-A.
 Alpha  occ. eigenvalues --  -20.58381 -20.57785 -20.57636 -11.39778  -1.46777
 Alpha  occ. eigenvalues --   -1.35761  -1.35271  -0.90820  -0.76989  -0.73531
 Alpha  occ. eigenvalues --   -0.69811  -0.63393  -0.57540  -0.56623  -0.52818
 Alpha  occ. eigenvalues --   -0.49668  -0.47848
 Alpha virt. eigenvalues --    0.04614   0.04921   0.05672   0.05915   0.10907
 Alpha virt. eigenvalues --    0.11199   0.12018   0.13090   0.13309   0.16280
 Alpha virt. eigenvalues --    0.16557   0.17405   0.17798   0.19113   0.20991

 Mulliken charges:
               1
     1  O   -0.555521
     2  C    0.416952
     3  O   -0.595044
     4  O   -0.589233
     5  H    0.369226
     6  H    0.164365
     7  H    0.390240
     8  H    0.399014
 Sum of Mulliken charges =  -0.00000

 Dipole moment (field-independent basis, Debye):
    X=             -0.2627    Y=             -1.3369    Z=             -1.0094  Tot=              1.6956
 Quadrupole moment (field-independent basis, Debye-Ang):
   XX=            -24.7875   YY=            -24.6246   ZZ=            -20.4111
   XY=              1.5740   XZ=              0.0603   YZ=             -1.7946

 Normal termination of Gaussian 09 at Fri Aug 26 10:13:27 2022.
