 Gaussian 09, Revision E.01,
 Gaussian 09:  ES64L-G09RevE.01 30-Nov-2015

 -----
 #P G4
 -----

 --------
 Frag_793
 --------
 Symbolic Z-matrix:
 Charge =  0 Multiplicity = 1

 SCF Done:  E(RB3LYP) =  -246.214069910     A.U. after   11 cycles
 SCF Done:  E(RB3LYP) =  -246.221611518     A.U. after   11 cycles
 SCF Done:  E(RB3LYP) =  -246.223202437     A.U. after   11 cycles
 SCF Done:  E(RB3LYP) =  -246.223643236     A.U. after   10 cycles
 SCF Done:  E(RB3LYP) =  -246.223711523     A.U. after   10 cycles
 SCF Done:  E(RB3LYP) =  -246.223728386     A.U. after    9 cycles
 SCF Done:  E(RB3LYP) =  -246.223729935     A.U. after    7 cycles
 Optimization completed.
    -- Stationary point found.
 Normal termination of Gaussian 09 at Fri Aug 26 08:57:02 2022.

 ----------------------------------------------------------
 #P Geom=AllCheck Guess=TCheck SCRF=Check B3LYP/GTBas3 Freq
 ----------------------------------------------------------

 Structure from the checkpoint file:  "G4.Frag_793.chk"
 --------
 Frag_793
 --------
 Charge =  0 Multiplicity = 1

 SCF Done:  E(RB3LYP) =  -246.223729935     A.U. after    1 cycles

  Exact polarizability:  32.623  -0.000  32.868  -1.578   0.000  23.899
 Approx polarizability:  41.041   0.000  47.282  -1.838   0.000  35.094

                      1                      2                      3
                      A                      A                      A
 Frequencies --    251.8301               267.9218               378.1385
 Red. masses --      1.1118                 1.1177                 1.2208
 Frc consts  --      0.0415                 0.0473                 0.1029
 IR Inten    --     17.5465                24.2657               122.1495

                      4                      5                      6
                      A                      A                      A
 Frequencies --    443.5098               484.8051               555.5155
 Red. masses --      2.5478                 2.5346                 6.1809
 Frc consts  --      0.2953                 0.3510                 1.1238
 IR Inten    --     11.4766                 0.0110                 1.4087

                      7                      8                      9
                      A                      A                      A
 Frequencies --    845.1313               861.1156              1081.7855
 Red. masses --      6.1893                 5.1119                 5.1359
 Frc consts  --      2.6046                 2.2333                 3.5412
 IR Inten    --    132.7565                22.0718                26.0846

                     10                     11                     12
                      A                      A                      A
 Frequencies --   1150.5036              1169.2938              1351.1737
 Red. masses --      1.4061                 1.5657                 1.0939
 Frc consts  --      1.0966                 1.2613                 1.1766
 IR Inten    --      3.5742                11.7825                75.3894

                     13                     14                     15
                      A                      A                      A
 Frequencies --   1431.8377              1442.7645              1480.4063
 Red. masses --      1.2108                 1.3053                 1.0598
 Frc consts  --      1.4626                 1.6008                 1.3684
 IR Inten    --      0.5297                29.4113                 1.2749

                     16                     17                     18
                      A                      A                      A
 Frequencies --   1487.2538              3032.7696              3123.5985
 Red. masses --      1.0430                 1.0395                 1.0938
 Frc consts  --      1.3592                 5.6333                 6.2880
 IR Inten    --      1.6175                23.8445                17.8330

                     19                     20                     21
                      A                      A                      A
 Frequencies --   3157.0741              3793.7329              3793.9684
 Red. masses --      1.1052                 1.0676                 1.0681
 Frc consts  --      6.4903                 9.0533                 9.0580
 IR Inten    --     13.3919                19.6018                45.8525

 - Thermochemistry -
 -------------------
 Temperature   298.150 Kelvin.  Pressure   1.00000 Atm.
 Atom     1 has atomic number  6 and mass  12.00000

 Molecular mass:    63.03203 amu.
 Principal axes and moments of inertia in atomic units:
                           1         2         3
     Eigenvalues --   184.96922 191.01912 334.61916
           X            0.00001   0.99934  -0.03620
           Y            1.00000  -0.00001   0.00000
           Z            0.00000   0.03620   0.99934
 This molecule is an asymmetric top.
 Rotational symmetry number  1.
 Rotational temperatures (Kelvin)      0.46826     0.45343     0.25884
 Rotational constants (GHZ):           9.75698     9.44796     5.39342
 Zero-point vibrational energy     188915.0 (Joules/Mol)
                                   45.15178 (Kcal/Mol)
 Warning -- explicit consideration of   6 degrees of freedom as
           vibrations may cause significant error
 Vibrational temperatures:    362.33   385.48   544.06   638.11   697.53
          (Kelvin)            799.26  1215.95  1238.95  1556.45  1655.32
                             1682.35  1944.04  2060.09  2075.81  2129.97
                             2139.82  4363.47  4494.16  4542.32  5458.33
                             5458.67

 Zero-point correction=                           0.071954 (Hartree/Particle)
 Thermal correction to Energy=                    0.076982
 Thermal correction to Enthalpy=                  0.077926
 Thermal correction to Gibbs Free Energy=         0.044987
 Sum of electronic and zero-point Energies=           -246.151776
 Sum of electronic and thermal Energies=              -246.146748
 Sum of electronic and thermal Enthalpies=            -246.145804
 Sum of electronic and thermal Free Energies=         -246.178743

                     E (Thermal)             CV                S
                      KCal/Mol        Cal/Mol-Kelvin    Cal/Mol-Kelvin
 Total                   48.307             17.123             69.326
 Electronic               0.000              0.000              0.000
 Translational            0.889              2.981             38.342
 Rotational               0.889              2.981             23.984
 Vibrational             46.529             11.161              6.999
 Vibration     1          0.664              1.760              1.718
 Vibration     2          0.673              1.732              1.610
 Vibration     3          0.748              1.517              1.047
 Vibration     4          0.803              1.375              0.816
 Vibration     5          0.841              1.284              0.697
 Vibration     6          0.911              1.128              0.533

 Optimization completed.
    -- Stationary point found.
 Normal termination of Gaussian 09 at Fri Aug 26 08:57:15 2022.

 -----------------------------------------------------------------
 #P Geom=AllCheck Guess=TCheck SCRF=Check CCSD(T,E4T,FrzG4)/GTBas1
 -----------------------------------------------------------------

 Structure from the checkpoint file:  "G4.Frag_793.chk"
 --------
 Frag_793
 --------
 Charge =  0 Multiplicity = 1

 SCF Done:  E(RHF) =  -244.819285751     A.U. after   12 cycles
 E2 =    -0.6610154024D+00 EUMP2 =    -0.24548030115379D+03
 CCSD(T)
 CCSD(T)= -0.24552900366D+03
 4156\CCSD=-245.5107646\CCSD(T)=-245.5290037\RMSD=4.890e-09\PG=C01 [X(C
 Normal termination of Gaussian 09 at Fri Aug 26 08:57:40 2022.

 ---------------------------------------------------------
 #P Geom=AllCheck Guess=TCheck SCRF=Check MP4=FrzG4/GTBas2
 ---------------------------------------------------------

 Structure from the checkpoint file:  "G4.Frag_793.chk"
 --------
 Frag_793
 --------
 Charge =  0 Multiplicity = 1

 SCF Done:  E(RHF) =  -244.829268407     A.U. after   12 cycles
 E2 =    -0.6742858658D+00 EUMP2 =    -0.24550355427291D+03
 Normal termination of Gaussian 09 at Fri Aug 26 08:57:48 2022.

 ---------------------------------------------------------
 #P Geom=AllCheck Guess=TCheck SCRF=Check MP4=FrzG4/GTBas3
 ---------------------------------------------------------

 Structure from the checkpoint file:  "G4.Frag_793.chk"
 --------
 Frag_793
 --------
 Charge =  0 Multiplicity = 1

 SCF Done:  E(RHF) =  -244.852911967     A.U. after   12 cycles
 E2 =    -0.8174943633D+00 EUMP2 =    -0.24567040633021D+03
 Normal termination of Gaussian 09 at Fri Aug 26 08:58:18 2022.

 -----------------------------------------------------------
 #P Geom=AllCheck Guess=TCheck SCRF=Check MP2=Full/GTLargeXP
 -----------------------------------------------------------

 Structure from the checkpoint file:  "G4.Frag_793.chk"
 --------
 Frag_793
 --------
 Charge =  0 Multiplicity = 1

 SCF Done:  E(RHF) =  -244.925008809     A.U. after   12 cycles
 E2 =    -0.1059955097D+01 EUMP2 =    -0.24598496390618D+03
 Normal termination of Gaussian 09 at Fri Aug 26 08:58:36 2022.
 SCF Done:  E(RHF) =  -244.946391722     A.U. after    9 cycles
 Normal termination of Gaussian 09 at Fri Aug 26 08:59:00 2022.

                         Standard orientation:
 ---------------------------------------------------------------------
 Center     Atomic      Atomic             Coordinates (Angstroms)
 Number     Number       Type             X           Y           Z
 ---------------------------------------------------------------------
      1          6           0       -1.333148    0.000003    0.047369
      2          7           0        0.048426    0.000000   -0.430101
      3          8           0        0.632731    1.144500    0.198499
      4          8           0        0.632725   -1.144503    0.198499
      5          1           0       -1.370503    0.000004    1.143512
      6          1           0       -1.823268    0.893732   -0.341310
      7          1           0       -1.823273   -0.893724   -0.341309
      8          1           0        1.276658    1.441012   -0.455193
      9          1           0        1.276645   -1.441022   -0.455196
 ---------------------------------------------------------------------

 SCF Done:  E(RHF) =  -244.950950544     A.U. after    7 cycles

 The electronic state is 1-A.
 Alpha  occ. eigenvalues --  -20.59302 -20.59300 -15.67822 -11.25081  -1.46105
 Alpha  occ. eigenvalues --   -1.34398  -1.09070  -0.87625  -0.72345  -0.71532
 Alpha  occ. eigenvalues --   -0.64941  -0.60403  -0.56207  -0.55252  -0.51568
 Alpha  occ. eigenvalues --   -0.48558  -0.41400
 Alpha virt. eigenvalues --    0.04570   0.05300   0.05851   0.06259   0.08785
 Alpha virt. eigenvalues --    0.09149   0.10458   0.12513   0.13672   0.15573
 Alpha virt. eigenvalues --    0.16601   0.17104   0.18088   0.19546   0.20552

 Mulliken charges:
               1
     1  C   -0.412018
     2  N    0.106636
     3  O   -0.515675
     4  O   -0.515675
     5  H    0.197109
     6  H    0.181766
     7  H    0.181766
     8  H    0.388045
     9  H    0.388045
 Sum of Mulliken charges =  -0.00000

 Dipole moment (field-independent basis, Debye):
    X=              0.3076    Y=             -0.0000    Z=             -1.7909  Tot=              1.8172
 Quadrupole moment (field-independent basis, Debye-Ang):
   XX=            -19.1956   YY=            -23.8626   ZZ=            -25.5916
   XY=             -0.0000   XZ=             -3.1719   YZ=              0.0000

 Normal termination of Gaussian 09 at Fri Aug 26 09:01:11 2022.
