 Gaussian 09, Revision E.01,
 Gaussian 09:  ES64L-G09RevE.01 30-Nov-2015

 -----
 #P G4
 -----

 --------
 Frag_599
 --------
 Symbolic Z-matrix:
 Charge =  0 Multiplicity = 1

 SCF Done:  E(RB3LYP) =  -308.904747190     A.U. after   12 cycles
 SCF Done:  E(RB3LYP) =  -308.909157468     A.U. after   11 cycles
 SCF Done:  E(RB3LYP) =  -308.909456172     A.U. after   10 cycles
 SCF Done:  E(RB3LYP) =  -308.909520520     A.U. after   10 cycles
 SCF Done:  E(RB3LYP) =  -308.909559983     A.U. after    9 cycles
 SCF Done:  E(RB3LYP) =  -308.909580142     A.U. after    8 cycles
 SCF Done:  E(RB3LYP) =  -308.909592526     A.U. after    9 cycles
 SCF Done:  E(RB3LYP) =  -308.909594852     A.U. after    7 cycles
 SCF Done:  E(RB3LYP) =  -308.909595256     A.U. after    7 cycles
 SCF Done:  E(RB3LYP) =  -308.909595425     A.U. after    7 cycles
 SCF Done:  E(RB3LYP) =  -308.909595681     A.U. after    7 cycles
 SCF Done:  E(RB3LYP) =  -308.909595605     A.U. after    7 cycles
 Optimization completed.
    -- Stationary point found.
 Normal termination of Gaussian 09 at Wed Aug 24 18:01:41 2022.

 ----------------------------------------------------------
 #P Geom=AllCheck Guess=TCheck SCRF=Check B3LYP/GTBas3 Freq
 ----------------------------------------------------------

 Structure from the checkpoint file:  "G4.Frag_599.chk"
 --------
 Frag_599
 --------
 Charge =  0 Multiplicity = 1

 SCF Done:  E(RB3LYP) =  -308.909595605     A.U. after    1 cycles

  Exact polarizability:  54.481  -0.561  52.654   0.979   1.104  51.122
 Approx polarizability:  73.843  -0.528  71.311  -1.958   1.920  72.260

                      1                      2                      3
                      A                      A                      A
 Frequencies --    130.5379               214.1130               223.0409
 Red. masses --      2.8830                 1.1143                 1.0875
 Frc consts  --      0.0289                 0.0301                 0.0319
 IR Inten    --     10.8692                 2.5452                96.3534

                      4                      5                      6
                      A                      A                      A
 Frequencies --    234.8784               267.4995               290.5802
 Red. masses --      1.7035                 1.4226                 1.0777
 Frc consts  --      0.0554                 0.0600                 0.0536
 IR Inten    --      3.5344                 2.0780                93.4699

                      7                      8                      9
                      A                      A                      A
 Frequencies --    344.2657               354.9725               434.2549
 Red. masses --      2.1964                 2.6757                 3.1237
 Frc consts  --      0.1534                 0.1986                 0.3471
 IR Inten    --      1.7373                 2.5271                 5.6141

                     10                     11                     12
                      A                      A                      A
 Frequencies --    455.8278               520.0072               749.5167
 Red. masses --      2.5092                 3.4497                 3.4865
 Frc consts  --      0.3072                 0.5496                 1.1540
 IR Inten    --     11.0818                 2.0195                 5.7878

                     13                     14                     15
                      A                      A                      A
 Frequencies --    920.7927               923.1238               961.9281
 Red. masses --      2.1269                 1.7453                 1.2375
 Frc consts  --      1.0625                 0.8763                 0.6747
 IR Inten    --      2.4139                 0.0633                 1.0257

                     16                     17                     18
                      A                      A                      A
 Frequencies --    990.6012              1032.0890              1081.2551
 Red. masses --      1.9570                 1.4253                 6.8646
 Frc consts  --      1.1314                 0.8945                 4.7285
 IR Inten    --     51.6577                 6.5544                72.3597

                     19                     20                     21
                      A                      A                      A
 Frequencies --   1156.0152              1181.0637              1238.7218
 Red. masses --      1.5473                 1.4990                 1.7229
 Frc consts  --      1.2183                 1.2320                 1.5576
 IR Inten    --     28.0132               111.1423                 8.2573

                     22                     23                     24
                      A                      A                      A
 Frequencies --   1245.6100              1286.5177              1374.0372
 Red. masses --      1.2439                 1.8660                 1.3169
 Frc consts  --      1.1371                 1.8196                 1.4648
 IR Inten    --      3.1465                11.6690                24.1079

                     25                     26                     27
                      A                      A                      A
 Frequencies --   1404.9240              1412.0284              1451.6090
 Red. masses --      1.3543                 1.5363                 1.3988
 Frc consts  --      1.5750                 1.8047                 1.7367
 IR Inten    --     15.6025                24.2755                 5.5605

                     28                     29                     30
                      A                      A                      A
 Frequencies --   1483.0133              1485.2720              1494.9168
 Red. masses --      1.0462                 1.0696                 1.0685
 Frc consts  --      1.3557                 1.3903                 1.4069
 IR Inten    --      0.7677                 1.4679                 6.4207

                     31                     32                     33
                      A                      A                      A
 Frequencies --   1508.0558              1521.9291              2951.1934
 Red. masses --      1.0752                 1.0800                 1.0648
 Frc consts  --      1.4407                 1.4739                 5.4642
 IR Inten    --      5.4239                 1.3585                67.5998

                     34                     35                     36
                      A                      A                      A
 Frequencies --   3013.7202              3024.8288              3047.5952
 Red. masses --      1.0960                 1.0423                 1.0356
 Frc consts  --      5.8651                 5.6187                 5.6669
 IR Inten    --     48.3738                32.4257                13.2546

                     37                     38                     39
                      A                      A                      A
 Frequencies --   3096.7061              3116.6965              3132.2961
 Red. masses --      1.0934                 1.1017                 1.1013
 Frc consts  --      6.1780                 6.3052                 6.3664
 IR Inten    --     25.7360                26.8619                 5.8002

                     40                     41                     42
                      A                      A                      A
 Frequencies --   3139.7310              3802.8028              3837.6267
 Red. masses --      1.1010                 1.0659                 1.0666
 Frc consts  --      6.3949                 9.0816                 9.2552
 IR Inten    --     21.0618                 8.7507                25.2019

 - Thermochemistry -
 -------------------
 Temperature   298.150 Kelvin.  Pressure   1.00000 Atm.
 Atom     1 has atomic number  6 and mass  12.00000

 Molecular mass:    90.06808 amu.
 Principal axes and moments of inertia in atomic units:
                           1         2         3
     Eigenvalues --   398.68214 677.07512 683.88503
           X            0.99796  -0.02292   0.05957
           Y            0.00743   0.96865   0.24832
           Z           -0.06340  -0.24737   0.96685
 This molecule is an asymmetric top.
 Rotational symmetry number  1.
 Rotational temperatures (Kelvin)      0.21725     0.12792     0.12665
 Rotational constants (GHZ):           4.52677     2.66550     2.63895
 Zero-point vibrational energy     368068.2 (Joules/Mol)
                                   87.97041 (Kcal/Mol)
 Warning -- explicit consideration of  11 degrees of freedom as
           vibrations may cause significant error
 Vibrational temperatures:    187.81   308.06   320.91   337.94   384.87
          (Kelvin)            418.08   495.32   510.73   624.80   655.83
                              748.17  1078.39  1324.81  1328.17  1384.00
                             1425.25  1484.94  1555.68  1663.25  1699.29
                             1782.24  1792.15  1851.01  1976.93  2021.37
                             2031.59  2088.54  2133.72  2136.97  2150.85
                             2169.75  2189.71  4246.10  4336.07  4352.05
                             4384.80  4455.46  4484.23  4506.67  4517.37
                             5471.38  5521.48

 Zero-point correction=                           0.140190 (Hartree/Particle)
 Thermal correction to Energy=                    0.148102
 Thermal correction to Enthalpy=                  0.149046
 Thermal correction to Gibbs Free Energy=         0.109287
 Sum of electronic and zero-point Energies=           -308.769406
 Sum of electronic and thermal Energies=              -308.761493
 Sum of electronic and thermal Enthalpies=            -308.760549
 Sum of electronic and thermal Free Energies=         -308.800309

                     E (Thermal)             CV                S
                      KCal/Mol        Cal/Mol-Kelvin    Cal/Mol-Kelvin
 Total                   92.936             28.703             83.681
 Electronic               0.000              0.000              0.000
 Translational            0.889              2.981             39.406
 Rotational               0.889              2.981             26.715
 Vibrational             91.158             22.742             17.560
 Vibration     1          0.612              1.923              2.938
 Vibration     2          0.644              1.819              2.008
 Vibration     3          0.649              1.806              1.934
 Vibration     4          0.655              1.787              1.841
 Vibration     5          0.673              1.733              1.612
 Vibration     6          0.687              1.691              1.471
 Vibration     7          0.723              1.587              1.192
 Vibration     8          0.731              1.565              1.144
 Vibration     9          0.795              1.396              0.845
 Vibration    10          0.814              1.348              0.778
 Vibration    11          0.875              1.206              0.610

 Optimization completed.
    -- Stationary point found.
 Normal termination of Gaussian 09 at Wed Aug 24 18:04:50 2022.

 -----------------------------------------------------------------
 #P Geom=AllCheck Guess=TCheck SCRF=Check CCSD(T,E4T,FrzG4)/GTBas1
 -----------------------------------------------------------------

 Structure from the checkpoint file:  "G4.Frag_599.chk"
 --------
 Frag_599
 --------
 Charge =  0 Multiplicity = 1

 SCF Done:  E(RHF) =  -306.998549650     A.U. after   11 cycles
 E2 =    -0.8862628859D+00 EUMP2 =    -0.30788481253639D+03
 CCSD(T)
 CCSD(T)= -0.30796582084D+03
 SDTQ=-307.9651828\MP4SDQ=-307.9405673\CCSD=-307.941117\CCSD(T)=-307.96
 Normal termination of Gaussian 09 at Wed Aug 24 18:11:26 2022.

 ---------------------------------------------------------
 #P Geom=AllCheck Guess=TCheck SCRF=Check MP4=FrzG4/GTBas2
 ---------------------------------------------------------

 Structure from the checkpoint file:  "G4.Frag_599.chk"
 --------
 Frag_599
 --------
 Charge =  0 Multiplicity = 1

 SCF Done:  E(RHF) =  -307.008867975     A.U. after   12 cycles
 E2 =    -0.9013499930D+00 EUMP2 =    -0.30791021796785D+03
 Normal termination of Gaussian 09 at Wed Aug 24 18:21:10 2022.

 ---------------------------------------------------------
 #P Geom=AllCheck Guess=TCheck SCRF=Check MP4=FrzG4/GTBas3
 ---------------------------------------------------------

 Structure from the checkpoint file:  "G4.Frag_599.chk"
 --------
 Frag_599
 --------
 Charge =  0 Multiplicity = 1

 SCF Done:  E(RHF) =  -307.042162744     A.U. after   10 cycles
 E2 =    -0.1108531649D+01 EUMP2 =    -0.30815069439295D+03
 Normal termination of Gaussian 09 at Wed Aug 24 22:04:06 2022.

 -----------------------------------------------------------
 #P Geom=AllCheck Guess=TCheck SCRF=Check MP2=Full/GTLargeXP
 -----------------------------------------------------------

 Structure from the checkpoint file:  "G4.Frag_599.chk"
 --------
 Frag_599
 --------
 Charge =  0 Multiplicity = 1

 SCF Done:  E(RHF) =  -307.123768194     A.U. after   11 cycles
 E2 =    -0.1450916884D+01 EUMP2 =    -0.30857468507799D+03
 Normal termination of Gaussian 09 at Wed Aug 24 22:11:18 2022.
 SCF Done:  E(RHF) =  -307.148953037     A.U. after    8 cycles
 Normal termination of Gaussian 09 at Wed Aug 24 22:17:56 2022.

                         Standard orientation:
 ---------------------------------------------------------------------
 Center     Atomic      Atomic             Coordinates (Angstroms)
 Number     Number       Type             X           Y           Z
 ---------------------------------------------------------------------
      1          6           0        0.564158   -1.122099    0.999104
      2          6           0        0.422447    0.004397   -0.029322
      3          6           0        0.579212    1.377362    0.622871
      4          8           0        1.454209   -0.079677   -1.017706
      5          6           0       -0.927391   -0.092581   -0.760953
      6          8           0       -1.980679    0.002277    0.186257
      7          1           0        0.497850   -2.102742    0.510605
      8          1           0        1.531927   -1.055444    1.504079
      9          1           0       -0.233768   -1.070081    1.743526
     10          1           0        1.522844    1.434409    1.172274
     11          1           0       -0.248884    1.566061    1.309315
     12          1           0        0.583672    2.156911   -0.144806
     13          1           0        1.485021   -0.988912   -1.334495
     14          1           0       -0.974897    0.713602   -1.507288
     15          1           0       -0.966204   -1.053028   -1.303604
     16          1           0       -2.816358    0.015953   -0.288221
 ---------------------------------------------------------------------

 SCF Done:  E(RHF) =  -307.154479715     A.U. after    8 cycles

 The electronic state is 1-A.
 Alpha  occ. eigenvalues --  -20.56181 -20.55255 -11.28446 -11.27637 -11.21236
 Alpha  occ. eigenvalues --  -11.20452  -1.37164  -1.35656  -1.05408  -0.93692
 Alpha  occ. eigenvalues --   -0.92506  -0.76944  -0.71201  -0.66811  -0.64181
 Alpha  occ. eigenvalues --   -0.62126  -0.59171  -0.55045  -0.53262  -0.52646
 Alpha  occ. eigenvalues --   -0.51986  -0.50588  -0.47369  -0.44528  -0.43214
 Alpha virt. eigenvalues --    0.03216   0.04186   0.04427   0.05334   0.06719
 Alpha virt. eigenvalues --    0.06864   0.07237   0.07416   0.07792   0.09872
 Alpha virt. eigenvalues --    0.10760   0.11196   0.11219   0.14050   0.14376

 Mulliken charges:
               1
     1  C   -0.575605
     2  C    0.436544
     3  C   -0.569711
     4  O   -0.621690
     5  C   -0.153187
     6  O   -0.582554
     7  H    0.146445
     8  H    0.176201
     9  H    0.201257
    10  H    0.165060
    11  H    0.196958
    12  H    0.170466
    13  H    0.358106
    14  H    0.156298
    15  H    0.122109
    16  H    0.373303
 Sum of Mulliken charges =  -0.00000

 Dipole moment (field-independent basis, Debye):
    X=             -1.4159    Y=             -1.2276    Z=             -0.8664  Tot=              2.0645
 Quadrupole moment (field-independent basis, Debye-Ang):
   XX=            -37.4141   YY=            -37.0172   ZZ=            -38.5038
   XY=             -2.0923   XZ=              4.6373   YZ=              2.0989

 Normal termination of Gaussian 09 at Thu Aug 25 01:35:26 2022.
