 Gaussian 09, Revision E.01,
 Gaussian 09:  ES64L-G09RevE.01 30-Nov-2015

 -----
 #P G4
 -----

 --------
 Frag_458
 --------
 Symbolic Z-matrix:
 Charge =  0 Multiplicity = 1

 SCF Done:  E(RB3LYP) =  -289.041532648     A.U. after   12 cycles
 SCF Done:  E(RB3LYP) =  -289.046120907     A.U. after   11 cycles
 SCF Done:  E(RB3LYP) =  -289.046430707     A.U. after   10 cycles
 SCF Done:  E(RB3LYP) =  -289.046587222     A.U. after   10 cycles
 SCF Done:  E(RB3LYP) =  -289.046704180     A.U. after   10 cycles
 SCF Done:  E(RB3LYP) =  -289.046825263     A.U. after   10 cycles
 SCF Done:  E(RB3LYP) =  -289.048456467     A.U. after   13 cycles
 SCF Done:  E(RB3LYP) =  -289.049698394     A.U. after   10 cycles
 SCF Done:  E(RB3LYP) =  -289.050681039     A.U. after   11 cycles
 SCF Done:  E(RB3LYP) =  -289.051800026     A.U. after   11 cycles
 SCF Done:  E(RB3LYP) =  -289.052405862     A.U. after    9 cycles
 SCF Done:  E(RB3LYP) =  -289.052407474     A.U. after    7 cycles
 SCF Done:  E(RB3LYP) =  -289.052407532     A.U. after    6 cycles
 Optimization completed.
    -- Stationary point found.
 Normal termination of Gaussian 09 at Fri Aug 26 07:18:52 2022.

 ----------------------------------------------------------
 #P Geom=AllCheck Guess=TCheck SCRF=Check B3LYP/GTBas3 Freq
 ----------------------------------------------------------

 Structure from the checkpoint file:  "G4.Frag_458.chk"
 --------
 Frag_458
 --------
 Charge =  0 Multiplicity = 1

 SCF Done:  E(RB3LYP) =  -289.052407532     A.U. after    1 cycles

  Exact polarizability:  61.030  -0.085  54.344  -0.742  -0.002  53.247
 Approx polarizability:  77.363  -0.971  75.796  -0.175   0.860  79.232

                      1                      2                      3
                      A                      A                      A
 Frequencies --    105.7473               213.6713               226.3492
 Red. masses --      1.9125                 1.0709                 1.1024
 Frc consts  --      0.0126                 0.0288                 0.0333
 IR Inten    --      0.7313                11.2894                11.8159

                      4                      5                      6
                      A                      A                      A
 Frequencies --    248.8188               265.5078               337.9838
 Red. masses --      2.3877                 1.2023                 2.1412
 Frc consts  --      0.0871                 0.0499                 0.1441
 IR Inten    --      4.3809                 0.9699                 4.5831

                      7                      8                      9
                      A                      A                      A
 Frequencies --    359.9535               414.1106               458.5748
 Red. masses --      1.9293                 1.5188                 2.9014
 Frc consts  --      0.1473                 0.1535                 0.3595
 IR Inten    --     21.5102                51.4229                24.4654

                     10                     11                     12
                      A                      A                      A
 Frequencies --    489.2469               557.2203               740.1148
 Red. masses --      2.1964                 2.8825                 3.3337
 Frc consts  --      0.3097                 0.5273                 1.0759
 IR Inten    --      7.7174                22.6066                 1.8738

                     13                     14                     15
                      A                      A                      A
 Frequencies --    790.2085               877.3679               913.9332
 Red. masses --      1.2273                 1.5180                 1.8459
 Frc consts  --      0.4515                 0.6885                 0.9084
 IR Inten    --      1.6590               140.6578                16.0720

                     16                     17                     18
                      A                      A                      A
 Frequencies --    952.9291              1002.2833              1015.7145
 Red. masses --      1.6745                 1.6640                 2.0272
 Frc consts  --      0.8959                 0.9849                 1.2323
 IR Inten    --     34.0503                22.5501                32.1424

                     19                     20                     21
                      A                      A                      A
 Frequencies --   1066.5266              1078.4427              1148.0584
 Red. masses --      1.4602                 1.8234                 1.6897
 Frc consts  --      0.9786                 1.2495                 1.3122
 IR Inten    --      5.3634                 1.8216                36.3579

                     22                     23                     24
                      A                      A                      A
 Frequencies --   1216.9083              1282.1726              1334.0572
 Red. masses --      2.4972                 1.2379                 1.7645
 Frc consts  --      2.1788                 1.1991                 1.8502
 IR Inten    --     56.1338                23.2739                23.8709

                     25                     26                     27
                      A                      A                      A
 Frequencies --   1363.3559              1379.0436              1408.2420
 Red. masses --      1.7083                 1.3243                 1.2454
 Frc consts  --      1.8708                 1.4839                 1.4552
 IR Inten    --      9.0625                22.6009                 3.5900

                     28                     29                     30
                      A                      A                      A
 Frequencies --   1420.7348              1475.6395              1489.3175
 Red. masses --      1.4911                 1.0646                 1.0678
 Frc consts  --      1.7734                 1.3658                 1.3955
 IR Inten    --     26.4200                 0.0891                 0.6415

                     31                     32                     33
                      A                      A                      A
 Frequencies --   1495.1742              1505.9791              1512.5108
 Red. masses --      1.0519                 1.0505                 1.0618
 Frc consts  --      1.3855                 1.4037                 1.4311
 IR Inten    --      2.9842                 3.9432                 2.8690

                     34                     35                     36
                      A                      A                      A
 Frequencies --   1645.1289              3015.2478              3040.2571
 Red. masses --      1.1110                 1.0604                 1.0356
 Frc consts  --      1.7716                 5.6803                 5.6395
 IR Inten    --     36.8425                29.5361                16.3871

                     37                     38                     39
                      A                      A                      A
 Frequencies --   3043.5367              3054.1585              3105.1243
 Red. masses --      1.0369                 1.0993                 1.1013
 Frc consts  --      5.6590                 6.0413                 6.2561
 IR Inten    --     17.7053                21.9668                41.1824

                     40                     41                     42
                      A                      A                      A
 Frequencies --   3113.1568              3122.1850              3124.9234
 Red. masses --      1.1021                 1.1008                 1.1012
 Frc consts  --      6.2934                 6.3221                 6.3360
 IR Inten    --     20.8852                28.1079                19.5770

                     43                     44                     45
                      A                      A                      A
 Frequencies --   3482.6991              3567.5493              3787.2824
 Red. masses --      1.0492                 1.0922                 1.0649
 Frc consts  --      7.4978                 8.1899                 8.9995
 IR Inten    --      0.1169                 0.3339                19.9298

 - Thermochemistry -
 -------------------
 Temperature   298.150 Kelvin.  Pressure   1.00000 Atm.
 Atom     1 has atomic number  6 and mass  12.00000

 Molecular mass:    89.08406 amu.
 Principal axes and moments of inertia in atomic units:
                           1         2         3
     Eigenvalues --   391.99599 681.98568 704.56133
           X            0.99971   0.01266  -0.02035
           Y           -0.01588   0.98587  -0.16677
           Z            0.01796   0.16705   0.98579
 This molecule is an asymmetric top.
 Rotational symmetry number  1.
 Rotational temperatures (Kelvin)      0.22096     0.12700     0.12293
 Rotational constants (GHZ):           4.60398     2.64630     2.56151
 Zero-point vibrational energy     402227.3 (Joules/Mol)
                                   96.13462 (Kcal/Mol)
 Warning -- explicit consideration of  11 degrees of freedom as
           vibrations may cause significant error
 Vibrational temperatures:    152.15   307.42   325.67   357.99   382.01
          (Kelvin)            486.28   517.89   595.81   659.79   703.92
                              801.71  1064.86  1136.93  1262.34  1314.94
                             1371.05  1442.06  1461.38  1534.49  1551.64
                             1651.80  1750.86  1844.76  1919.41  1961.56
                             1984.13  2026.14  2044.12  2123.11  2142.79
                             2151.22  2166.77  2176.16  2366.97  4338.26
                             4374.25  4378.97  4394.25  4467.58  4479.13
                             4492.12  4496.06  5010.82  5132.90  5449.05

 Zero-point correction=                           0.153200 (Hartree/Particle)
 Thermal correction to Energy=                    0.161041
 Thermal correction to Enthalpy=                  0.161985
 Thermal correction to Gibbs Free Energy=         0.122332
 Sum of electronic and zero-point Energies=           -288.899207
 Sum of electronic and thermal Energies=              -288.891366
 Sum of electronic and thermal Enthalpies=            -288.890422
 Sum of electronic and thermal Free Energies=         -288.930076

                     E (Thermal)             CV                S
                      KCal/Mol        Cal/Mol-Kelvin    Cal/Mol-Kelvin
 Total                  101.055             29.158             83.458
 Electronic               0.000              0.000              0.000
 Translational            0.889              2.981             39.374
 Rotational               0.889              2.981             26.735
 Vibrational             99.277             23.196             17.350
 Vibration     1          0.605              1.945              3.346
 Vibration     2          0.644              1.820              2.012
 Vibration     3          0.650              1.801              1.908
 Vibration     4          0.662              1.765              1.739
 Vibration     5          0.671              1.736              1.625
 Vibration     6          0.718              1.600              1.222
 Vibration     7          0.734              1.555              1.122
 Vibration     8          0.778              1.440              0.912
 Vibration     9          0.817              1.342              0.770
 Vibration    10          0.845              1.274              0.686
 Vibration    11          0.913              1.124              0.529

 Optimization completed.
    -- Stationary point found.
 Normal termination of Gaussian 09 at Fri Aug 26 07:19:32 2022.

 -----------------------------------------------------------------
 #P Geom=AllCheck Guess=TCheck SCRF=Check CCSD(T,E4T,FrzG4)/GTBas1
 -----------------------------------------------------------------

 Structure from the checkpoint file:  "G4.Frag_458.chk"
 --------
 Frag_458
 --------
 Charge =  0 Multiplicity = 1

 SCF Done:  E(RHF) =  -287.179698527     A.U. after   11 cycles
 E2 =    -0.8739925822D+00 EUMP2 =    -0.28805369110959D+03
 CCSD(T)
 CCSD(T)= -0.28814049685D+03
 41151\CCSD=-288.1150479\CCSD(T)=-288.1404968\RMSD=8.054e-09\PG=C01 [X(
 Normal termination of Gaussian 09 at Fri Aug 26 07:22:12 2022.

 ---------------------------------------------------------
 #P Geom=AllCheck Guess=TCheck SCRF=Check MP4=FrzG4/GTBas2
 ---------------------------------------------------------

 Structure from the checkpoint file:  "G4.Frag_458.chk"
 --------
 Frag_458
 --------
 Charge =  0 Multiplicity = 1

 SCF Done:  E(RHF) =  -287.188626216     A.U. after   12 cycles
 E2 =    -0.8877920748D+00 EUMP2 =    -0.28807641829071D+03
 Normal termination of Gaussian 09 at Fri Aug 26 07:23:09 2022.

 ---------------------------------------------------------
 #P Geom=AllCheck Guess=TCheck SCRF=Check MP4=FrzG4/GTBas3
 ---------------------------------------------------------

 Structure from the checkpoint file:  "G4.Frag_458.chk"
 --------
 Frag_458
 --------
 Charge =  0 Multiplicity = 1

 SCF Done:  E(RHF) =  -287.221721559     A.U. after   10 cycles
 E2 =    -0.1089608126D+01 EUMP2 =    -0.28831132968460D+03
 Normal termination of Gaussian 09 at Fri Aug 26 07:28:16 2022.

 -----------------------------------------------------------
 #P Geom=AllCheck Guess=TCheck SCRF=Check MP2=Full/GTLargeXP
 -----------------------------------------------------------

 Structure from the checkpoint file:  "G4.Frag_458.chk"
 --------
 Frag_458
 --------
 Charge =  0 Multiplicity = 1

 SCF Done:  E(RHF) =  -287.293911177     A.U. after   11 cycles
 E2 =    -0.1425505549D+01 EUMP2 =    -0.28871941672579D+03
 Normal termination of Gaussian 09 at Fri Aug 26 07:30:38 2022.
 SCF Done:  E(RHF) =  -287.316897758     A.U. after    8 cycles
 Normal termination of Gaussian 09 at Fri Aug 26 07:33:04 2022.

                         Standard orientation:
 ---------------------------------------------------------------------
 Center     Atomic      Atomic             Coordinates (Angstroms)
 Number     Number       Type             X           Y           Z
 ---------------------------------------------------------------------
      1          6           0       -2.142425    0.027778    0.012118
      2          6           0       -0.872350   -0.627973   -0.531982
      3          6           0        0.439948   -0.017422    0.007510
      4          6           0        0.612526    1.451995   -0.394757
      5          7           0        1.539228   -0.880781   -0.435673
      6          8           0        0.453310   -0.023967    1.429732
      7          1           0       -3.029679   -0.536242   -0.290717
      8          1           0       -2.111253    0.063460    1.104219
      9          1           0       -2.264006    1.051685   -0.354750
     10          1           0       -0.860719   -1.692562   -0.267530
     11          1           0       -0.863119   -0.581090   -1.629250
     12          1           0       -0.179531    2.077262    0.025240
     13          1           0        0.600075    1.557698   -1.483811
     14          1           0        1.568629    1.825764   -0.015822
     15          1           0        1.471536   -1.064303   -1.432500
     16          1           0        2.426610   -0.408916   -0.281038
     17          1           0        0.614190   -0.941826    1.680486
 ---------------------------------------------------------------------

 SCF Done:  E(RHF) =  -287.321964070     A.U. after    8 cycles

 The electronic state is 1-A.
 Alpha  occ. eigenvalues --  -20.54619 -15.54502 -11.31155 -11.22065 -11.21303
 Alpha  occ. eigenvalues --  -11.20947  -1.36686  -1.17523  -1.03973  -0.97232
 Alpha  occ. eigenvalues --   -0.87156  -0.77540  -0.68405  -0.66801  -0.62928
 Alpha  occ. eigenvalues --   -0.61436  -0.57868  -0.54301  -0.53235  -0.52741
 Alpha  occ. eigenvalues --   -0.50674  -0.48975  -0.48013  -0.43988  -0.40423
 Alpha virt. eigenvalues --    0.03466   0.04268   0.04389   0.05146   0.06619
 Alpha virt. eigenvalues --    0.07016   0.07313   0.07421   0.07738   0.09861
 Alpha virt. eigenvalues --    0.09968   0.10636   0.10935   0.12012   0.13415

 Mulliken charges:
               1
     1  C   -0.542437
     2  C   -0.306449
     3  C    0.451144
     4  C   -0.543167
     5  N   -0.752206
     6  O   -0.619189
     7  H    0.164464
     8  H    0.186433
     9  H    0.155488
    10  H    0.180649
    11  H    0.148344
    12  H    0.177302
    13  H    0.164358
    14  H    0.163816
    15  H    0.295354
    16  H    0.294655
    17  H    0.381441
 Sum of Mulliken charges =  -0.00000

 Dipole moment (field-independent basis, Debye):
    X=              0.2419    Y=             -0.1726    Z=             -1.7926  Tot=              1.8171
 Quadrupole moment (field-independent basis, Debye-Ang):
   XX=            -37.8983   YY=            -40.2688   ZZ=            -39.2914
   XY=              1.1589   XZ=             -1.3171   YZ=             -1.7069

 Normal termination of Gaussian 09 at Fri Aug 26 07:42:16 2022.
