 Gaussian 09, Revision E.01,
 Gaussian 09:  ES64L-G09RevE.01 30-Nov-2015

 -----
 #P G4
 -----

 --------
 Frag_850
 --------
 Symbolic Z-matrix:
 Charge =  0 Multiplicity = 1

 SCF Done:  E(RB3LYP) =  -269.043812225     A.U. after   14 cycles
 SCF Done:  E(RB3LYP) =  -269.054527680     A.U. after   12 cycles
 SCF Done:  E(RB3LYP) =  -269.055635892     A.U. after   11 cycles
 SCF Done:  E(RB3LYP) =  -269.056002792     A.U. after   11 cycles
 SCF Done:  E(RB3LYP) =  -269.056080790     A.U. after   10 cycles
 SCF Done:  E(RB3LYP) =  -269.056090414     A.U. after    7 cycles
 SCF Done:  E(RB3LYP) =  -269.056091217     A.U. after    7 cycles
 SCF Done:  E(RB3LYP) =  -269.056091173     A.U. after    7 cycles
 Optimization completed.
    -- Stationary point found.
 Normal termination of Gaussian 09 at Wed Aug 24 23:20:13 2022.

 ----------------------------------------------------------
 #P Geom=AllCheck Guess=TCheck SCRF=Check B3LYP/GTBas3 Freq
 ----------------------------------------------------------

 Structure from the checkpoint file:  "G4.Frag_850.chk"
 --------
 Frag_850
 --------
 Charge =  0 Multiplicity = 1

 SCF Done:  E(RB3LYP) =  -269.056091173     A.U. after    1 cycles

  Exact polarizability:  72.974  -0.009  58.137  -1.598   0.003  58.728
 Approx polarizability:  98.181  -0.007  81.613  -4.809  -0.005  88.743

                      1                      2                      3
                      A                      A                      A
 Frequencies --     73.4954               201.0248               263.4718
 Red. masses --      1.8074                 1.0642                 1.0221
 Frc consts  --      0.0058                 0.0253                 0.0418
 IR Inten    --      5.0810                 0.0104                 0.0298

                      4                      5                      6
                      A                      A                      A
 Frequencies --    269.7008               303.0919               316.9510
 Red. masses --      1.0372                 2.4675                 1.2851
 Frc consts  --      0.0445                 0.1336                 0.0761
 IR Inten    --      0.7967                 0.4992                 1.3524

                      7                      8                      9
                      A                      A                      A
 Frequencies --    361.7094               402.9696               442.2492
 Red. masses --      2.6413                 2.4322                 2.4515
 Frc consts  --      0.2036                 0.2327                 0.2825
 IR Inten    --     13.6045                 1.2807                 7.9995

                     10                     11                     12
                      A                      A                      A
 Frequencies --    473.6488               530.7111               696.6821
 Red. masses --      2.7417                 2.7540                 4.7779
 Frc consts  --      0.3624                 0.4570                 1.3663
 IR Inten    --     13.7999                 6.9109                 7.5671

                     13                     14                     15
                      A                      A                      A
 Frequencies --    743.1195               899.7638               965.3070
 Red. masses --      4.1148                 2.2346                 2.0525
 Frc consts  --      1.3388                 1.0659                 1.1268
 IR Inten    --      0.1504                 0.0747                13.6270

                     16                     17                     18
                      A                      A                      A
 Frequencies --   1057.1168              1068.1603              1105.3047
 Red. masses --      1.1904                 4.0381                 1.3385
 Frc consts  --      0.7838                 2.7145                 0.9634
 IR Inten    --      0.0268                52.1553                 4.4046

                     19                     20                     21
                      A                      A                      A
 Frequencies --   1108.3295              1131.8159              1165.1910
 Red. masses --      1.3780                 1.3380                 1.6626
 Frc consts  --      0.9973                 1.0098                 1.3299
 IR Inten    --      2.0689                 1.9144                 1.6360

                     22                     23                     24
                      A                      A                      A
 Frequencies --   1226.7826              1266.0637              1297.5265
 Red. masses --      1.6561                 2.0060                 2.5626
 Frc consts  --      1.4685                 1.8945                 2.5420
 IR Inten    --     10.9036                 0.5762                 1.4867

                     25                     26                     27
                      A                      A                      A
 Frequencies --   1404.1254              1408.9924              1436.8622
 Red. masses --      1.1554                 1.1621                 1.1550
 Frc consts  --      1.3421                 1.3593                 1.4049
 IR Inten    --      1.9951                 2.0582                 2.7389

                     28                     29                     30
                      A                      A                      A
 Frequencies --   1446.2612              1454.5182              1466.9220
 Red. masses --      1.0520                 1.1652                 1.0507
 Frc consts  --      1.2965                 1.4524                 1.3321
 IR Inten    --      0.4433                 6.4578                 7.3144

                     31                     32                     33
                      A                      A                      A
 Frequencies --   1473.0525              1484.0599              1494.8673
 Red. masses --      1.0492                 1.0465                 1.0763
 Frc consts  --      1.3414                 1.3579                 1.4170
 IR Inten    --      0.0192                 1.6681                10.1251

                     34                     35                     36
                      A                      A                      A
 Frequencies --   1496.8217              1510.7924              1522.6460
 Red. masses --      1.0523                 1.0486                 1.0565
 Frc consts  --      1.3890                 1.4102                 1.4431
 IR Inten    --      3.5539                10.6056                35.7531

                     37                     38                     39
                      A                      A                      A
 Frequencies --   2811.2330              2823.4962              3045.4539
 Red. masses --      1.0971                 1.0430                 1.0385
 Frc consts  --      5.1087                 4.8991                 5.6747
 IR Inten    --    174.8337               173.5401                15.6359

                     40                     41                     42
                      A                      A                      A
 Frequencies --   3051.2202              3062.4945              3069.6783
 Red. masses --      1.0379                 1.0368                 1.0839
 Frc consts  --      5.6931                 5.7292                 6.0174
 IR Inten    --     16.9491                52.1777                28.1176

                     43                     44                     45
                      A                      A                      A
 Frequencies --   3142.7942              3147.7082              3160.6208
 Red. masses --      1.0951                 1.0962                 1.0985
 Frc consts  --      6.3731                 6.3994                 6.4652
 IR Inten    --      2.2020                14.6234                12.7783

                     46                     47                     48
                      A                      A                      A
 Frequencies --   3176.0422              3179.1839              3184.0661
 Red. masses --      1.1059                 1.1052                 1.1048
 Frc consts  --      6.5725                 6.5817                 6.5995
 IR Inten    --      0.5380                10.2997                 5.3634

 - Thermochemistry -
 -------------------
 Temperature   298.150 Kelvin.  Pressure   1.00000 Atm.
 Atom     1 has atomic number  6 and mass  12.00000

 Molecular mass:    88.10005 amu.
 Principal axes and moments of inertia in atomic units:
                           1         2         3
     Eigenvalues --   390.92930 640.07168 644.54485
           X            0.99940   0.03461   0.00007
           Y            0.00009  -0.00480   0.99999
           Z           -0.03461   0.99939   0.00480
 This molecule is an asymmetric top.
 Rotational symmetry number  1.
 Rotational temperatures (Kelvin)      0.22156     0.13532     0.13438
 Rotational constants (GHZ):           4.61654     2.81959     2.80002
 Zero-point vibrational energy     429603.5 (Joules/Mol)
                                  102.67770 (Kcal/Mol)
 Warning -- explicit consideration of  11 degrees of freedom as
           vibrations may cause significant error
 Vibrational temperatures:    105.74   289.23   379.08   388.04   436.08
          (Kelvin)            456.02   520.42   579.78   636.30   681.47
                              763.57  1002.37  1069.18  1294.56  1388.86
                             1520.95  1536.84  1590.29  1594.64  1628.43
                             1676.45  1765.06  1821.58  1866.85  2020.22
                             2027.22  2067.32  2080.84  2092.72  2110.57
                             2119.39  2135.23  2150.78  2153.59  2173.69
                             2190.75  4044.73  4062.38  4381.72  4390.02
                             4406.24  4416.58  4521.77  4528.84  4547.42
                             4569.61  4574.13  4581.16

 Zero-point correction=                           0.163627 (Hartree/Particle)
 Thermal correction to Energy=                    0.171483
 Thermal correction to Enthalpy=                  0.172427
 Thermal correction to Gibbs Free Energy=         0.132654
 Sum of electronic and zero-point Energies=           -268.892464
 Sum of electronic and thermal Energies=              -268.884608
 Sum of electronic and thermal Enthalpies=            -268.883664
 Sum of electronic and thermal Free Energies=         -268.923437

                     E (Thermal)             CV                S
                      KCal/Mol        Cal/Mol-Kelvin    Cal/Mol-Kelvin
 Total                  107.607             29.110             83.710
 Electronic               0.000              0.000              0.000
 Translational            0.889              2.981             39.340
 Rotational               0.889              2.981             26.581
 Vibrational            105.830             23.148             17.789
 Vibration     1          0.599              1.967              4.057
 Vibration     2          0.638              1.838              2.124
 Vibration     3          0.670              1.740              1.639
 Vibration     4          0.674              1.729              1.598
 Vibration     5          0.695              1.668              1.400
 Vibration     6          0.704              1.641              1.326
 Vibration     7          0.736              1.551              1.115
 Vibration     8          0.768              1.464              0.952
 Vibration     9          0.802              1.378              0.820
 Vibration    10          0.830              1.309              0.727
 Vibration    11          0.886              1.182              0.586

 Normal termination of Gaussian 09 at Wed Aug 24 23:24:17 2022.

 -----------------------------------------------------------------
 #P Geom=AllCheck Guess=TCheck SCRF=Check CCSD(T,E4T,FrzG4)/GTBas1
 -----------------------------------------------------------------

 Structure from the checkpoint file:  "G4.Frag_850.chk"
 --------
 Frag_850
 --------
 Charge =  0 Multiplicity = 1

 SCF Done:  E(RHF) =  -267.215325986     A.U. after   12 cycles
 E2 =    -0.8658170701D+00 EUMP2 =    -0.26808114305631D+03
 CCSD(T)
 CCSD(T)= -0.26817661431D+03
 72344\CCSD(T)=-268.1766143\RMSD=6.742e-09\PG=C01 [X(C4H12N2)]\\@
 Normal termination of Gaussian 09 at Wed Aug 24 23:32:34 2022.

 ---------------------------------------------------------
 #P Geom=AllCheck Guess=TCheck SCRF=Check MP4=FrzG4/GTBas2
 ---------------------------------------------------------

 Structure from the checkpoint file:  "G4.Frag_850.chk"
 --------
 Frag_850
 --------
 Charge =  0 Multiplicity = 1

 SCF Done:  E(RHF) =  -267.223852960     A.U. after   12 cycles
 E2 =    -0.8796422209D+00 EUMP2 =    -0.26810349518118D+03
 Normal termination of Gaussian 09 at Wed Aug 24 23:43:34 2022.

 ---------------------------------------------------------
 #P Geom=AllCheck Guess=TCheck SCRF=Check MP4=FrzG4/GTBas3
 ---------------------------------------------------------

 Structure from the checkpoint file:  "G4.Frag_850.chk"
 --------
 Frag_850
 --------
 Charge =  0 Multiplicity = 1

 SCF Done:  E(RHF) =  -267.249485062     A.U. after   11 cycles
 E2 =    -0.1075905849D+01 EUMP2 =    -0.26832539091127D+03
 Normal termination of Gaussian 09 at Thu Aug 25 04:22:58 2022.

 -----------------------------------------------------------
 #P Geom=AllCheck Guess=TCheck SCRF=Check MP2=Full/GTLargeXP
 -----------------------------------------------------------

 Structure from the checkpoint file:  "G4.Frag_850.chk"
 --------
 Frag_850
 --------
 Charge =  0 Multiplicity = 1

 SCF Done:  E(RHF) =  -267.314108533     A.U. after   12 cycles
 E2 =    -0.1405540338D+01 EUMP2 =    -0.26871964887132D+03
 Normal termination of Gaussian 09 at Thu Aug 25 04:32:10 2022.
 SCF Done:  E(RHF) =  -267.334436246     A.U. after    9 cycles
 Normal termination of Gaussian 09 at Thu Aug 25 04:41:12 2022.

                         Standard orientation:
 ---------------------------------------------------------------------
 Center     Atomic      Atomic             Coordinates (Angstroms)
 Number     Number       Type             X           Y           Z
 ---------------------------------------------------------------------
      1          6           0        2.030966    0.000088   -0.120383
      2          7           0        0.812260    0.002577   -0.888539
      3          7           0       -0.357060    0.000035   -0.018103
      4          6           0       -1.491642   -0.000473   -0.980674
      5          6           0       -0.469395    1.224734    0.847718
      6          6           0       -0.467086   -1.226065    0.845877
      7          1           0        2.224592    0.884423    0.530238
      8          1           0        2.226165   -0.889939    0.521873
      9          1           0        2.835284    0.004381   -0.864617
     10          1           0       -1.381989   -0.885977   -1.604344
     11          1           0       -2.446878    0.000493   -0.448328
     12          1           0       -1.380908    0.883659   -1.606087
     13          1           0       -1.419202    1.237510    1.390618
     14          1           0       -0.382281    2.086622    0.187340
     15          1           0        0.357485    1.226137    1.556622
     16          1           0       -1.419029   -1.243757    1.384874
     17          1           0        0.356753   -1.224765    1.558297
     18          1           0       -0.373445   -2.086777    0.184783
 ---------------------------------------------------------------------

 SCF Done:  E(RHF) =  -267.338955312     A.U. after    8 cycles

 The electronic state is 1-A.
 Alpha  occ. eigenvalues --  -15.67446 -15.46893 -11.26968 -11.26962 -11.26307
 Alpha  occ. eigenvalues --  -11.20217  -1.31841  -1.05747  -0.98504  -0.98391
 Alpha  occ. eigenvalues --   -0.88189  -0.78581  -0.67224  -0.66823  -0.66019
 Alpha  occ. eigenvalues --   -0.59515  -0.58959  -0.54869  -0.54849  -0.53279
 Alpha  occ. eigenvalues --   -0.53012  -0.51550  -0.48304  -0.36556  -0.27956
 Alpha virt. eigenvalues --    0.02842   0.03723   0.03762   0.05171   0.06010
 Alpha virt. eigenvalues --    0.06513   0.06557   0.07351   0.07574   0.09228
 Alpha virt. eigenvalues --    0.09607   0.10176   0.10269   0.12957   0.13802

 Mulliken charges:
               1
     1  C   -0.402628
     2  N   -0.663995
     3  N    0.522070
     4  C   -0.516949
     5  C   -0.548625
     6  C   -0.548959
     7  H    0.099015
     8  H    0.099061
     9  H    0.179515
    10  H    0.215155
    11  H    0.171865
    12  H    0.215687
    13  H    0.179009
    14  H    0.208306
    15  H    0.201904
    16  H    0.179225
    17  H    0.201905
    18  H    0.208438
 Sum of Mulliken charges =  -0.00000

 Dipole moment (field-independent basis, Debye):
    X=             -3.6888    Y=             -0.0093    Z=              3.1841  Tot=              4.8730
 Quadrupole moment (field-independent basis, Debye-Ang):
   XX=            -40.2229   YY=            -38.6598   ZZ=            -42.5472
   XY=             -0.0045   XZ=              2.5692   YZ=              0.0092

 Normal termination of Gaussian 09 at Thu Aug 25 08:41:50 2022.
