 Gaussian 09, Revision E.01,
 Gaussian 09:  ES64L-G09RevE.01 30-Nov-2015

 -----
 #P G4
 -----

 --------
 Frag_917
 --------
 Symbolic Z-matrix:
 Charge =  0 Multiplicity = 1

 SCF Done:  E(RB3LYP) =  -249.669119009     A.U. after   12 cycles
 SCF Done:  E(RB3LYP) =  -249.676319083     A.U. after   11 cycles
 SCF Done:  E(RB3LYP) =  -249.677549284     A.U. after   11 cycles
 SCF Done:  E(RB3LYP) =  -249.677801550     A.U. after   10 cycles
 SCF Done:  E(RB3LYP) =  -249.677824702     A.U. after    9 cycles
 SCF Done:  E(RB3LYP) =  -249.677831129     A.U. after    8 cycles
 SCF Done:  E(RB3LYP) =  -249.677833826     A.U. after    8 cycles
 SCF Done:  E(RB3LYP) =  -249.677834085     A.U. after    7 cycles
 Optimization completed.
    -- Stationary point found.
 Normal termination of Gaussian 09 at Fri Aug 26 13:40:47 2022.

 ----------------------------------------------------------
 #P Geom=AllCheck Guess=TCheck SCRF=Check B3LYP/GTBas3 Freq
 ----------------------------------------------------------

 Structure from the checkpoint file:  "G4.Frag_917.chk"
 --------
 Frag_917
 --------
 Charge =  0 Multiplicity = 1

 SCF Done:  E(RB3LYP) =  -249.677834085     A.U. after    1 cycles

  Exact polarizability:  52.931  -0.105  44.842  -1.290  -0.188  41.938
 Approx polarizability:  68.829   0.139  59.754  -2.257  -0.684  62.104

                      1                      2                      3
                      A                      A                      A
 Frequencies --    136.3839               214.3854               247.6350
 Red. masses --      3.1159                 1.0437                 1.0870
 Frc consts  --      0.0341                 0.0283                 0.0393
 IR Inten    --      0.3457                 0.0147                 0.8328

                      4                      5                      6
                      A                      A                      A
 Frequencies --    270.1549               322.5119               351.4223
 Red. masses --      3.0959                 1.1234                 2.2422
 Frc consts  --      0.1331                 0.0688                 0.1631
 IR Inten    --      9.8999                70.6548                 0.5590

                      7                      8                      9
                      A                      A                      A
 Frequencies --    460.4070               501.4187               807.1760
 Red. masses --      1.9863                 3.6806                 2.8993
 Frc consts  --      0.2481                 0.5452                 1.1130
 IR Inten    --     13.7636                 4.7622                14.2033

                     10                     11                     12
                      A                      A                      A
 Frequencies --    896.8543               926.9931               954.7843
 Red. masses --      2.5180                 1.2239                 1.5062
 Frc consts  --      1.1933                 0.6197                 0.8090
 IR Inten    --     23.2802                 1.6634                 1.7071

                     13                     14                     15
                      A                      A                      A
 Frequencies --    968.9388              1021.8287              1144.9125
 Red. masses --      1.6212                 2.1881                 2.0796
 Frc consts  --      0.8968                 1.3461                 1.6061
 IR Inten    --     26.0355                52.5761                17.1046

                     16                     17                     18
                      A                      A                      A
 Frequencies --   1189.8801              1224.9217              1333.5571
 Red. masses --      1.8716                 1.9672                 1.3263
 Frc consts  --      1.5613                 1.7391                 1.3896
 IR Inten    --      9.4736                16.5785                 2.0747

                     19                     20                     21
                      A                      A                      A
 Frequencies --   1346.2671              1390.9822              1399.3594
 Red. masses --      1.3034                 1.2361                 1.2774
 Frc consts  --      1.3919                 1.4092                 1.4737
 IR Inten    --     23.3947                14.6099                30.8281

                     22                     23                     24
                      A                      A                      A
 Frequencies --   1413.3422              1481.1749              1486.3522
 Red. masses --      1.2441                 1.0517                 1.0520
 Frc consts  --      1.4642                 1.3595                 1.3693
 IR Inten    --      2.3145                 1.9478                 1.1111

                     25                     26                     27
                      A                      A                      A
 Frequencies --   1488.1301              1509.5189              1512.5919
 Red. masses --      1.0453                 1.0790                 1.0534
 Frc consts  --      1.3639                 1.4487                 1.4200
 IR Inten    --      0.5244                 2.2557                13.3253

                     28                     29                     30
                      A                      A                      A
 Frequencies --   3024.2062              3027.4581              3034.9243
 Red. masses --      1.0523                 1.0570                 1.0515
 Frc consts  --      5.6704                 5.7077                 5.7062
 IR Inten    --      7.8102                12.1060                38.0425

                     31                     32                     33
                      A                      A                      A
 Frequencies --   3089.7977              3100.7290              3123.1868
 Red. masses --      1.0986                 1.0965                 1.1023
 Frc consts  --      6.1793                 6.2114                 6.3352
 IR Inten    --     14.9716                51.6616                22.0741

                     34                     35                     36
                      A                      A                      A
 Frequencies --   3132.3974              3431.0603              3808.6970
 Red. masses --      1.0986                 1.0745                 1.0683
 Frc consts  --      6.3510                 7.4526                 9.1307
 IR Inten    --     14.2224                 2.0441                36.2101

 - Thermochemistry -
 -------------------
 Temperature   298.150 Kelvin.  Pressure   1.00000 Atm.
 Atom     1 has atomic number  6 and mass  12.00000

 Molecular mass:    75.06841 amu.
 Principal axes and moments of inertia in atomic units:
                           1         2         3
     Eigenvalues --   233.46565 488.84495 655.04761
           X            0.99997   0.00461  -0.00684
           Y           -0.00457   0.99997   0.00582
           Z            0.00687  -0.00579   0.99996
 This molecule is an asymmetric top.
 Rotational symmetry number  1.
 Rotational temperatures (Kelvin)      0.37099     0.17718     0.13223
 Rotational constants (GHZ):           7.73022     3.69185     2.75513
 Zero-point vibrational energy     327623.3 (Joules/Mol)
                                   78.30385 (Kcal/Mol)
 Warning -- explicit consideration of   8 degrees of freedom as
           vibrations may cause significant error
 Vibrational temperatures:    196.23   308.45   356.29   388.69   464.02
          (Kelvin)            505.62   662.42   721.43  1161.34  1290.37
                             1333.73  1373.72  1394.09  1470.18  1647.27
                             1711.97  1762.39  1918.69  1936.98  2001.31
                             2013.36  2033.48  2131.08  2138.53  2141.08
                             2171.86  2176.28  4351.15  4355.83  4366.57
                             4445.52  4461.25  4493.56  4506.82  4936.52
                             5479.86

 Zero-point correction=                           0.124785 (Hartree/Particle)
 Thermal correction to Energy=                    0.131422
 Thermal correction to Enthalpy=                  0.132366
 Thermal correction to Gibbs Free Energy=         0.095389
 Sum of electronic and zero-point Energies=           -249.553049
 Sum of electronic and thermal Energies=              -249.546413
 Sum of electronic and thermal Enthalpies=            -249.545468
 Sum of electronic and thermal Free Energies=         -249.582445

                     E (Thermal)             CV                S
                      KCal/Mol        Cal/Mol-Kelvin    Cal/Mol-Kelvin
 Total                   82.468             23.385             77.824
 Electronic               0.000              0.000              0.000
 Translational            0.889              2.981             38.863
 Rotational               0.889              2.981             25.817
 Vibrational             80.691             17.424             13.144
 Vibration     1          0.614              1.917              2.854
 Vibration     2          0.644              1.819              2.006
 Vibration     3          0.661              1.767              1.747
 Vibration     4          0.674              1.728              1.595
 Vibration     5          0.708              1.630              1.297
 Vibration     6          0.728              1.572              1.160
 Vibration     7          0.818              1.338              0.765
 Vibration     8          0.857              1.247              0.655

 Optimization completed.
    -- Stationary point found.
 Normal termination of Gaussian 09 at Fri Aug 26 13:41:13 2022.

 -----------------------------------------------------------------
 #P Geom=AllCheck Guess=TCheck SCRF=Check CCSD(T,E4T,FrzG4)/GTBas1
 -----------------------------------------------------------------

 Structure from the checkpoint file:  "G4.Frag_917.chk"
 --------
 Frag_917
 --------
 Charge =  0 Multiplicity = 1

 SCF Done:  E(RHF) =  -248.083781588     A.U. after   12 cycles
 E2 =    -0.7419889644D+00 EUMP2 =    -0.24882577055198D+03
 CCSD(T)
 CCSD(T)= -0.24889968192D+03
 28\MP4SDQ=-248.8771272\CCSD=-248.8781218\CCSD(T)=-248.8996819\RMSD=6.5
 Normal termination of Gaussian 09 at Fri Aug 26 13:42:15 2022.

 ---------------------------------------------------------
 #P Geom=AllCheck Guess=TCheck SCRF=Check MP4=FrzG4/GTBas2
 ---------------------------------------------------------

 Structure from the checkpoint file:  "G4.Frag_917.chk"
 --------
 Frag_917
 --------
 Charge =  0 Multiplicity = 1

 SCF Done:  E(RHF) =  -248.091144634     A.U. after   12 cycles
 E2 =    -0.7536051802D+00 EUMP2 =    -0.24884474981420D+03
 Normal termination of Gaussian 09 at Fri Aug 26 13:42:34 2022.

 ---------------------------------------------------------
 #P Geom=AllCheck Guess=TCheck SCRF=Check MP4=FrzG4/GTBas3
 ---------------------------------------------------------

 Structure from the checkpoint file:  "G4.Frag_917.chk"
 --------
 Frag_917
 --------
 Charge =  0 Multiplicity = 1

 SCF Done:  E(RHF) =  -248.118028444     A.U. after   11 cycles
 E2 =    -0.9239317009D+00 EUMP2 =    -0.24904196014531D+03
 Normal termination of Gaussian 09 at Fri Aug 26 13:44:25 2022.

 -----------------------------------------------------------
 #P Geom=AllCheck Guess=TCheck SCRF=Check MP2=Full/GTLargeXP
 -----------------------------------------------------------

 Structure from the checkpoint file:  "G4.Frag_917.chk"
 --------
 Frag_917
 --------
 Charge =  0 Multiplicity = 1

 SCF Done:  E(RHF) =  -248.181484428     A.U. after   12 cycles
 E2 =    -0.1207051036D+01 EUMP2 =    -0.24938853546365D+03
 Normal termination of Gaussian 09 at Fri Aug 26 13:45:31 2022.
 SCF Done:  E(RHF) =  -248.202079460     A.U. after    9 cycles
 Normal termination of Gaussian 09 at Fri Aug 26 13:46:52 2022.

                         Standard orientation:
 ---------------------------------------------------------------------
 Center     Atomic      Atomic             Coordinates (Angstroms)
 Number     Number       Type             X           Y           Z
 ---------------------------------------------------------------------
      1          6           0       -0.502383    1.463788    0.107316
      2          6           0       -0.420028    0.000173   -0.341091
      3          6           0       -1.688238   -0.784076    0.002486
      4          7           0        0.717034   -0.738201    0.233904
      5          8           0        1.930426   -0.014667   -0.057190
      6          1           0        0.437522    1.979580   -0.099475
      7          1           0       -1.309719    1.988746   -0.414106
      8          1           0       -0.701851    1.528205    1.184462
      9          1           0       -0.268968   -0.028260   -1.427608
     10          1           0       -1.860027   -0.796259    1.085931
     11          1           0       -1.614039   -1.819102   -0.341250
     12          1           0       -2.562863   -0.320886   -0.463006
     13          1           0        0.647714   -0.668869    1.250340
     14          1           0        2.433468   -0.657727   -0.567366
 ---------------------------------------------------------------------

 SCF Done:  E(RHF) =  -248.206487789     A.U. after    7 cycles

 The electronic state is 1-A.
 Alpha  occ. eigenvalues --  -20.57852 -15.60044 -11.25628 -11.21733 -11.20972
 Alpha  occ. eigenvalues --   -1.39201  -1.13791  -0.99537  -0.93364  -0.80099
 Alpha  occ. eigenvalues --   -0.68092  -0.65465  -0.63525  -0.59409  -0.55701
 Alpha  occ. eigenvalues --   -0.53753  -0.53248  -0.49490  -0.47850  -0.46371
 Alpha  occ. eigenvalues --   -0.39753
 Alpha virt. eigenvalues --    0.03810   0.04493   0.04888   0.05348   0.07399
 Alpha virt. eigenvalues --    0.07669   0.07852   0.07921   0.08742   0.10573
 Alpha virt. eigenvalues --    0.11724   0.12279   0.12943   0.15089   0.15228

 Mulliken charges:
               1
     1  C   -0.536392
     2  C    0.083896
     3  C   -0.535969
     4  N   -0.296572
     5  O   -0.551063
     6  H    0.199445
     7  H    0.160721
     8  H    0.149597
     9  H    0.147155
    10  H    0.153418
    11  H    0.180343
    12  H    0.168535
    13  H    0.281680
    14  H    0.395206
 Sum of Mulliken charges =  -0.00000

 Dipole moment (field-independent basis, Debye):
    X=             -0.7627    Y=             -0.3023    Z=             -0.1340  Tot=              0.8313
 Quadrupole moment (field-independent basis, Debye-Ang):
   XX=            -32.0034   YY=            -34.4599   ZZ=            -30.3616
   XY=             -2.2176   XZ=             -1.4580   YZ=              0.0968

 Normal termination of Gaussian 09 at Fri Aug 26 13:51:21 2022.
