 Gaussian 09, Revision E.01,
 Gaussian 09:  ES64L-G09RevE.01 30-Nov-2015

 -----
 #P G4
 -----

 ---------
 Frag_1119
 ---------
 Symbolic Z-matrix:
 Charge =  0 Multiplicity = 1

 SCF Done:  E(RB3LYP) =  -266.083175557     A.U. after   13 cycles
 SCF Done:  E(RB3LYP) =  -266.094960081     A.U. after   12 cycles
 SCF Done:  E(RB3LYP) =  -266.096881485     A.U. after   12 cycles
 SCF Done:  E(RB3LYP) =  -266.097202277     A.U. after   11 cycles
 SCF Done:  E(RB3LYP) =  -266.097235868     A.U. after    9 cycles
 SCF Done:  E(RB3LYP) =  -266.097256580     A.U. after    9 cycles
 SCF Done:  E(RB3LYP) =  -266.097273549     A.U. after   10 cycles
 SCF Done:  E(RB3LYP) =  -266.097283565     A.U. after   10 cycles
 Optimization completed.
    -- Stationary point found.
 Normal termination of Gaussian 09 at Fri Aug 19 08:50:56 2022.

 ----------------------------------------------------------
 #P Geom=AllCheck Guess=TCheck SCRF=Check B3LYP/GTBas3 Freq
 ----------------------------------------------------------

 Structure from the checkpoint file:  "G4.Frag_1119.chk"
 ---------
 Frag_1119
 ---------
 Charge =  0 Multiplicity = 1

 SCF Done:  E(RB3LYP) =  -266.097283565     A.U. after    1 cycles

  Exact polarizability:  27.790   4.169  27.648   0.156   0.029  21.794
 Approx polarizability:  37.052   6.275  40.161  -1.700  -2.165  31.344

                      1                      2                      3
                      A                      A                      A
 Frequencies --    168.2689               214.3221               375.9836
 Red. masses --      3.1177                 1.2597                 1.6881
 Frc consts  --      0.0520                 0.0341                 0.1406
 IR Inten    --     14.6651               183.1528                 6.6319

                      4                      5                      6
                      A                      A                      A
 Frequencies --    461.7330               615.0741               885.9769
 Red. masses --      1.4822                 6.7553                 5.4817
 Frc consts  --      0.1862                 1.5057                 2.5352
 IR Inten    --     35.3763                12.0834                29.9092

                      7                      8                      9
                      A                      A                      A
 Frequencies --   1010.4524              1058.6519              1101.5494
 Red. masses --      4.8431                 1.6766                 4.7605
 Frc consts  --      2.9134                 1.1071                 3.4034
 IR Inten    --     24.6558               137.7980                85.9178

                     10                     11                     12
                      A                      A                      A
 Frequencies --   1281.0169              1389.3000              1401.2225
 Red. masses --      1.1985                 1.1546                 1.2091
 Frc consts  --      1.1588                 1.3130                 1.3987
 IR Inten    --     11.9156                49.7746                18.7277

                     13                     14                     15
                      A                      A                      A
 Frequencies --   1424.8899              1489.3670              3006.3763
 Red. masses --      1.1615                 1.1133                 1.0637
 Frc consts  --      1.3894                 1.4550                 5.6644
 IR Inten    --     36.1071                 3.3117                56.0801

                     16                     17                     18
                      A                      A                      A
 Frequencies --   3100.6361              3762.9915              3818.0589
 Red. masses --      1.1009                 1.0683                 1.0655
 Frc consts  --      6.2360                 8.9129                 9.1513
 IR Inten    --     18.8396                36.6502                27.9222

 - Thermochemistry -
 -------------------
 Temperature   298.150 Kelvin.  Pressure   1.00000 Atm.
 Atom     1 has atomic number  8 and mass  15.99491

 Molecular mass:    64.01604 amu.
 Principal axes and moments of inertia in atomic units:
                           1         2         3
     Eigenvalues --   105.95949 301.03445 364.65024
           X            0.99897   0.03685   0.02634
           Y           -0.03811   0.99807   0.04894
           Z           -0.02449  -0.04989   0.99845
 This molecule is an asymmetric top.
 Rotational symmetry number  1.
 Rotational temperatures (Kelvin)      0.81742     0.28772     0.23753
 Rotational constants (GHZ):          17.03237     5.99513     4.94924
 Zero-point vibrational energy     158899.2 (Joules/Mol)
                                   37.97782 (Kcal/Mol)
 Warning -- explicit consideration of   5 degrees of freedom as
           vibrations may cause significant error
 Vibrational temperatures:    242.10   308.36   540.96   664.33   884.95
          (Kelvin)           1274.72  1453.81  1523.16  1584.88  1843.10
                             1998.89  2016.04  2050.10  2142.86  4325.50
                             4461.12  5414.10  5493.33

 Zero-point correction=                           0.060522 (Hartree/Particle)
 Thermal correction to Energy=                    0.065430
 Thermal correction to Enthalpy=                  0.066374
 Thermal correction to Gibbs Free Energy=         0.033340
 Sum of electronic and zero-point Energies=           -266.036762
 Sum of electronic and thermal Energies=              -266.031854
 Sum of electronic and thermal Enthalpies=            -266.030910
 Sum of electronic and thermal Free Energies=         -266.063944

                     E (Thermal)             CV                S
                      KCal/Mol        Cal/Mol-Kelvin    Cal/Mol-Kelvin
 Total                   41.058             15.548             69.526
 Electronic               0.000              0.000              0.000
 Translational            0.889              2.981             38.389
 Rotational               0.889              2.981             23.968
 Vibrational             39.280              9.586              7.170
 Vibration     1          0.625              1.882              2.455
 Vibration     2          0.644              1.819              2.007
 Vibration     3          0.747              1.521              1.055
 Vibration     4          0.819              1.335              0.761
 Vibration     5          0.975              1.000              0.424

 Normal termination of Gaussian 09 at Fri Aug 19 08:51:23 2022.

 -----------------------------------------------------------------
 #P Geom=AllCheck Guess=TCheck SCRF=Check CCSD(T,E4T,FrzG4)/GTBas1
 -----------------------------------------------------------------

 Structure from the checkpoint file:  "G4.Frag_1119.chk"
 ---------
 Frag_1119
 ---------
 Charge =  0 Multiplicity = 1

 SCF Done:  E(RHF) =  -264.655140070     A.U. after   13 cycles
 E2 =    -0.6733628795D+00 EUMP2 =    -0.26532850295002D+03
 CCSD(T)
 CCSD(T)= -0.26537095344D+03
 265.3712795\MP4SDQ=-265.3534068\CCSD=-265.3534913\CCSD(T)=-265.3709534
 Normal termination of Gaussian 09 at Fri Aug 19 08:51:51 2022.

 ---------------------------------------------------------
 #P Geom=AllCheck Guess=TCheck SCRF=Check MP4=FrzG4/GTBas2
 ---------------------------------------------------------

 Structure from the checkpoint file:  "G4.Frag_1119.chk"
 ---------
 Frag_1119
 ---------
 Charge =  0 Multiplicity = 1

 SCF Done:  E(RHF) =  -264.664745736     A.U. after   13 cycles
 E2 =    -0.6872003723D+00 EUMP2 =    -0.26535194610806D+03
 Normal termination of Gaussian 09 at Fri Aug 19 08:52:04 2022.

 ---------------------------------------------------------
 #P Geom=AllCheck Guess=TCheck SCRF=Check MP4=FrzG4/GTBas3
 ---------------------------------------------------------

 Structure from the checkpoint file:  "G4.Frag_1119.chk"
 ---------
 Frag_1119
 ---------
 Charge =  0 Multiplicity = 1

 SCF Done:  E(RHF) =  -264.689483991     A.U. after   12 cycles
 E2 =    -0.8369850831D+00 EUMP2 =    -0.26552646907376D+03
 Normal termination of Gaussian 09 at Fri Aug 19 08:57:59 2022.

 -----------------------------------------------------------
 #P Geom=AllCheck Guess=TCheck SCRF=Check MP2=Full/GTLargeXP
 -----------------------------------------------------------

 Structure from the checkpoint file:  "G4.Frag_1119.chk"
 ---------
 Frag_1119
 ---------
 Charge =  0 Multiplicity = 1

 SCF Done:  E(RHF) =  -264.769344142     A.U. after   13 cycles
 E2 =    -0.1084450020D+01 EUMP2 =    -0.26585379416243D+03
 Normal termination of Gaussian 09 at Fri Aug 19 08:58:38 2022.
 SCF Done:  E(RHF) =  -264.793119437     A.U. after    9 cycles
 Normal termination of Gaussian 09 at Fri Aug 19 08:59:52 2022.

                         Standard orientation:
 ---------------------------------------------------------------------
 Center     Atomic      Atomic             Coordinates (Angstroms)
 Number     Number       Type             X           Y           Z
 ---------------------------------------------------------------------
      1          8           0        1.382857   -0.556682   -0.186848
      2          6           0        0.652681    0.545680    0.250766
      3          8           0       -0.628937    0.645704   -0.329278
      4          8           0       -1.395890   -0.460548    0.212680
      5          1           0        1.029784   -1.327647    0.270021
      6          1           0        0.553557    0.562404    1.345272
      7          1           0        1.160427    1.448866   -0.102282
      8          1           0       -1.524089   -0.985501   -0.590029
 ---------------------------------------------------------------------

 SCF Done:  E(RHF) =  -264.798155347     A.U. after    8 cycles

 The electronic state is 1-A.
 Alpha  occ. eigenvalues --  -20.63337 -20.63286 -20.57804 -11.34264  -1.49351
 Alpha  occ. eigenvalues --   -1.38679  -1.23409  -0.90773  -0.75507  -0.71477
 Alpha  occ. eigenvalues --   -0.68777  -0.66351  -0.57673  -0.54578  -0.52983
 Alpha  occ. eigenvalues --   -0.48417  -0.47399
 Alpha virt. eigenvalues --    0.04623   0.05073   0.05486   0.06178   0.09698
 Alpha virt. eigenvalues --    0.11343   0.11514   0.12752   0.13638   0.16597
 Alpha virt. eigenvalues --    0.17091   0.17191   0.17890   0.20018   0.20760

 Mulliken charges:
               1
     1  O   -0.562528
     2  C    0.100240
     3  O   -0.214381
     4  O   -0.440839
     5  H    0.372706
     6  H    0.156166
     7  H    0.186437
     8  H    0.402199
 Sum of Mulliken charges =  -0.00000

 Dipole moment (field-independent basis, Debye):
    X=              0.1099    Y=             -1.1032    Z=              0.4834  Tot=              1.2095
 Quadrupole moment (field-independent basis, Debye-Ang):
   XX=            -26.9375   YY=            -19.6749   ZZ=            -23.2121
   XY=              3.4077   XZ=              3.4461   YZ=              0.8683

 Normal termination of Gaussian 09 at Fri Aug 19 09:33:23 2022.
