 Gaussian 09, Revision E.01,
 Gaussian 09:  ES64L-G09RevE.01 30-Nov-2015

 -----
 #P G4
 -----

 ---------
 Frag_1087
 ---------
 Symbolic Z-matrix:
 Charge =  0 Multiplicity = 1

 SCF Done:  E(RB3LYP) =  -321.115369448     A.U. after   12 cycles
 SCF Done:  E(RB3LYP) =  -321.122395861     A.U. after   11 cycles
 SCF Done:  E(RB3LYP) =  -321.122837848     A.U. after   10 cycles
 SCF Done:  E(RB3LYP) =  -321.123011675     A.U. after    9 cycles
 SCF Done:  E(RB3LYP) =  -321.123092107     A.U. after   10 cycles
 SCF Done:  E(RB3LYP) =  -321.123115054     A.U. after    9 cycles
 SCF Done:  E(RB3LYP) =  -321.123123070     A.U. after    9 cycles
 SCF Done:  E(RB3LYP) =  -321.123123327     A.U. after    7 cycles
 SCF Done:  E(RB3LYP) =  -321.123123259     A.U. after    6 cycles
 Optimization completed.
    -- Stationary point found.
 Normal termination of Gaussian 09 at Mon Aug 22 09:43:23 2022.

 ----------------------------------------------------------
 #P Geom=AllCheck Guess=TCheck SCRF=Check B3LYP/GTBas3 Freq
 ----------------------------------------------------------

 Structure from the checkpoint file:  "G4.Frag_1087.chk"
 ---------
 Frag_1087
 ---------
 Charge =  0 Multiplicity = 1

 SCF Done:  E(RB3LYP) =  -321.123123259     A.U. after    1 cycles

  Exact polarizability:  54.036  -0.034  48.269   0.729  -0.166  45.758
 Approx polarizability:  69.381  -0.707  68.564   1.177   0.455  64.797

                      1                      2                      3
                      A                      A                      A
 Frequencies --    134.7328               178.3161               254.7930
 Red. masses --      2.3298                 1.1656                 1.1921
 Frc consts  --      0.0249                 0.0218                 0.0456
 IR Inten    --      3.6189                 7.1396                11.1164

                      4                      5                      6
                      A                      A                      A
 Frequencies --    277.4362               281.1504               314.9494
 Red. masses --      1.4536                 1.3185                 1.3665
 Frc consts  --      0.0659                 0.0614                 0.0799
 IR Inten    --     23.2402                16.0078                42.0981

                      7                      8                      9
                      A                      A                      A
 Frequencies --    402.6661               431.9910               499.2893
 Red. masses --      3.0340                 2.2997                 2.6286
 Frc consts  --      0.2898                 0.2529                 0.3861
 IR Inten    --     10.1360                28.3558                17.4911

                     10                     11                     12
                      A                      A                      A
 Frequencies --    544.9140               583.7298               792.7627
 Red. masses --      3.7794                 3.1425                 4.5095
 Frc consts  --      0.6612                 0.6309                 1.6698
 IR Inten    --      4.0656                 2.5962                12.5400

                     13                     14                     15
                      A                      A                      A
 Frequencies --    826.1154               881.3297               935.4076
 Red. masses --      2.0125                 1.5750                 1.4152
 Frc consts  --      0.8092                 0.7208                 0.7296
 IR Inten    --     98.7825               142.0210               213.0657

                     16                     17                     18
                      A                      A                      A
 Frequencies --    971.8251              1029.4207              1103.7460
 Red. masses --      1.9347                 1.8073                 3.6147
 Frc consts  --      1.0766                 1.1284                 2.5945
 IR Inten    --    125.4409                34.9194               136.3263

                     19                     20                     21
                      A                      A                      A
 Frequencies --   1108.3412              1181.1881              1215.0424
 Red. masses --      1.9390                 1.2954                 1.4161
 Frc consts  --      1.4034                 1.0649                 1.2317
 IR Inten    --     27.9589                 4.8468                 7.9072

                     22                     23                     24
                      A                      A                      A
 Frequencies --   1269.6702              1342.5767              1376.4121
 Red. masses --      1.7447                 2.3407                 1.8757
 Frc consts  --      1.6572                 2.4859                 2.0937
 IR Inten    --    130.8433                79.5056                49.0713

                     25                     26                     27
                      A                      A                      A
 Frequencies --   1469.3682              1487.3327              1521.6409
 Red. masses --      1.1731                 1.0556                 1.0495
 Frc consts  --      1.4923                 1.3759                 1.4317
 IR Inten    --      6.3634                 1.2670                 5.1134

                     28                     29                     30
                      A                      A                      A
 Frequencies --   1633.6377              1646.6466              1655.0354
 Red. masses --      1.1109                 1.1100                 1.1049
 Frc consts  --      1.7468                 1.7732                 1.7831
 IR Inten    --     29.9804                71.4302                14.1962

                     31                     32                     33
                      A                      A                      A
 Frequencies --   3010.6106              3071.8648              3114.4761
 Red. masses --      1.0323                 1.1041                 1.1009
 Frc consts  --      5.5126                 6.1386                 6.2918
 IR Inten    --     48.0568                34.2775                28.8862

                     34                     35                     36
                      A                      A                      A
 Frequencies --   3480.7275              3485.1004              3518.0959
 Red. masses --      1.0502                 1.0488                 1.0489
 Frc consts  --      7.4967                 7.5053                 7.6492
 IR Inten    --      0.3893                 0.2504                 2.6661

                     37                     38                     39
                      A                      A                      A
 Frequencies --   3561.4040              3573.7416              3602.3392
 Red. masses --      1.0901                 1.0923                 1.0928
 Frc consts  --      8.1459                 8.2192                 8.3555
 IR Inten    --      1.3108                 1.0131                 5.2012

 - Thermochemistry -
 -------------------
 Temperature   298.150 Kelvin.  Pressure   1.00000 Atm.
 Atom     1 has atomic number  6 and mass  12.00000

 Molecular mass:    91.07456 amu.
 Principal axes and moments of inertia in atomic units:
                           1         2         3
     Eigenvalues --   372.79215 623.74769 627.41765
           X            0.99981   0.01450   0.01293
           Y           -0.01708   0.97322   0.22926
           Z           -0.00926  -0.22943   0.97328
 This molecule is an asymmetric top.
 Rotational symmetry number  1.
 Rotational temperatures (Kelvin)      0.23234     0.13886     0.13805
 Rotational constants (GHZ):           4.84115     2.89338     2.87646
 Zero-point vibrational energy     345540.3 (Joules/Mol)
                                   82.58611 (Kcal/Mol)
 Warning -- explicit consideration of  11 degrees of freedom as
           vibrations may cause significant error
 Vibrational temperatures:    193.85   256.56   366.59   399.17   404.51
          (Kelvin)            453.14   579.35   621.54   718.37   784.01
                              839.86  1140.61  1188.59  1268.04  1345.84
                             1398.24  1481.10  1588.04  1594.65  1699.46
                             1748.17  1826.77  1931.67  1980.35  2114.09
                             2139.94  2189.30  2350.44  2369.15  2381.22
                             4331.59  4419.72  4481.03  5007.98  5014.28
                             5061.75  5124.06  5141.81  5182.96

 Zero-point correction=                           0.131609 (Hartree/Particle)
 Thermal correction to Energy=                    0.139123
 Thermal correction to Enthalpy=                  0.140067
 Thermal correction to Gibbs Free Energy=         0.101132
 Sum of electronic and zero-point Energies=           -320.991514
 Sum of electronic and thermal Energies=              -320.984001
 Sum of electronic and thermal Enthalpies=            -320.983057
 Sum of electronic and thermal Free Energies=         -321.021992

                     E (Thermal)             CV                S
                      KCal/Mol        Cal/Mol-Kelvin    Cal/Mol-Kelvin
 Total                   87.301             27.648             81.946
 Electronic               0.000              0.000              0.000
 Translational            0.889              2.981             39.439
 Rotational               0.889              2.981             26.481
 Vibrational             85.523             21.686             16.025
 Vibration     1          0.613              1.919              2.877
 Vibration     2          0.629              1.869              2.346
 Vibration     3          0.665              1.755              1.697
 Vibration     4          0.678              1.715              1.549
 Vibration     5          0.681              1.709              1.527
 Vibration     6          0.702              1.645              1.336
 Vibration     7          0.768              1.464              0.953
 Vibration     8          0.793              1.401              0.852
 Vibration     9          0.855              1.252              0.660
 Vibration    10          0.900              1.151              0.555
 Vibration    11          0.941              1.067              0.479

 Optimization completed.
    -- Stationary point found.
 Normal termination of Gaussian 09 at Mon Aug 22 09:46:14 2022.

 -----------------------------------------------------------------
 #P Geom=AllCheck Guess=TCheck SCRF=Check CCSD(T,E4T,FrzG4)/GTBas1
 -----------------------------------------------------------------

 Structure from the checkpoint file:  "G4.Frag_1087.chk"
 ---------
 Frag_1087
 ---------
 Charge =  0 Multiplicity = 1

 SCF Done:  E(RHF) =  -319.161361527     A.U. after   12 cycles
 E2 =    -0.9333079910D+00 EUMP2 =    -0.32009466951774D+03
 CCSD(T)
 CCSD(T)= -0.32017159787D+03
 .1455637\CCSD(T)=-320.1715979\RMSD=3.070e-09\PG=C01 [X(C2H9N3O1)]\\@
 Normal termination of Gaussian 09 at Mon Aug 22 09:52:15 2022.

 ---------------------------------------------------------
 #P Geom=AllCheck Guess=TCheck SCRF=Check MP4=FrzG4/GTBas2
 ---------------------------------------------------------

 Structure from the checkpoint file:  "G4.Frag_1087.chk"
 ---------
 Frag_1087
 ---------
 Charge =  0 Multiplicity = 1

 SCF Done:  E(RHF) =  -319.174314927     A.U. after   11 cycles
 E2 =    -0.9507901040D+00 EUMP2 =    -0.32012510503136D+03
 Normal termination of Gaussian 09 at Mon Aug 22 10:01:32 2022.

 ---------------------------------------------------------
 #P Geom=AllCheck Guess=TCheck SCRF=Check MP4=FrzG4/GTBas3
 ---------------------------------------------------------

 Structure from the checkpoint file:  "G4.Frag_1087.chk"
 ---------
 Frag_1087
 ---------
 Charge =  0 Multiplicity = 1

 SCF Done:  E(RHF) =  -319.208497149     A.U. after   11 cycles
 E2 =    -0.1151555561D+01 EUMP2 =    -0.32036005271032D+03
 Normal termination of Gaussian 09 at Mon Aug 22 13:22:41 2022.

 -----------------------------------------------------------
 #P Geom=AllCheck Guess=TCheck SCRF=Check MP2=Full/GTLargeXP
 -----------------------------------------------------------

 Structure from the checkpoint file:  "G4.Frag_1087.chk"
 ---------
 Frag_1087
 ---------
 Charge =  0 Multiplicity = 1

 SCF Done:  E(RHF) =  -319.296415353     A.U. after   11 cycles
 E2 =    -0.1497622269D+01 EUMP2 =    -0.32079403762183D+03
 Normal termination of Gaussian 09 at Mon Aug 22 13:29:04 2022.
 SCF Done:  E(RHF) =  -319.321035741     A.U. after    8 cycles
 Normal termination of Gaussian 09 at Mon Aug 22 13:35:00 2022.

                         Standard orientation:
 ---------------------------------------------------------------------
 Center     Atomic      Atomic             Coordinates (Angstroms)
 Number     Number       Type             X           Y           Z
 ---------------------------------------------------------------------
      1          6           0        2.001928   -0.000216   -0.094420
      2          8           0        0.776642   -0.478922   -0.621577
      3          6           0       -0.404267    0.003007    0.002911
      4          7           0       -0.411196    1.453172    0.082467
      5          7           0       -1.533689   -0.374111   -0.827913
      6          7           0       -0.461891   -0.600700    1.331490
      7          1           0        2.108348    1.079997   -0.254602
      8          1           0        2.796931   -0.517241   -0.637503
      9          1           0        2.097323   -0.217512    0.976617
     10          1           0       -1.374572    1.767305    0.117723
     11          1           0        0.040592    1.745158    0.942470
     12          1           0       -1.387309    0.029142   -1.751317
     13          1           0       -1.509304   -1.381968   -0.956375
     14          1           0       -1.379357   -0.431503    1.733150
     15          1           0       -0.344322   -1.607282    1.249205
 ---------------------------------------------------------------------

 SCF Done:  E(RHF) =  -319.326629768     A.U. after    8 cycles

 The electronic state is 1-A.
 Alpha  occ. eigenvalues --  -20.54922 -15.54592 -15.54486 -15.54239 -11.36801
 Alpha  occ. eigenvalues --  -11.26062  -1.39207  -1.23486  -1.13946  -1.13700
 Alpha  occ. eigenvalues --   -0.93136  -0.80467  -0.71619  -0.68826  -0.67685
 Alpha  occ. eigenvalues --   -0.64291  -0.60778  -0.59688  -0.57106  -0.56257
 Alpha  occ. eigenvalues --   -0.48517  -0.44630  -0.43221  -0.42158  -0.41095
 Alpha virt. eigenvalues --    0.03940   0.04359   0.05030   0.05265   0.07115
 Alpha virt. eigenvalues --    0.07520   0.07626   0.09137   0.09582   0.11553
 Alpha virt. eigenvalues --    0.12005   0.12217   0.12751   0.14079   0.14931

 Mulliken charges:
               1
     1  C   -0.387607
     2  O   -0.375409
     3  C    0.620405
     4  N   -0.781208
     5  N   -0.713115
     6  N   -0.741102
     7  H    0.177033
     8  H    0.178371
     9  H    0.183355
    10  H    0.324700
    11  H    0.321956
    12  H    0.303358
    13  H    0.288015
    14  H    0.305888
    15  H    0.295360
 Sum of Mulliken charges =  -0.00000

 Dipole moment (field-independent basis, Debye):
    X=             -0.4620    Y=             -0.4966    Z=              0.8957  Tot=              1.1235
 Quadrupole moment (field-independent basis, Debye-Ang):
   XX=            -36.5757   YY=            -35.1451   ZZ=            -37.7054
   XY=              0.5672   XZ=             -0.4103   YZ=              1.4111

 Normal termination of Gaussian 09 at Mon Aug 22 16:32:30 2022.
