 Gaussian 09, Revision E.01,
 Gaussian 09:  ES64L-G09RevE.01 30-Nov-2015

 -----
 #P G4
 -----

 ---------
 Frag_1029
 ---------
 Symbolic Z-matrix:
 Charge =  0 Multiplicity = 1

 SCF Done:  E(RB3LYP) =  -245.816437641     A.U. after   12 cycles
 SCF Done:  E(RB3LYP) =  -245.820952142     A.U. after   11 cycles
 SCF Done:  E(RB3LYP) =  -245.821386888     A.U. after   10 cycles
 SCF Done:  E(RB3LYP) =  -245.821613514     A.U. after   11 cycles
 SCF Done:  E(RB3LYP) =  -245.821652169     A.U. after   10 cycles
 SCF Done:  E(RB3LYP) =  -245.821661977     A.U. after    8 cycles
 SCF Done:  E(RB3LYP) =  -245.821664911     A.U. after    7 cycles
 SCF Done:  E(RB3LYP) =  -245.821665177     A.U. after    7 cycles
 SCF Done:  E(RB3LYP) =  -245.821665229     A.U. after    6 cycles
 Optimization completed.
    -- Stationary point found.
 Normal termination of Gaussian 09 at Sun Aug 21 00:56:35 2022.

 ----------------------------------------------------------
 #P Geom=AllCheck Guess=TCheck SCRF=Check B3LYP/GTBas3 Freq
 ----------------------------------------------------------

 Structure from the checkpoint file:  "G4.Frag_1029.chk"
 ---------
 Frag_1029
 ---------
 Charge =  0 Multiplicity = 1

 SCF Done:  E(RB3LYP) =  -245.821665229     A.U. after    1 cycles

  Exact polarizability:  57.441   1.220  43.819   0.421   0.408  42.534
 Approx polarizability:  71.272   2.415  60.230   1.140   0.629  63.450

                      1                      2                      3
                      A                      A                      A
 Frequencies --    106.3654               214.9037               235.3497
 Red. masses --      2.2618                 1.1435                 1.2313
 Frc consts  --      0.0151                 0.0311                 0.0402
 IR Inten    --      0.1290                 2.0186                27.2721

                      4                      5                      6
                      A                      A                      A
 Frequencies --    282.0647               328.3356               426.3017
 Red. masses --      1.0260                 2.1199                 2.2113
 Frc consts  --      0.0481                 0.1346                 0.2368
 IR Inten    --      8.4374                 1.8440                 2.1934

                      7                      8                      9
                      A                      A                      A
 Frequencies --    463.1620               529.8796               747.0268
 Red. masses --      2.4534                 3.5573                 2.6109
 Frc consts  --      0.3101                 0.5885                 0.8584
 IR Inten    --     13.2246                 3.9894                28.8841

                     10                     11                     12
                      A                      A                      A
 Frequencies --    847.4856               942.9715              1047.7642
 Red. masses --      2.2833                 1.3730                 1.5572
 Frc consts  --      0.9662                 0.7193                 1.0072
 IR Inten    --     30.1732                85.0576                52.5635

                     13                     14                     15
                      A                      A                      A
 Frequencies --   1092.4447              1115.9614              1142.1934
 Red. masses --      2.2999                 2.5150                 1.4334
 Frc consts  --      1.6172                 1.8454                 1.1017
 IR Inten    --      3.6862                20.9352                 7.7201

                     16                     17                     18
                      A                      A                      A
 Frequencies --   1177.9231              1207.6532              1270.3876
 Red. masses --      2.0153                 1.7516                 2.3070
 Frc consts  --      1.6475                 1.5051                 2.1937
 IR Inten    --      1.4677                 8.7168                 5.8270

                     19                     20                     21
                      A                      A                      A
 Frequencies --   1335.3426              1437.1455              1447.9520
 Red. masses --      1.2233                 1.1890                 1.1485
 Frc consts  --      1.2852                 1.4469                 1.4187
 IR Inten    --      7.6021                 1.1134                 0.6112

                     22                     23                     24
                      A                      A                      A
 Frequencies --   1481.8556              1484.0183              1491.7403
 Red. masses --      1.0732                 1.0630                 1.0518
 Frc consts  --      1.3885                 1.3794                 1.3790
 IR Inten    --      3.2800                 1.7728                 8.3442

                     25                     26                     27
                      A                      A                      A
 Frequencies --   1503.0404              1530.9209              1670.7879
 Red. masses --      1.0952                 1.1136                 1.0829
 Frc consts  --      1.4577                 1.5377                 1.7811
 IR Inten    --      5.0986                 8.8764                 9.7270

                     28                     29                     30
                      A                      A                      A
 Frequencies --   2914.0994              2953.7662              3065.7241
 Red. masses --      1.0591                 1.0584                 1.0707
 Frc consts  --      5.2989                 5.4408                 5.9291
 IR Inten    --     72.7345                77.6226                35.8335

                     31                     32                     33
                      A                      A                      A
 Frequencies --   3070.2975              3108.0489              3119.8706
 Red. masses --      1.0736                 1.1038                 1.1022
 Frc consts  --      5.9630                 6.2820                 6.3210
 IR Inten    --     38.7230                24.7466                19.2246

                     34                     35                     36
                      A                      A                      A
 Frequencies --   3352.5386              3386.4974              3530.2897
 Red. masses --      1.0573                 1.0734                 1.0825
 Frc consts  --      7.0015                 7.2529                 7.9485
 IR Inten    --     25.6605                16.7383                 0.1820

 - Thermochemistry -
 -------------------
 Temperature   298.150 Kelvin.  Pressure   1.00000 Atm.
 Atom     1 has atomic number  6 and mass  12.00000

 Molecular mass:    75.07965 amu.
 Principal axes and moments of inertia in atomic units:
                           1         2         3
     Eigenvalues --   216.29871 480.81491 615.41386
           X            0.99988  -0.01158  -0.00982
           Y            0.01174   0.99980   0.01620
           Z            0.00964  -0.01631   0.99982
 This molecule is an asymmetric top.
 Rotational symmetry number  1.
 Rotational temperatures (Kelvin)      0.40044     0.18014     0.14074
 Rotational constants (GHZ):           8.34374     3.75351     2.93257
 Zero-point vibrational energy     329344.6 (Joules/Mol)
                                   78.71524 (Kcal/Mol)
 Warning -- explicit consideration of   8 degrees of freedom as
           vibrations may cause significant error
 Vibrational temperatures:    153.04   309.20   338.62   405.83   472.40
          (Kelvin)            613.35   666.39   762.38  1074.80  1219.34
                             1356.72  1507.50  1571.78  1605.62  1643.36
                             1694.77  1737.54  1827.80  1921.26  2067.73
                             2083.28  2132.06  2135.17  2146.28  2162.54
                             2202.65  2403.89  4192.73  4249.81  4410.89
                             4417.47  4471.78  4488.79  4823.55  4872.41
                             5079.29

 Zero-point correction=                           0.125441 (Hartree/Particle)
 Thermal correction to Energy=                    0.132014
 Thermal correction to Enthalpy=                  0.132959
 Thermal correction to Gibbs Free Energy=         0.096024
 Sum of electronic and zero-point Energies=           -245.696225
 Sum of electronic and thermal Energies=              -245.689651
 Sum of electronic and thermal Enthalpies=            -245.688707
 Sum of electronic and thermal Free Energies=         -245.725642

                     E (Thermal)             CV                S
                      KCal/Mol        Cal/Mol-Kelvin    Cal/Mol-Kelvin
 Total                   82.840             22.970             77.736
 Electronic               0.000              0.000              0.000
 Translational            0.889              2.981             38.864
 Rotational               0.889              2.981             25.662
 Vibrational             81.063             17.009             13.210
 Vibration     1          0.605              1.944              3.334
 Vibration     2          0.645              1.818              2.002
 Vibration     3          0.655              1.787              1.838
 Vibration     4          0.681              1.707              1.521
 Vibration     5          0.712              1.619              1.268
 Vibration     6          0.788              1.413              0.871
 Vibration     7          0.821              1.332              0.757
 Vibration     8          0.885              1.184              0.587

 Optimization completed.
    -- Stationary point found.
 Normal termination of Gaussian 09 at Sun Aug 21 00:58:28 2022.

 -----------------------------------------------------------------
 #P Geom=AllCheck Guess=TCheck SCRF=Check CCSD(T,E4T,FrzG4)/GTBas1
 -----------------------------------------------------------------

 Structure from the checkpoint file:  "G4.Frag_1029.chk"
 ---------
 Frag_1029
 ---------
 Charge =  0 Multiplicity = 1

 SCF Done:  E(RHF) =  -244.219107370     A.U. after   12 cycles
 E2 =    -0.7559929622D+00 EUMP2 =    -0.24497510033217D+03
 CCSD(T)
 CCSD(T)= -0.24505063661D+03
 Q=-245.0266787\CCSD=-245.0279152\CCSD(T)=-245.0506366\RMSD=2.801e-09\P
 Normal termination of Gaussian 09 at Sun Aug 21 01:01:16 2022.

 ---------------------------------------------------------
 #P Geom=AllCheck Guess=TCheck SCRF=Check MP4=FrzG4/GTBas2
 ---------------------------------------------------------

 Structure from the checkpoint file:  "G4.Frag_1029.chk"
 ---------
 Frag_1029
 ---------
 Charge =  0 Multiplicity = 1

 SCF Done:  E(RHF) =  -244.227223970     A.U. after   12 cycles
 E2 =    -0.7680660459D+00 EUMP2 =    -0.24499529001593D+03
 Normal termination of Gaussian 09 at Sun Aug 21 01:05:04 2022.

 ---------------------------------------------------------
 #P Geom=AllCheck Guess=TCheck SCRF=Check MP4=FrzG4/GTBas3
 ---------------------------------------------------------

 Structure from the checkpoint file:  "G4.Frag_1029.chk"
 ---------
 Frag_1029
 ---------
 Charge =  0 Multiplicity = 1

 SCF Done:  E(RHF) =  -244.255070540     A.U. after   11 cycles
 E2 =    -0.9325455130D+00 EUMP2 =    -0.24518761605258D+03
 Normal termination of Gaussian 09 at Sun Aug 21 02:06:02 2022.

 -----------------------------------------------------------
 #P Geom=AllCheck Guess=TCheck SCRF=Check MP2=Full/GTLargeXP
 -----------------------------------------------------------

 Structure from the checkpoint file:  "G4.Frag_1029.chk"
 ---------
 Frag_1029
 ---------
 Charge =  0 Multiplicity = 1

 SCF Done:  E(RHF) =  -244.317683044     A.U. after   11 cycles
 E2 =    -0.1214632049D+01 EUMP2 =    -0.24553231509305D+03
 Normal termination of Gaussian 09 at Sun Aug 21 02:09:35 2022.
 SCF Done:  E(RHF) =  -244.336594710     A.U. after    8 cycles
 Normal termination of Gaussian 09 at Sun Aug 21 02:13:18 2022.

                         Standard orientation:
 ---------------------------------------------------------------------
 Center     Atomic      Atomic             Coordinates (Angstroms)
 Number     Number       Type             X           Y           Z
 ---------------------------------------------------------------------
      1          6           0        1.975084   -0.061636   -0.225042
      2          7           0        0.748357   -0.423420    0.469552
      3          7           0       -0.399864   -0.061900   -0.278776
      4          6           0       -0.848052    1.293310    0.018861
      5          7           0       -1.418925   -1.033574   -0.062090
      6          1           0        2.068087    1.009256   -0.475912
      7          1           0        2.037984   -0.632818   -1.154722
      8          1           0        2.823283   -0.334998    0.410720
      9          1           0        0.723041    0.014876    1.393011
     10          1           0       -1.175763    1.401558    1.072138
     11          1           0       -1.688080    1.558029   -0.630300
     12          1           0       -0.036467    2.003218   -0.167669
     13          1           0       -2.037816   -0.996380   -0.867251
     14          1           0       -1.983443   -0.780525    0.756272
 ---------------------------------------------------------------------

 SCF Done:  E(RHF) =  -244.340830360     A.U. after    8 cycles

 The electronic state is 1-A.
 Alpha  occ. eigenvalues --  -15.60180 -15.56504 -15.56440 -11.25265 -11.23896
 Alpha  occ. eigenvalues --   -1.32478  -1.16072  -1.02679  -0.91784  -0.84076
 Alpha  occ. eigenvalues --   -0.68470  -0.66807  -0.65458  -0.61231  -0.57224
 Alpha  occ. eigenvalues --   -0.55539  -0.54446  -0.51889  -0.41368  -0.38338
 Alpha  occ. eigenvalues --   -0.38121
 Alpha virt. eigenvalues --    0.03721   0.04435   0.04918   0.05368   0.07095
 Alpha virt. eigenvalues --    0.07132   0.07398   0.09027   0.09538   0.11591
 Alpha virt. eigenvalues --    0.12436   0.12895   0.13862   0.14191   0.15603

 Mulliken charges:
               1
     1  C   -0.463042
     2  N   -0.264059
     3  N   -0.028274
     4  C   -0.466169
     5  N   -0.598886
     6  H    0.138482
     7  H    0.185858
     8  H    0.171776
     9  H    0.251316
    10  H    0.134678
    11  H    0.173806
    12  H    0.182098
    13  H    0.313541
    14  H    0.268876
 Sum of Mulliken charges =  -0.00000

 Dipole moment (field-independent basis, Debye):
    X=             -0.8340    Y=              2.5338    Z=              0.6412  Tot=              2.7435
 Quadrupole moment (field-independent basis, Debye-Ang):
   XX=            -27.3820   YY=            -36.7097   ZZ=            -31.3096
   XY=              0.0681   XZ=              0.5913   YZ=              1.1413

 Normal termination of Gaussian 09 at Sun Aug 21 04:02:34 2022.
