 Gaussian 09, Revision E.01,
 Gaussian 09:  ES64L-G09RevE.01 30-Nov-2015

 -----
 #P G4
 -----

 ---------
 Frag_1106
 ---------
 Symbolic Z-matrix:
 Charge =  0 Multiplicity = 1

 SCF Done:  E(RB3LYP) =  -245.879188139     A.U. after   12 cycles
 SCF Done:  E(RB3LYP) =  -245.885743011     A.U. after   11 cycles
 SCF Done:  E(RB3LYP) =  -245.886246771     A.U. after   10 cycles
 SCF Done:  E(RB3LYP) =  -245.886661936     A.U. after   11 cycles
 SCF Done:  E(RB3LYP) =  -245.886746437     A.U. after   10 cycles
 SCF Done:  E(RB3LYP) =  -245.886814616     A.U. after   10 cycles
 SCF Done:  E(RB3LYP) =  -245.886887768     A.U. after    9 cycles
 SCF Done:  E(RB3LYP) =  -245.886989236     A.U. after   10 cycles
 SCF Done:  E(RB3LYP) =  -245.887037087     A.U. after   10 cycles
 SCF Done:  E(RB3LYP) =  -245.887058410     A.U. after    9 cycles
 SCF Done:  E(RB3LYP) =  -245.887061396     A.U. after    8 cycles
 SCF Done:  E(RB3LYP) =  -245.887062266     A.U. after    7 cycles
 SCF Done:  E(RB3LYP) =  -245.887062402     A.U. after    7 cycles
 Optimization completed.
    -- Stationary point found.
 Normal termination of Gaussian 09 at Mon Aug 22 12:27:52 2022.

 ----------------------------------------------------------
 #P Geom=AllCheck Guess=TCheck SCRF=Check B3LYP/GTBas3 Freq
 ----------------------------------------------------------

 Structure from the checkpoint file:  "G4.Frag_1106.chk"
 ---------
 Frag_1106
 ---------
 Charge =  0 Multiplicity = 1

 SCF Done:  E(RB3LYP) =  -245.887062402     A.U. after    1 cycles

  Exact polarizability:  50.158   1.730  45.130  -1.747   1.342  42.252
 Approx polarizability:  63.896   2.667  62.032  -2.626   2.052  63.122

                      1                      2                      3
                      A                      A                      A
 Frequencies --     96.9633               175.2536               202.0652
 Red. masses --      1.3650                 1.5168                 1.1205
 Frc consts  --      0.0076                 0.0274                 0.0270
 IR Inten    --     27.4468                20.1803                27.7758

                      4                      5                      6
                      A                      A                      A
 Frequencies --    258.7377               282.3878               417.3853
 Red. masses --      1.6878                 1.5493                 3.1712
 Frc consts  --      0.0666                 0.0728                 0.3255
 IR Inten    --     15.2190                23.6855                 5.8113

                      7                      8                      9
                      A                      A                      A
 Frequencies --    491.3028               523.9166               807.0060
 Red. masses --      2.0344                 3.3682                 1.8245
 Frc consts  --      0.2893                 0.5447                 0.7001
 IR Inten    --     15.5683                 4.2387                54.4015

                     10                     11                     12
                      A                      A                      A
 Frequencies --    855.4142               875.3811               935.7681
 Red. masses --      1.4732                 1.5629                 1.3191
 Frc consts  --      0.6351                 0.7056                 0.6806
 IR Inten    --     78.8416               189.4852                77.8362

                     13                     14                     15
                      A                      A                      A
 Frequencies --    989.7998              1023.9140              1081.2238
 Red. masses --      1.9361                 1.8439                 2.8115
 Frc consts  --      1.1176                 1.1390                 1.9365
 IR Inten    --     56.8662                43.5730                 4.2620

                     16                     17                     18
                      A                      A                      A
 Frequencies --   1103.5648              1182.6666              1211.9355
 Red. masses --      1.1346                 2.3659                 1.3507
 Frc consts  --      0.8141                 1.9497                 1.1689
 IR Inten    --      5.1505                13.4484                22.1910

                     19                     20                     21
                      A                      A                      A
 Frequencies --   1307.6038              1348.5679              1370.0068
 Red. masses --      1.2026                 1.4789                 1.2213
 Frc consts  --      1.2115                 1.5846                 1.3506
 IR Inten    --      7.4081                 8.2829                14.4298

                     22                     23                     24
                      A                      A                      A
 Frequencies --   1409.1189              1434.0770              1494.4149
 Red. masses --      1.3613                 1.4446                 1.0895
 Frc consts  --      1.5926                 1.7504                 1.4335
 IR Inten    --      8.2959                 4.8107                 3.5763

                     25                     26                     27
                      A                      A                      A
 Frequencies --   1631.4736              1656.6787              1664.2322
 Red. masses --      1.0848                 1.0884                 1.1034
 Frc consts  --      1.7013                 1.7601                 1.8006
 IR Inten    --     37.7307                15.0973                30.1297

                     28                     29                     30
                      A                      A                      A
 Frequencies --   2937.5631              2968.9985              3031.8626
 Red. masses --      1.0703                 1.0819                 1.0923
 Frc consts  --      5.4414                 5.6191                 5.9158
 IR Inten    --     85.9680                43.6602                53.7546

                     31                     32                     33
                      A                      A                      A
 Frequencies --   3470.9887              3474.9299              3491.9980
 Red. masses --      1.0511                 1.0497                 1.0497
 Frc consts  --      7.4611                 7.4684                 7.5419
 IR Inten    --      2.3709                 3.5241                 0.3499

                     34                     35                     36
                      A                      A                      A
 Frequencies --   3565.8627              3566.2715              3571.9536
 Red. masses --      1.0920                 1.0887                 1.0921
 Frc consts  --      8.1809                 8.1580                 8.2094
 IR Inten    --      5.4144                 0.7487                 0.6399

 - Thermochemistry -
 -------------------
 Temperature   298.150 Kelvin.  Pressure   1.00000 Atm.
 Atom     1 has atomic number  7 and mass  14.00307

 Molecular mass:    75.07965 amu.
 Principal axes and moments of inertia in atomic units:
                           1         2         3
     Eigenvalues --   220.99879 508.58644 661.03403
           X            0.99992   0.00624  -0.01068
           Y           -0.00604   0.99982   0.01807
           Z            0.01079  -0.01800   0.99978
 This molecule is an asymmetric top.
 Rotational symmetry number  1.
 Rotational temperatures (Kelvin)      0.39192     0.17030     0.13103
 Rotational constants (GHZ):           8.16629     3.54854     2.73018
 Zero-point vibrational energy     334423.8 (Joules/Mol)
                                   79.92920 (Kcal/Mol)
 Warning -- explicit consideration of   8 degrees of freedom as
           vibrations may cause significant error
 Vibrational temperatures:    139.51   252.15   290.73   372.27   406.29
          (Kelvin)            600.52   706.87   753.80  1161.10  1230.75
                             1259.48  1346.36  1424.10  1473.18  1555.64
                             1587.78  1701.59  1743.70  1881.35  1940.29
                             1971.13  2027.41  2063.31  2150.13  2347.32
                             2383.59  2394.46  4226.49  4271.72  4362.17
                             4993.97  4999.64  5024.20  5130.47  5131.06
                             5139.24

 Zero-point correction=                           0.127375 (Hartree/Particle)
 Thermal correction to Energy=                    0.134213
 Thermal correction to Enthalpy=                  0.135157
 Thermal correction to Gibbs Free Energy=         0.097515
 Sum of electronic and zero-point Energies=           -245.759687
 Sum of electronic and thermal Energies=              -245.752850
 Sum of electronic and thermal Enthalpies=            -245.751906
 Sum of electronic and thermal Free Energies=         -245.789547

                     E (Thermal)             CV                S
                      KCal/Mol        Cal/Mol-Kelvin    Cal/Mol-Kelvin
 Total                   84.220             23.687             79.224
 Electronic               0.000              0.000              0.000
 Translational            0.889              2.981             38.864
 Rotational               0.889              2.981             25.811
 Vibrational             82.442             17.725             14.550
 Vibration     1          0.603              1.951              3.514
 Vibration     2          0.627              1.873              2.378
 Vibration     3          0.639              1.837              2.114
 Vibration     4          0.668              1.748              1.670
 Vibration     5          0.681              1.706              1.519
 Vibration     6          0.780              1.432              0.901
 Vibration     7          0.847              1.269              0.680
 Vibration     8          0.879              1.197              0.601

 Normal termination of Gaussian 09 at Mon Aug 22 12:29:48 2022.

 -----------------------------------------------------------------
 #P Geom=AllCheck Guess=TCheck SCRF=Check CCSD(T,E4T,FrzG4)/GTBas1
 -----------------------------------------------------------------

 Structure from the checkpoint file:  "G4.Frag_1106.chk"
 ---------
 Frag_1106
 ---------
 Charge =  0 Multiplicity = 1

 SCF Done:  E(RHF) =  -244.287386664     A.U. after   12 cycles
 E2 =    -0.7560430969D+00 EUMP2 =    -0.24504342976056D+03
 CCSD(T)
 CCSD(T)= -0.24511585777D+03
 4SDQ=-245.0938127\CCSD=-245.0950039\CCSD(T)=-245.1158578\RMSD=2.300e-0
 Normal termination of Gaussian 09 at Mon Aug 22 12:32:34 2022.

 ---------------------------------------------------------
 #P Geom=AllCheck Guess=TCheck SCRF=Check MP4=FrzG4/GTBas2
 ---------------------------------------------------------

 Structure from the checkpoint file:  "G4.Frag_1106.chk"
 ---------
 Frag_1106
 ---------
 Charge =  0 Multiplicity = 1

 SCF Done:  E(RHF) =  -244.298850383     A.U. after   12 cycles
 E2 =    -0.7698654278D+00 EUMP2 =    -0.24506871581053D+03
 Normal termination of Gaussian 09 at Mon Aug 22 12:36:23 2022.

 ---------------------------------------------------------
 #P Geom=AllCheck Guess=TCheck SCRF=Check MP4=FrzG4/GTBas3
 ---------------------------------------------------------

 Structure from the checkpoint file:  "G4.Frag_1106.chk"
 ---------
 Frag_1106
 ---------
 Charge =  0 Multiplicity = 1

 SCF Done:  E(RHF) =  -244.329177786     A.U. after   11 cycles
 E2 =    -0.9338666279D+00 EUMP2 =    -0.24526304441378D+03
 Normal termination of Gaussian 09 at Mon Aug 22 13:38:18 2022.

 -----------------------------------------------------------
 #P Geom=AllCheck Guess=TCheck SCRF=Check MP2=Full/GTLargeXP
 -----------------------------------------------------------

 Structure from the checkpoint file:  "G4.Frag_1106.chk"
 ---------
 Frag_1106
 ---------
 Charge =  0 Multiplicity = 1

 SCF Done:  E(RHF) =  -244.395010540     A.U. after   12 cycles
 E2 =    -0.1217206404D+01 EUMP2 =    -0.24561221694403D+03
 Normal termination of Gaussian 09 at Mon Aug 22 13:41:40 2022.
 SCF Done:  E(RHF) =  -244.413947679     A.U. after    8 cycles
 Normal termination of Gaussian 09 at Mon Aug 22 13:45:23 2022.

                         Standard orientation:
 ---------------------------------------------------------------------
 Center     Atomic      Atomic             Coordinates (Angstroms)
 Number     Number       Type             X           Y           Z
 ---------------------------------------------------------------------
      1          7           0        1.955984    0.044159   -0.058206
      2          6           0        0.724121   -0.685855    0.256276
      3          6           0       -0.506262    0.025288   -0.348201
      4          7           0       -1.765429   -0.632667   -0.007635
      5          7           0       -0.585919    1.435565    0.028651
      6          1           0        2.740120   -0.340076    0.458428
      7          1           0        2.182372   -0.063781   -1.043012
      8          1           0        0.724830   -1.738640   -0.078616
      9          1           0        0.608798   -0.694320    1.349009
     10          1           0       -0.413476   -0.026957   -1.445240
     11          1           0       -1.766961   -0.879422    0.980357
     12          1           0       -1.849656   -1.506612   -0.516750
     13          1           0       -1.123576    1.519925    0.886141
     14          1           0        0.357941    1.763889    0.221566
 ---------------------------------------------------------------------

 SCF Done:  E(RHF) =  -244.418275210     A.U. after    7 cycles

 The electronic state is 1-A.
 Alpha  occ. eigenvalues --  -15.54984 -15.54231 -15.52233 -11.27857 -11.25325
 Alpha  occ. eigenvalues --   -1.22678  -1.17393  -1.11618  -0.93397  -0.80940
 Alpha  occ. eigenvalues --   -0.69203  -0.66275  -0.65154  -0.60705  -0.58570
 Alpha  occ. eigenvalues --   -0.55164  -0.54163  -0.49934  -0.41619  -0.40923
 Alpha  occ. eigenvalues --   -0.36958
 Alpha virt. eigenvalues --    0.03314   0.04525   0.04739   0.05600   0.07336
 Alpha virt. eigenvalues --    0.07660   0.08251   0.09219   0.09451   0.12060
 Alpha virt. eigenvalues --    0.12371   0.12574   0.13145   0.14232   0.14449

 Mulliken charges:
               1
     1  N   -0.690131
     2  C   -0.205414
     3  C    0.129794
     4  N   -0.693895
     5  N   -0.699036
     6  H    0.292075
     7  H    0.282580
     8  H    0.135115
     9  H    0.151302
    10  H    0.139218
    11  H    0.274162
    12  H    0.292414
    13  H    0.273060
    14  H    0.318757
 Sum of Mulliken charges =  -0.00000

 Dipole moment (field-independent basis, Debye):
    X=              2.0850    Y=             -2.9603    Z=              1.0052  Tot=              3.7578
 Quadrupole moment (field-independent basis, Debye-Ang):
   XX=            -34.4581   YY=            -34.1311   ZZ=            -29.4600
   XY=              1.2934   XZ=             -2.8561   YZ=              2.3407

 Normal termination of Gaussian 09 at Mon Aug 22 15:22:40 2022.
