 Gaussian 09, Revision E.01,
 Gaussian 09:  ES64L-G09RevE.01 30-Nov-2015

 -----
 #P G4
 -----

 --------
 Frag_436
 --------
 Symbolic Z-matrix:
 Charge =  0 Multiplicity = 1

 SCF Done:  E(RB3LYP) =  -212.594460667     A.U. after   12 cycles
 SCF Done:  E(RB3LYP) =  -212.598711123     A.U. after   11 cycles
 SCF Done:  E(RB3LYP) =  -212.598913740     A.U. after   10 cycles
 SCF Done:  E(RB3LYP) =  -212.598942520     A.U. after    9 cycles
 SCF Done:  E(RB3LYP) =  -212.598943717     A.U. after    7 cycles
 Optimization completed.
    -- Stationary point found.
 Normal termination of Gaussian 09 at Fri Aug 26 14:37:25 2022.

 ----------------------------------------------------------
 #P Geom=AllCheck Guess=TCheck SCRF=Check B3LYP/GTBas3 Freq
 ----------------------------------------------------------

 Structure from the checkpoint file:  "G4.Frag_436.chk"
 --------
 Frag_436
 --------
 Charge =  0 Multiplicity = 1

 SCF Done:  E(RB3LYP) =  -212.598943717     A.U. after    1 cycles

  Exact polarizability:  65.879   2.719  50.145  -0.000  -0.000  39.117
 Approx polarizability:  86.993   8.771  71.289  -0.000  -0.000  58.266

                      1                      2                      3
                      A                      A                      A
 Frequencies --     76.4527               110.3699               198.5998
 Red. masses --      1.0435                 1.0350                 1.1189
 Frc consts  --      0.0036                 0.0074                 0.0260
 IR Inten    --      0.0002                 0.6825                 1.1623

                      4                      5                      6
                      A                      A                      A
 Frequencies --    276.6389               290.6049               380.1674
 Red. masses --      2.1735                 2.5745                 2.2084
 Frc consts  --      0.0980                 0.1281                 0.1881
 IR Inten    --      4.4658                 2.2044                 1.3043

                      7                      8                      9
                      A                      A                      A
 Frequencies --    510.5730               559.6122               774.8312
 Red. masses --      2.4740                 3.0520                 3.4836
 Frc consts  --      0.3800                 0.5631                 1.2322
 IR Inten    --      0.9727                 4.1656                 0.8932

                     10                     11                     12
                      A                      A                      A
 Frequencies --    927.5636               952.5267               990.0896
 Red. masses --      1.2207                 1.5483                 2.3072
 Frc consts  --      0.6188                 0.8277                 1.3326
 IR Inten    --      0.0116                 5.8437                 7.3028

                     13                     14                     15
                      A                      A                      A
 Frequencies --   1094.7278              1097.1468              1103.7814
 Red. masses --      1.8345                 1.5971                 1.5068
 Frc consts  --      1.2953                 1.1327                 1.0816
 IR Inten    --      2.7927                 2.6157                 0.0654

                     16                     17                     18
                      A                      A                      A
 Frequencies --   1175.5338              1260.6092              1388.5815
 Red. masses --      1.7224                 3.0085                 1.2644
 Frc consts  --      1.4024                 2.8168                 1.4364
 IR Inten    --      6.9252                28.7604                17.9491

                     19                     20                     21
                      A                      A                      A
 Frequencies --   1398.5679              1430.1886              1471.1654
 Red. masses --      1.2954                 1.1516                 1.0616
 Frc consts  --      1.4928                 1.3879                 1.3537
 IR Inten    --      2.5722                19.4185                11.4245

                     22                     23                     24
                      A                      A                      A
 Frequencies --   1478.9177              1481.4846              1484.2771
 Red. masses --      1.0670                 1.0479                 1.0454
 Frc consts  --      1.3750                 1.3551                 1.3569
 IR Inten    --      2.9108                 3.4391                 4.1621

                     25                     26                     27
                      A                      A                      A
 Frequencies --   1488.1730              1510.9827              1742.6517
 Red. masses --      1.0690                 1.0456                 8.5178
 Frc consts  --      1.3949                 1.4065                15.2405
 IR Inten    --      0.8916                 9.7841                82.7644

                     28                     29                     30
                      A                      A                      A
 Frequencies --   2985.5601              3020.7908              3030.4771
 Red. masses --      1.0394                 1.0388                 1.0379
 Frc consts  --      5.4588                 5.5852                 5.6159
 IR Inten    --     42.4591                16.0500                 7.4069

                     31                     32                     33
                      A                      A                      A
 Frequencies --   3035.6771              3070.5372              3084.2018
 Red. masses --      1.1005                 1.0982                 1.0984
 Frc consts  --      5.9750                 6.1002                 6.1558
 IR Inten    --     38.3842                16.4044                10.0591

                     34                     35                     36
                      A                      A                      A
 Frequencies --   3100.7201              3124.8912              3147.0112
 Red. masses --      1.0957                 1.1003                 1.0989
 Frc consts  --      6.2066                 6.3303                 6.4120
 IR Inten    --     38.4545                16.6860                11.9405

 - Thermochemistry -
 -------------------
 Temperature   298.150 Kelvin.  Pressure   1.00000 Atm.
 Atom     1 has atomic number  6 and mass  12.00000

 Molecular mass:    71.07350 amu.
 Principal axes and moments of inertia in atomic units:
                           1         2         3
     Eigenvalues --   217.82545 459.32911 643.64392
           X            0.99967  -0.02581   0.00000
           Y            0.02581   0.99967  -0.00000
           Z           -0.00000   0.00000   1.00000
 This molecule is an asymmetric top.
 Rotational symmetry number  1.
 Rotational temperatures (Kelvin)      0.39763     0.18857     0.13457
 Rotational constants (GHZ):           8.28526     3.92908     2.80394
 Zero-point vibrational energy     324515.1 (Joules/Mol)
                                   77.56097 (Kcal/Mol)
 Warning -- explicit consideration of   8 degrees of freedom as
           vibrations may cause significant error
 Vibrational temperatures:    110.00   158.80   285.74   398.02   418.12
          (Kelvin)            546.98   734.60   805.16  1114.81  1334.56
                             1370.47  1424.52  1575.07  1578.55  1588.09
                             1691.33  1813.73  1997.86  2012.22  2057.72
                             2116.68  2127.83  2131.52  2135.54  2141.15
                             2173.96  2507.28  4295.55  4346.24  4360.18
                             4367.66  4417.81  4437.47  4461.24  4496.02
                             4527.84

 Zero-point correction=                           0.123601 (Hartree/Particle)
 Thermal correction to Energy=                    0.130483
 Thermal correction to Enthalpy=                  0.131427
 Thermal correction to Gibbs Free Energy=         0.093445
 Sum of electronic and zero-point Energies=           -212.475342
 Sum of electronic and thermal Energies=              -212.468461
 Sum of electronic and thermal Enthalpies=            -212.467517
 Sum of electronic and thermal Free Energies=         -212.505499

                     E (Thermal)             CV                S
                      KCal/Mol        Cal/Mol-Kelvin    Cal/Mol-Kelvin
 Total                   81.879             23.003             79.940
 Electronic               0.000              0.000              0.000
 Translational            0.889              2.981             38.700
 Rotational               0.889              2.981             25.668
 Vibrational             80.102             17.041             15.571
 Vibration     1          0.599              1.965              3.980
 Vibration     2          0.606              1.941              3.262
 Vibration     3          0.637              1.842              2.146
 Vibration     4          0.678              1.717              1.554
 Vibration     5          0.687              1.691              1.470
 Vibration     6          0.750              1.512              1.039
 Vibration     7          0.866              1.227              0.632
 Vibration     8          0.915              1.119              0.525

 Optimization completed.
    -- Stationary point found.
 Normal termination of Gaussian 09 at Fri Aug 26 14:37:49 2022.

 -----------------------------------------------------------------
 #P Geom=AllCheck Guess=TCheck SCRF=Check CCSD(T,E4T,FrzG4)/GTBas1
 -----------------------------------------------------------------

 Structure from the checkpoint file:  "G4.Frag_436.chk"
 --------
 Frag_436
 --------
 Charge =  0 Multiplicity = 1

 SCF Done:  E(RHF) =  -211.139965369     A.U. after   12 cycles
 E2 =    -0.6825261914D+00 EUMP2 =    -0.21182249156070D+03
 CCSD(T)
 CCSD(T)= -0.21190021458D+03
 4SDQ=-211.8751667\CCSD=-211.8760915\CCSD(T)=-211.9002146\RMSD=4.975e-0
 Normal termination of Gaussian 09 at Fri Aug 26 14:38:51 2022.

 ---------------------------------------------------------
 #P Geom=AllCheck Guess=TCheck SCRF=Check MP4=FrzG4/GTBas2
 ---------------------------------------------------------

 Structure from the checkpoint file:  "G4.Frag_436.chk"
 --------
 Frag_436
 --------
 Charge =  0 Multiplicity = 1

 SCF Done:  E(RHF) =  -211.144664601     A.U. after   12 cycles
 E2 =    -0.6903109987D+00 EUMP2 =    -0.21183497559950D+03
 Normal termination of Gaussian 09 at Fri Aug 26 14:39:10 2022.

 ---------------------------------------------------------
 #P Geom=AllCheck Guess=TCheck SCRF=Check MP4=FrzG4/GTBas3
 ---------------------------------------------------------

 Structure from the checkpoint file:  "G4.Frag_436.chk"
 --------
 Frag_436
 --------
 Charge =  0 Multiplicity = 1

 SCF Done:  E(RHF) =  -211.166346365     A.U. after   11 cycles
 E2 =    -0.8412223505D+00 EUMP2 =    -0.21200756871566D+03
 Normal termination of Gaussian 09 at Fri Aug 26 14:40:54 2022.

 -----------------------------------------------------------
 #P Geom=AllCheck Guess=TCheck SCRF=Check MP2=Full/GTLargeXP
 -----------------------------------------------------------

 Structure from the checkpoint file:  "G4.Frag_436.chk"
 --------
 Frag_436
 --------
 Charge =  0 Multiplicity = 1

 SCF Done:  E(RHF) =  -211.213370964     A.U. after   12 cycles
 E2 =    -0.1108521191D+01 EUMP2 =    -0.21232189215516D+03
 Normal termination of Gaussian 09 at Fri Aug 26 14:41:58 2022.
 SCF Done:  E(RHF) =  -211.229846210     A.U. after    8 cycles
 Normal termination of Gaussian 09 at Fri Aug 26 14:43:12 2022.

                         Standard orientation:
 ---------------------------------------------------------------------
 Center     Atomic      Atomic             Coordinates (Angstroms)
 Number     Number       Type             X           Y           Z
 ---------------------------------------------------------------------
      1          6           0       -1.931971   -0.226064    0.000009
      2          7           0       -0.605717   -0.824188   -0.000012
      3          6           0        0.411602   -0.059865   -0.000017
      4          6           0        0.358728    1.457349   -0.000001
      5          6           0        1.783183   -0.684758    0.000008
      6          1           0       -2.684978   -1.018135    0.000042
      7          1           0       -2.105896    0.404074   -0.884390
      8          1           0       -2.105862    0.404120    0.884382
      9          1           0        1.356828    1.900241    0.000007
     10          1           0       -0.181251    1.828320    0.879076
     11          1           0       -0.181247    1.828337   -0.879072
     12          1           0        2.355624   -0.362677   -0.879114
     13          1           0        1.701944   -1.772284    0.000020
     14          1           0        2.355610   -0.362656    0.879133
 ---------------------------------------------------------------------

 SCF Done:  E(RHF) =  -211.233276932     A.U. after    7 cycles

 The electronic state is 1-A.
 Alpha  occ. eigenvalues --  -15.53679 -11.27680 -11.23798 -11.23086 -11.21954
 Alpha  occ. eigenvalues --   -1.22119  -1.02423  -0.95619  -0.90700  -0.70721
 Alpha  occ. eigenvalues --   -0.63646  -0.61967  -0.61373  -0.56051  -0.55215
 Alpha  occ. eigenvalues --   -0.54701  -0.52606  -0.50630  -0.38775  -0.38566
 Alpha virt. eigenvalues --    0.03428   0.04020   0.04880   0.05172   0.06793
 Alpha virt. eigenvalues --    0.06900   0.07361   0.07847   0.08106   0.09364
 Alpha virt. eigenvalues --    0.10383   0.11241   0.11266   0.14364   0.14611

 Mulliken charges:
               1
     1  C   -0.425461
     2  N   -0.368895
     3  C    0.300329
     4  C   -0.589695
     5  C   -0.530636
     6  H    0.184237
     7  H    0.156554
     8  H    0.156553
     9  H    0.179308
    10  H    0.189588
    11  H    0.189587
    12  H    0.178769
    13  H    0.200993
    14  H    0.178770
 Sum of Mulliken charges =  -0.00000

 Dipole moment (field-independent basis, Debye):
    X=              0.6607    Y=              2.1615    Z=              0.0000  Tot=              2.2602
 Quadrupole moment (field-independent basis, Debye-Ang):
   XX=            -30.3439   YY=            -34.9788   ZZ=            -32.8732
   XY=             -0.7986   XZ=             -0.0000   YZ=             -0.0000

 Normal termination of Gaussian 09 at Fri Aug 26 14:47:36 2022.
