 Gaussian 09, Revision E.01,
 Gaussian 09:  ES64L-G09RevE.01 30-Nov-2015

 -----
 #P G4
 -----

 --------
 Frag_978
 --------
 Symbolic Z-matrix:
 Charge =  0 Multiplicity = 1

 SCF Done:  E(RB3LYP) =  -379.868464613     A.U. after   12 cycles
 SCF Done:  E(RB3LYP) =  -379.878270643     A.U. after   11 cycles
 SCF Done:  E(RB3LYP) =  -379.880814266     A.U. after   11 cycles
 SCF Done:  E(RB3LYP) =  -379.882557974     A.U. after   11 cycles
 SCF Done:  E(RB3LYP) =  -379.882681994     A.U. after   10 cycles
 SCF Done:  E(RB3LYP) =  -379.882916963     A.U. after   10 cycles
 SCF Done:  E(RB3LYP) =  -379.883018717     A.U. after   10 cycles
 SCF Done:  E(RB3LYP) =  -379.883054720     A.U. after    9 cycles
 SCF Done:  E(RB3LYP) =  -379.883078633     A.U. after   10 cycles
 SCF Done:  E(RB3LYP) =  -379.883095890     A.U. after    9 cycles
 SCF Done:  E(RB3LYP) =  -379.883099849     A.U. after    7 cycles
 SCF Done:  E(RB3LYP) =  -379.883100139     A.U. after    6 cycles
 SCF Done:  E(RB3LYP) =  -379.883100299     A.U. after    5 cycles
 Optimization completed.
    -- Stationary point found.
 Normal termination of Gaussian 09 at Fri Aug 26 10:11:40 2022.

 ----------------------------------------------------------
 #P Geom=AllCheck Guess=TCheck SCRF=Check B3LYP/GTBas3 Freq
 ----------------------------------------------------------

 Structure from the checkpoint file:  "G4.Frag_978.chk"
 --------
 Frag_978
 --------
 Charge =  0 Multiplicity = 1

 SCF Done:  E(RB3LYP) =  -379.883100299     A.U. after    1 cycles

  Exact polarizability:  77.784   1.021  72.688   0.289   1.219  70.945
 Approx polarizability: 105.871   2.695 104.987  -1.144   2.378 104.418

                      1                      2                      3
                      A                      A                      A
 Frequencies --     94.2208               190.6570               242.8044
 Red. masses --      3.1582                 1.1372                 1.1144
 Frc consts  --      0.0165                 0.0244                 0.0387
 IR Inten    --      0.2558                21.4275                41.0575

                      4                      5                      6
                      A                      A                      A
 Frequencies --    257.9876               271.3249               285.7338
 Red. masses --      1.6330                 1.3490                 1.6160
 Frc consts  --      0.0640                 0.0585                 0.0777
 IR Inten    --      3.2422                 6.8162                 8.2772

                      7                      8                      9
                      A                      A                      A
 Frequencies --    306.7452               328.2938               362.3523
 Red. masses --      1.5432                 1.4449                 2.6063
 Frc consts  --      0.0855                 0.0917                 0.2016
 IR Inten    --      6.2862                36.6447                 1.3345

                     10                     11                     12
                      A                      A                      A
 Frequencies --    367.3048               383.4190               417.4863
 Red. masses --      1.9539                 2.0648                 1.4624
 Frc consts  --      0.1553                 0.1788                 0.1502
 IR Inten    --      2.6417                 4.2156                11.1775

                     13                     14                     15
                      A                      A                      A
 Frequencies --    426.6673               451.5230               521.8304
 Red. masses --      2.1085                 2.1784                 2.7018
 Frc consts  --      0.2262                 0.2617                 0.4335
 IR Inten    --     16.1947                28.7897                10.2280

                     16                     17                     18
                      A                      A                      A
 Frequencies --    527.7684               543.5944               683.0615
 Red. masses --      2.9758                 2.6444                 2.9855
 Frc consts  --      0.4884                 0.4604                 0.8207
 IR Inten    --      0.6329                 6.8502                12.9249

                     19                     20                     21
                      A                      A                      A
 Frequencies --    833.3025               874.5381               881.3870
 Red. masses --      2.8855                 1.7488                 1.6855
 Frc consts  --      1.1805                 0.7880                 0.7715
 IR Inten    --     11.9383               186.0673               121.8743

                     22                     23                     24
                      A                      A                      A
 Frequencies --    920.7665               933.4969               938.3387
 Red. masses --      1.4559                 1.4697                 1.8225
 Frc consts  --      0.7272                 0.7546                 0.9454
 IR Inten    --     17.5817                72.2148               151.0314

                     25                     26                     27
                      A                      A                      A
 Frequencies --    972.1419               973.9468              1009.6983
 Red. masses --      1.5895                 1.5334                 1.3893
 Frc consts  --      0.8850                 0.8570                 0.8345
 IR Inten    --     45.2582                 8.7977                21.9001

                     28                     29                     30
                      A                      A                      A
 Frequencies --   1042.7343              1067.6897              1113.9815
 Red. masses --      1.5362                 1.5464                 1.5989
 Frc consts  --      0.9841                 1.0387                 1.1690
 IR Inten    --     11.8328                20.8363                27.5252

                     31                     32                     33
                      A                      A                      A
 Frequencies --   1205.9484              1234.0163              1283.3784
 Red. masses --      2.4224                 2.3868                 1.9077
 Frc consts  --      2.0757                 2.1414                 1.8513
 IR Inten    --     16.1714                28.1806                31.4533

                     34                     35                     36
                      A                      A                      A
 Frequencies --   1310.0931              1333.8570              1372.7734
 Red. masses --      2.1817                 1.6681                 1.5441
 Frc consts  --      2.2062                 1.7486                 1.7144
 IR Inten    --     18.9324                13.0717                10.5311

                     37                     38                     39
                      A                      A                      A
 Frequencies --   1395.8238              1407.7868              1486.2793
 Red. masses --      1.5796                 1.2649                 1.0554
 Frc consts  --      1.8133                 1.4770                 1.3736
 IR Inten    --      5.8064                13.1494                 0.5002

                     40                     41                     42
                      A                      A                      A
 Frequencies --   1491.5887              1506.8536              1518.6256
 Red. masses --      1.0507                 1.0493                 1.0603
 Frc consts  --      1.3773                 1.4037                 1.4407
 IR Inten    --      1.3436                 1.8228                10.4590

                     43                     44                     45
                      A                      A                      A
 Frequencies --   1626.9113              1637.2461              1655.8176
 Red. masses --      1.1019                 1.1042                 1.0925
 Frc consts  --      1.7184                 1.7439                 1.7649
 IR Inten    --     48.0663                19.2331                30.7765

                     46                     47                     48
                      A                      A                      A
 Frequencies --   1659.9580              3026.0996              3032.1192
 Red. masses --      1.1032                 1.0355                 1.0364
 Frc consts  --      1.7910                 5.5870                 5.6141
 IR Inten    --     28.5306                16.4893                25.7856

                     49                     50                     51
                      A                      A                      A
 Frequencies --   3085.4559              3093.5669              3111.5121
 Red. masses --      1.1006                 1.1003                 1.1017
 Frc consts  --      6.1735                 6.2039                 6.2840
 IR Inten    --      7.2671                57.5137                16.8947

                     52                     53                     54
                      A                      A                      A
 Frequencies --   3121.7226              3478.4327              3479.3722
 Red. masses --      1.1004                 1.0493                 1.0495
 Frc consts  --      6.3182                 7.4799                 7.4858
 IR Inten    --     17.1809                 1.6528                 1.0344

                     55                     56                     57
                      A                      A                      A
 Frequencies --   3492.1331              3493.4840              3555.7425
 Red. masses --      1.0492                 1.0484                 1.0919
 Frc consts  --      7.5386                 7.5385                 8.1336
 IR Inten    --      0.7482                 0.1766                 0.6345

                     58                     59                     60
                      A                      A                      A
 Frequencies --   3557.2122              3577.3550              3581.0580
 Red. masses --      1.0906                 1.0916                 1.0924
 Frc consts  --      8.1307                 8.2310                 8.2540
 IR Inten    --      0.9428                 5.6310                 0.1218

 - Thermochemistry -
 -------------------
 Temperature   298.150 Kelvin.  Pressure   1.00000 Atm.
 Atom     1 has atomic number  6 and mass  12.00000

 Molecular mass:   118.12185 amu.
 Principal axes and moments of inertia in atomic units:
                           1         2         3
     Eigenvalues --   736.059831034.973231049.87440
           X            0.99962  -0.01048   0.02560
           Y            0.00385   0.96924   0.24609
           Z           -0.02739  -0.24589   0.96891
 This molecule is an asymmetric top.
 Rotational symmetry number  1.
 Warning -- assumption of classical behavior for rotation
           may cause significant error
 Rotational temperatures (Kelvin)      0.11767     0.08369     0.08250
 Rotational constants (GHZ):           2.45189     1.74376     1.71901
 Zero-point vibrational energy     526578.3 (Joules/Mol)
                                  125.85524 (Kcal/Mol)
 Warning -- explicit consideration of  17 degrees of freedom as
           vibrations may cause significant error
 Vibrational temperatures:    135.56   274.31   349.34   371.19   390.38
          (Kelvin)            411.11   441.34   472.34   521.34   528.47
                              551.65   600.67   613.88   649.64   750.80
                              759.34   782.11   982.77  1198.93  1258.26
                             1268.12  1324.78  1343.09  1350.06  1398.69
                             1401.29  1452.73  1500.26  1536.17  1602.77
                             1735.09  1775.47  1846.49  1884.93  1919.12
                             1975.11  2008.28  2025.49  2138.42  2146.06
                             2168.02  2184.96  2340.76  2355.63  2382.35
                             2388.31  4353.88  4362.54  4439.28  4450.95
                             4476.77  4491.46  5004.68  5006.03  5024.39
                             5026.34  5115.91  5118.03  5147.01  5152.34

 Zero-point correction=                           0.200563 (Hartree/Particle)
 Thermal correction to Energy=                    0.210612
 Thermal correction to Enthalpy=                  0.211557
 Thermal correction to Gibbs Free Energy=         0.167421
 Sum of electronic and zero-point Energies=           -379.682537
 Sum of electronic and thermal Energies=              -379.672488
 Sum of electronic and thermal Enthalpies=            -379.671544
 Sum of electronic and thermal Free Energies=         -379.715679

                     E (Thermal)             CV                S
                      KCal/Mol        Cal/Mol-Kelvin    Cal/Mol-Kelvin
 Total                  132.161             39.952             92.891
 Electronic               0.000              0.000              0.000
 Translational            0.889              2.981             40.215
 Rotational               0.889              2.981             28.172
 Vibrational            130.384             33.990             24.505
 Vibration     1          0.603              1.953              3.570
 Vibration     2          0.634              1.853              2.221
 Vibration     3          0.659              1.775              1.782
 Vibration     4          0.667              1.749              1.675
 Vibration     5          0.675              1.726              1.588
 Vibration     6          0.684              1.700              1.499
 Vibration     7          0.697              1.661              1.380
 Vibration     8          0.712              1.619              1.268
 Vibration     9          0.736              1.550              1.112
 Vibration    10          0.740              1.539              1.091
 Vibration    11          0.753              1.506              1.026
 Vibration    12          0.781              1.432              0.901
 Vibration    13          0.788              1.412              0.870
 Vibration    14          0.810              1.358              0.791
 Vibration    15          0.877              1.202              0.606
 Vibration    16          0.883              1.189              0.592
 Vibration    17          0.899              1.154              0.558

 Optimization completed.
    -- Stationary point found.
 Normal termination of Gaussian 09 at Fri Aug 26 10:13:08 2022.

 -----------------------------------------------------------------
 #P Geom=AllCheck Guess=TCheck SCRF=Check CCSD(T,E4T,FrzG4)/GTBas1
 -----------------------------------------------------------------

 Structure from the checkpoint file:  "G4.Frag_978.chk"
 --------
 Frag_978
 --------
 Charge =  0 Multiplicity = 1

 SCF Done:  E(RHF) =  -377.387821211     A.U. after   12 cycles
 E2 =    -0.1195808997D+01 EUMP2 =    -0.37858363020847D+03
 CCSD(T)
 CCSD(T)= -0.37869699474D+03
 =-378.6590702\CCSD=-378.6603882\CCSD(T)=-378.6969947\RMSD=2.448e-09\PG
 Normal termination of Gaussian 09 at Fri Aug 26 10:23:08 2022.

 ---------------------------------------------------------
 #P Geom=AllCheck Guess=TCheck SCRF=Check MP4=FrzG4/GTBas2
 ---------------------------------------------------------

 Structure from the checkpoint file:  "G4.Frag_978.chk"
 --------
 Frag_978
 --------
 Charge =  0 Multiplicity = 1

 SCF Done:  E(RHF) =  -377.401966920     A.U. after   12 cycles
 E2 =    -0.1217257245D+01 EUMP2 =    -0.37861922416466D+03
 Normal termination of Gaussian 09 at Fri Aug 26 10:26:41 2022.

 ---------------------------------------------------------
 #P Geom=AllCheck Guess=TCheck SCRF=Check MP4=FrzG4/GTBas3
 ---------------------------------------------------------

 Structure from the checkpoint file:  "G4.Frag_978.chk"
 --------
 Frag_978
 --------
 Charge =  0 Multiplicity = 1

 SCF Done:  E(RHF) =  -377.447368738     A.U. after   10 cycles
 E2 =    -0.1474867004D+01 EUMP2 =    -0.37892223574198D+03
 Normal termination of Gaussian 09 at Fri Aug 26 10:56:36 2022.

 -----------------------------------------------------------
 #P Geom=AllCheck Guess=TCheck SCRF=Check MP2=Full/GTLargeXP
 -----------------------------------------------------------

 Structure from the checkpoint file:  "G4.Frag_978.chk"
 --------
 Frag_978
 --------
 Charge =  0 Multiplicity = 1

 SCF Done:  E(RHF) =  -377.541834992     A.U. after   12 cycles
 E2 =    -0.1922793615D+01 EUMP2 =    -0.37946462860633D+03
 Normal termination of Gaussian 09 at Fri Aug 26 11:04:29 2022.
 SCF Done:  E(RHF) =  -377.570529566     A.U. after    9 cycles
 Normal termination of Gaussian 09 at Fri Aug 26 11:07:43 2022.

                         Standard orientation:
 ---------------------------------------------------------------------
 Center     Atomic      Atomic             Coordinates (Angstroms)
 Number     Number       Type             X           Y           Z
 ---------------------------------------------------------------------
      1          6           0        1.373351    1.359934    0.364629
      2          6           0        0.780834   -0.001351   -0.025177
      3          6           0        1.307910   -1.084363    0.940159
      4          7           0        1.196880   -0.283544   -1.414063
      5          6           0       -0.802282    0.019135   -0.003209
      6          7           0       -1.401353   -0.088950    1.337044
      7          7           0       -1.291213    1.231321   -0.662789
      8          7           0       -1.264282   -1.168987   -0.718152
      9          1           0        0.973357    1.721969    1.317960
     10          1           0        2.458969    1.276838    0.487682
     11          1           0        1.181918    2.104771   -0.411392
     12          1           0        1.155261   -0.828608    1.993884
     13          1           0        2.385019   -1.211218    0.788962
     14          1           0        0.818812   -2.042307    0.739266
     15          1           0        2.195455   -0.115689   -1.504055
     16          1           0        1.063016   -1.274270   -1.597842
     17          1           0       -1.101863   -0.947181    1.790162
     18          1           0       -1.096099    0.681930    1.923080
     19          1           0       -0.948347    2.064820   -0.193767
     20          1           0       -2.302313    1.245210   -0.549820
     21          1           0       -1.166888   -0.981270   -1.711520
     22          1           0       -2.255391   -1.284004   -0.525288
 ---------------------------------------------------------------------

 SCF Done:  E(RHF) =  -377.576923377     A.U. after    8 cycles

 The electronic state is 1-A.
 Alpha  occ. eigenvalues --  -15.54039 -15.53126 -15.53081 -15.53056 -11.31251
 Alpha  occ. eigenvalues --  -11.26252 -11.21764 -11.21098  -1.26284  -1.17626
 Alpha  occ. eigenvalues --   -1.12346  -1.12128  -1.01270  -0.93571  -0.85560
 Alpha  occ. eigenvalues --   -0.74266  -0.69297  -0.67399  -0.65420  -0.63933
 Alpha  occ. eigenvalues --   -0.61085  -0.58965  -0.57977  -0.55759  -0.54801
 Alpha  occ. eigenvalues --   -0.53674  -0.51482  -0.49032  -0.47583  -0.42218
 Alpha  occ. eigenvalues --   -0.40900  -0.39633  -0.37531
 Alpha virt. eigenvalues --    0.02904   0.04149   0.04498   0.05021   0.06410
 Alpha virt. eigenvalues --    0.06541   0.06724   0.07117   0.07406   0.09384
 Alpha virt. eigenvalues --    0.09801   0.10042   0.10416   0.11475   0.11539

 Mulliken charges:
               1
     1  C   -0.661537
     2  C    0.534806
     3  C   -0.650796
     4  N   -0.836109
     5  C    0.467445
     6  N   -0.742731
     7  N   -0.767287
     8  N   -0.824596
     9  H    0.165716
    10  H    0.176104
    11  H    0.199078
    12  H    0.163827
    13  H    0.170881
    14  H    0.208110
    15  H    0.288130
    16  H    0.306383
    17  H    0.303574
    18  H    0.288282
    19  H    0.277924
    20  H    0.297050
    21  H    0.330431
    22  H    0.305315
 Sum of Mulliken charges =  -0.00000

 Dipole moment (field-independent basis, Debye):
    X=              0.9747    Y=              0.2859    Z=              1.7296  Tot=              2.0058
 Quadrupole moment (field-independent basis, Debye-Ang):
   XX=            -49.1695   YY=            -51.4526   ZZ=            -53.8056
   XY=             -0.8815   XZ=              0.7418   YZ=              3.6871

 Normal termination of Gaussian 09 at Fri Aug 26 11:30:15 2022.
