 Gaussian 09, Revision E.01,
 Gaussian 09:  ES64L-G09RevE.01 30-Nov-2015

 -----
 #P G4
 -----

 --------
 Frag_739
 --------
 Symbolic Z-matrix:
 Charge =  0 Multiplicity = 1

 SCF Done:  E(RB3LYP) =  -301.232471730     A.U. after   12 cycles
 SCF Done:  E(RB3LYP) =  -301.240724934     A.U. after   11 cycles
 SCF Done:  E(RB3LYP) =  -301.242129398     A.U. after   11 cycles
 SCF Done:  E(RB3LYP) =  -301.242559430     A.U. after   10 cycles
 SCF Done:  E(RB3LYP) =  -301.242778682     A.U. after   10 cycles
 SCF Done:  E(RB3LYP) =  -301.243146277     A.U. after   11 cycles
 SCF Done:  E(RB3LYP) =  -301.243301439     A.U. after   11 cycles
 SCF Done:  E(RB3LYP) =  -301.243543075     A.U. after   11 cycles
 SCF Done:  E(RB3LYP) =  -301.243470004     A.U. after    9 cycles
 SCF Done:  E(RB3LYP) =  -301.243791096     A.U. after   11 cycles
 SCF Done:  E(RB3LYP) =  -301.243817931     A.U. after    8 cycles
 SCF Done:  E(RB3LYP) =  -301.243818024     A.U. after    7 cycles
 SCF Done:  E(RB3LYP) =  -301.243818016     A.U. after    6 cycles
 Optimization completed.
    -- Stationary point found.
 Normal termination of Gaussian 09 at Fri Aug 26 03:20:00 2022.

 ----------------------------------------------------------
 #P Geom=AllCheck Guess=TCheck SCRF=Check B3LYP/GTBas3 Freq
 ----------------------------------------------------------

 Structure from the checkpoint file:  "G4.Frag_739.chk"
 --------
 Frag_739
 --------
 Charge =  0 Multiplicity = 1

 SCF Done:  E(RB3LYP) =  -301.243818016     A.U. after    1 cycles

  Exact polarizability:  55.176  -1.991  54.345   0.134  -0.375  50.610
 Approx polarizability:  73.547  -2.353  77.264   1.725  -0.696  75.056

                      1                      2                      3
                      A                      A                      A
 Frequencies --     56.1375               110.1127               244.3788
 Red. masses --      1.6662                 1.4387                 1.5876
 Frc consts  --      0.0031                 0.0103                 0.0559
 IR Inten    --     21.4009                38.1062                 4.6309

                      4                      5                      6
                      A                      A                      A
 Frequencies --    277.2176               295.1061               329.0207
 Red. masses --      1.1171                 2.6661                 1.7153
 Frc consts  --      0.0506                 0.1368                 0.1094
 IR Inten    --     43.9321                 7.0141                 4.9910

                      7                      8                      9
                      A                      A                      A
 Frequencies --    340.0790               421.3368               488.8659
 Red. masses --      1.3688                 2.8820                 2.2392
 Frc consts  --      0.0933                 0.3014                 0.3153
 IR Inten    --     11.1362                19.7472                12.9858

                     10                     11                     12
                      A                      A                      A
 Frequencies --    518.6571               660.3494               759.0024
 Red. masses --      2.5126                 1.9101                 2.6913
 Frc consts  --      0.3982                 0.4908                 0.9135
 IR Inten    --     23.2032                33.5559                16.0634

                     13                     14                     15
                      A                      A                      A
 Frequencies --    811.2898               832.9253               849.5124
 Red. masses --      1.8116                 1.3734                 1.4500
 Frc consts  --      0.7025                 0.5614                 0.6166
 IR Inten    --    275.4833               114.5373               245.2210

                     16                     17                     18
                      A                      A                      A
 Frequencies --    906.4538               987.7576              1015.6611
 Red. masses --      1.4915                 2.3020                 1.8503
 Frc consts  --      0.7221                 1.3233                 1.1246
 IR Inten    --     74.5072                18.5553                11.5584

                     19                     20                     21
                      A                      A                      A
 Frequencies --   1103.5734              1106.2511              1194.0086
 Red. masses --      1.9709                 1.9725                 1.3144
 Frc consts  --      1.4142                 1.4222                 1.1041
 IR Inten    --     22.6578                15.6530                 5.9024

                     22                     23                     24
                      A                      A                      A
 Frequencies --   1224.0641              1256.3594              1287.9737
 Red. masses --      1.4309                 1.7123                 1.6073
 Frc consts  --      1.2632                 1.5924                 1.5709
 IR Inten    --     12.5120                 4.4860                 5.8385

                     25                     26                     27
                      A                      A                      A
 Frequencies --   1377.7670              1394.7841              1431.0239
 Red. masses --      1.3170                 1.4866                 1.2984
 Frc consts  --      1.4729                 1.7039                 1.5666
 IR Inten    --     21.6575                 3.1310                 4.0933

                     28                     29                     30
                      A                      A                      A
 Frequencies --   1436.3908              1623.5320              1636.3829
 Red. masses --      1.2849                 1.1148                 1.1014
 Frc consts  --      1.5620                 1.7312                 1.7376
 IR Inten    --     15.9629                35.2332                 5.4499

                     31                     32                     33
                      A                      A                      A
 Frequencies --   1642.8447              1649.9060              2915.0271
 Red. masses --      1.1062                 1.0945                 1.0823
 Frc consts  --      1.7590                 1.7554                 5.4183
 IR Inten    --     31.2849                49.8626                76.1409

                     34                     35                     36
                      A                      A                      A
 Frequencies --   2980.3503              3453.9801              3487.7236
 Red. masses --      1.0843                 1.0478                 1.0471
 Frc consts  --      5.6748                 7.3650                 7.5048
 IR Inten    --     67.6924                 3.1381                 1.2714

                     37                     38                     39
                      A                      A                      A
 Frequencies --   3503.3568              3517.0928              3544.5539
 Red. masses --      1.0477                 1.0483                 1.0921
 Frc consts  --      7.5763                 7.6405                 8.0843
 IR Inten    --      0.2874                 0.3927                 0.5898

                     40                     41                     42
                      A                      A                      A
 Frequencies --   3587.4807              3589.0527              3610.3894
 Red. masses --      1.0939                 1.0934                 1.0944
 Frc consts  --      8.2947                 8.2983                 8.4052
 IR Inten    --      0.3215                 2.7301                 2.4576

 - Thermochemistry -
 -------------------
 Temperature   298.150 Kelvin.  Pressure   1.00000 Atm.
 Atom     1 has atomic number  7 and mass  14.00307

 Molecular mass:    90.09055 amu.
 Principal axes and moments of inertia in atomic units:
                           1         2         3
     Eigenvalues --   390.84780 618.61279 797.16294
           X            0.99944  -0.02980  -0.01507
           Y            0.02993   0.99952   0.00850
           Z            0.01481  -0.00895   0.99985
 This molecule is an asymmetric top.
 Rotational symmetry number  1.
 Rotational temperatures (Kelvin)      0.22160     0.14001     0.10865
 Rotational constants (GHZ):           4.61750     2.91740     2.26396
 Zero-point vibrational energy     379561.5 (Joules/Mol)
                                   90.71738 (Kcal/Mol)
 Warning -- explicit consideration of  10 degrees of freedom as
           vibrations may cause significant error
 Vibrational temperatures:     80.77   158.43   351.61   398.85   424.59
          (Kelvin)            473.39   489.30   606.21   703.37   746.23
                              950.09  1092.03  1167.26  1198.39  1222.26
                             1304.18  1421.16  1461.31  1587.79  1591.65
                             1717.91  1761.15  1807.62  1853.10  1982.30
                             2006.78  2058.92  2066.64  2335.90  2354.39
                             2363.68  2373.84  4194.07  4288.05  4969.50
                             5018.05  5040.54  5060.31  5099.82  5161.58
                             5163.84  5194.54

 Zero-point correction=                           0.144567 (Hartree/Particle)
 Thermal correction to Energy=                    0.152500
 Thermal correction to Enthalpy=                  0.153444
 Thermal correction to Gibbs Free Energy=         0.112924
 Sum of electronic and zero-point Energies=           -301.099251
 Sum of electronic and thermal Energies=              -301.091318
 Sum of electronic and thermal Enthalpies=            -301.090374
 Sum of electronic and thermal Free Energies=         -301.130894

                     E (Thermal)             CV                S
                      KCal/Mol        Cal/Mol-Kelvin    Cal/Mol-Kelvin
 Total                   95.695             28.711             85.282
 Electronic               0.000              0.000              0.000
 Translational            0.889              2.981             39.407
 Rotational               0.889              2.981             26.758
 Vibrational             93.918             22.750             19.118
 Vibration     1          0.596              1.975              4.589
 Vibration     2          0.606              1.941              3.267
 Vibration     3          0.660              1.772              1.771
 Vibration     4          0.678              1.716              1.551
 Vibration     5          0.689              1.683              1.445
 Vibration     6          0.712              1.618              1.265
 Vibration     7          0.720              1.595              1.212
 Vibration     8          0.784              1.424              0.887
 Vibration     9          0.845              1.275              0.687
 Vibration    10          0.874              1.209              0.613

 Optimization completed.
    -- Stationary point found.
 Normal termination of Gaussian 09 at Fri Aug 26 03:20:39 2022.

 -----------------------------------------------------------------
 #P Geom=AllCheck Guess=TCheck SCRF=Check CCSD(T,E4T,FrzG4)/GTBas1
 -----------------------------------------------------------------

 Structure from the checkpoint file:  "G4.Frag_739.chk"
 --------
 Frag_739
 --------
 Charge =  0 Multiplicity = 1

 SCF Done:  E(RHF) =  -299.314057460     A.U. after   12 cycles
 E2 =    -0.9221875194D+00 EUMP2 =    -0.30023624497944D+03
 CCSD(T)
 CCSD(T)= -0.30031891390D+03
 TQ=-300.3175703\MP4SDQ=-300.291786\CCSD=-300.2929468\CCSD(T)=-300.3189
 Normal termination of Gaussian 09 at Fri Aug 26 03:23:11 2022.

 ---------------------------------------------------------
 #P Geom=AllCheck Guess=TCheck SCRF=Check MP4=FrzG4/GTBas2
 ---------------------------------------------------------

 Structure from the checkpoint file:  "G4.Frag_739.chk"
 --------
 Frag_739
 --------
 Charge =  0 Multiplicity = 1

 SCF Done:  E(RHF) =  -299.328360148     A.U. after   12 cycles
 E2 =    -0.9398682008D+00 EUMP2 =    -0.30026822834837D+03
 Normal termination of Gaussian 09 at Fri Aug 26 03:23:58 2022.

 ---------------------------------------------------------
 #P Geom=AllCheck Guess=TCheck SCRF=Check MP4=FrzG4/GTBas3
 ---------------------------------------------------------

 Structure from the checkpoint file:  "G4.Frag_739.chk"
 --------
 Frag_739
 --------
 Charge =  0 Multiplicity = 1

 SCF Done:  E(RHF) =  -299.364745255     A.U. after   10 cycles
 E2 =    -0.1134022599D+01 EUMP2 =    -0.30049876785402D+03
 Normal termination of Gaussian 09 at Fri Aug 26 03:28:44 2022.

 -----------------------------------------------------------
 #P Geom=AllCheck Guess=TCheck SCRF=Check MP2=Full/GTLargeXP
 -----------------------------------------------------------

 Structure from the checkpoint file:  "G4.Frag_739.chk"
 --------
 Frag_739
 --------
 Charge =  0 Multiplicity = 1

 SCF Done:  E(RHF) =  -299.446220957     A.U. after   12 cycles
 E2 =    -0.1476015060D+01 EUMP2 =    -0.30092223601723D+03
 Normal termination of Gaussian 09 at Fri Aug 26 03:30:53 2022.
 SCF Done:  E(RHF) =  -299.469166495     A.U. after    8 cycles
 Normal termination of Gaussian 09 at Fri Aug 26 03:33:15 2022.

                         Standard orientation:
 ---------------------------------------------------------------------
 Center     Atomic      Atomic             Coordinates (Angstroms)
 Number     Number       Type             X           Y           Z
 ---------------------------------------------------------------------
      1          7           0        1.695807   -0.767236   -0.252884
      2          6           0        0.714413    0.293942   -0.399269
      3          7           0        1.013980    1.274872    0.639359
      4          6           0       -0.722959   -0.315415   -0.396073
      5          7           0       -1.793128    0.687205   -0.323830
      6          7           0       -0.864014   -1.319863    0.644364
      7          1           0        1.435641   -1.587236   -0.787868
      8          1           0        2.609320   -0.449794   -0.556814
      9          1           0        0.789352    0.845981   -1.354809
     10          1           0        0.979941    0.841444    1.557255
     11          1           0        0.361247    2.051554    0.616033
     12          1           0       -0.854758   -0.811059   -1.370614
     13          1           0       -1.766255    1.299471   -1.136713
     14          1           0       -1.653699    1.275793    0.495172
     15          1           0       -0.370265   -1.045848    1.487231
     16          1           0       -1.847762   -1.416312    0.874120
 ---------------------------------------------------------------------

 SCF Done:  E(RHF) =  -299.474393087     A.U. after    7 cycles

 The electronic state is 1-A.
 Alpha  occ. eigenvalues --  -15.54702 -15.54373 -15.53804 -15.53441 -11.28594
 Alpha  occ. eigenvalues --  -11.28273  -1.24900  -1.19503  -1.13266  -1.11756
 Alpha  occ. eigenvalues --   -0.91536  -0.79770  -0.70480  -0.68876  -0.67230
 Alpha  occ. eigenvalues --   -0.63149  -0.60774  -0.58839  -0.55934  -0.54507
 Alpha  occ. eigenvalues --   -0.52176  -0.42837  -0.40420  -0.40028  -0.37644
 Alpha virt. eigenvalues --    0.03644   0.04337   0.04981   0.05178   0.06973
 Alpha virt. eigenvalues --    0.07371   0.08128   0.08949   0.09114   0.11489
 Alpha virt. eigenvalues --    0.11928   0.12060   0.12612   0.12731   0.13331

 Mulliken charges:
               1
     1  N   -0.714030
     2  C    0.095933
     3  N   -0.706779
     4  C    0.084332
     5  N   -0.713678
     6  N   -0.735248
     7  H    0.310391
     8  H    0.303765
     9  H    0.154038
    10  H    0.302889
    11  H    0.277260
    12  H    0.151534
    13  H    0.291424
    14  H    0.281682
    15  H    0.300490
    16  H    0.315997
 Sum of Mulliken charges =  -0.00000

 Dipole moment (field-independent basis, Debye):
    X=             -0.3782    Y=              1.4699    Z=             -0.6013  Tot=              1.6325
 Quadrupole moment (field-independent basis, Debye-Ang):
   XX=            -43.4870   YY=            -40.0981   ZZ=            -33.6796
   XY=             -3.0352   XZ=             -3.5951   YZ=              1.1105

 Normal termination of Gaussian 09 at Fri Aug 26 03:40:50 2022.
