 Gaussian 09, Revision E.01,
 Gaussian 09:  ES64L-G09RevE.01 30-Nov-2015

 -----
 #P G4
 -----

 --------
 Frag_746
 --------
 Symbolic Z-matrix:
 Charge =  0 Multiplicity = 1

 SCF Done:  E(RB3LYP) =  -384.131481725     A.U. after   12 cycles
 SCF Done:  E(RB3LYP) =  -384.137659591     A.U. after   11 cycles
 SCF Done:  E(RB3LYP) =  -384.138321929     A.U. after   10 cycles
 SCF Done:  E(RB3LYP) =  -384.138684898     A.U. after   10 cycles
 SCF Done:  E(RB3LYP) =  -384.139102674     A.U. after   10 cycles
 SCF Done:  E(RB3LYP) =  -384.139341003     A.U. after   10 cycles
 SCF Done:  E(RB3LYP) =  -384.139495176     A.U. after   10 cycles
 SCF Done:  E(RB3LYP) =  -384.139514313     A.U. after    9 cycles
 SCF Done:  E(RB3LYP) =  -384.139526071     A.U. after    9 cycles
 SCF Done:  E(RB3LYP) =  -384.139533087     A.U. after    8 cycles
 SCF Done:  E(RB3LYP) =  -384.139537558     A.U. after    8 cycles
 SCF Done:  E(RB3LYP) =  -384.139539463     A.U. after    7 cycles
 SCF Done:  E(RB3LYP) =  -384.139539671     A.U. after    6 cycles
 Optimization completed.
    -- Stationary point found.
 Normal termination of Gaussian 09 at Fri Aug 26 13:07:04 2022.

 ----------------------------------------------------------
 #P Geom=AllCheck Guess=TCheck SCRF=Check B3LYP/GTBas3 Freq
 ----------------------------------------------------------

 Structure from the checkpoint file:  "G4.Frag_746.chk"
 --------
 Frag_746
 --------
 Charge =  0 Multiplicity = 1

 SCF Done:  E(RB3LYP) =  -384.139539671     A.U. after    1 cycles

  Exact polarizability:  62.270   0.806  54.119  -0.333  -0.108  52.802
 Approx polarizability:  79.310  -2.665  75.639  -1.312   1.259  79.004

                      1                      2                      3
                      A                      A                      A
 Frequencies --     88.3442               172.1861               190.2340
 Red. masses --      3.7214                 1.0688                 1.0550
 Frc consts  --      0.0171                 0.0187                 0.0225
 IR Inten    --      4.1005                93.6920                54.1506

                      4                      5                      6
                      A                      A                      A
 Frequencies --    228.2060               238.9210               244.4108
 Red. masses --      1.2913                 1.4586                 1.7446
 Frc consts  --      0.0396                 0.0491                 0.0614
 IR Inten    --      4.7319                24.1226                12.0104

                      7                      8                      9
                      A                      A                      A
 Frequencies --    250.2516               294.8291               342.3296
 Red. masses --      1.1493                 2.5068                 3.1710
 Frc consts  --      0.0424                 0.1284                 0.2189
 IR Inten    --     73.2574                21.2266                 2.2729

                     10                     11                     12
                      A                      A                      A
 Frequencies --    384.4375               429.0908               481.2641
 Red. masses --      3.4316                 3.0381                 2.9473
 Frc consts  --      0.2988                 0.3296                 0.4022
 IR Inten    --      5.0324                10.9890                 3.5456

                     13                     14                     15
                      A                      A                      A
 Frequencies --    556.1248               603.5728               754.6365
 Red. masses --      4.6374                 3.0844                 2.9264
 Frc consts  --      0.8450                 0.6620                 0.9819
 IR Inten    --      8.6926                15.7040                 6.2665

                     16                     17                     18
                      A                      A                      A
 Frequencies --    888.4211               929.6481               966.8344
 Red. masses --      2.4889                 2.0073                 1.9258
 Frc consts  --      1.1574                 1.0221                 1.0606
 IR Inten    --     25.4558                 1.3392                41.6958

                     19                     20                     21
                      A                      A                      A
 Frequencies --   1022.1067              1070.8201              1100.0772
 Red. masses --      1.4151                 1.9942                 1.9085
 Frc consts  --      0.8710                 1.3473                 1.3608
 IR Inten    --     29.5911                56.6965                43.4650

                     22                     23                     24
                      A                      A                      A
 Frequencies --   1127.2359              1162.9266              1168.2343
 Red. masses --      2.5363                 1.9579                 2.6568
 Frc consts  --      1.8988                 1.5601                 2.1363
 IR Inten    --    126.4848               126.0004                 4.3642

                     25                     26                     27
                      A                      A                      A
 Frequencies --   1264.5364              1336.8810              1366.0361
 Red. masses --      1.2129                 1.5284                 1.2192
 Frc consts  --      1.1427                 1.6094                 1.3404
 IR Inten    --      4.2048               113.7131                 8.3027

                     28                     29                     30
                      A                      A                      A
 Frequencies --   1378.8672              1398.4407              1405.7016
 Red. masses --      1.5509                 1.2864                 1.4013
 Frc consts  --      1.7373                 1.4822                 1.6314
 IR Inten    --     31.1831                36.5149                 6.2004

                     31                     32                     33
                      A                      A                      A
 Frequencies --   1442.6884              1481.4323              1486.1062
 Red. masses --      1.5877                 1.0595                 1.0478
 Frc consts  --      1.9469                 1.3700                 1.3634
 IR Inten    --     12.1130                 1.5219                 2.9359

                     34                     35                     36
                      A                      A                      A
 Frequencies --   1496.9971              1510.8237              2944.4320
 Red. masses --      1.0575                 1.1696                 1.0823
 Frc consts  --      1.3963                 1.5730                 5.5286
 IR Inten    --      8.7406                 5.7154                65.3252

                     37                     38                     39
                      A                      A                      A
 Frequencies --   3031.3276              3035.8447              3095.6978
 Red. masses --      1.0394                 1.0425                 1.1009
 Frc consts  --      5.6273                 5.6609                 6.2163
 IR Inten    --     21.2351                25.9655                27.9543

                     40                     41                     42
                      A                      A                      A
 Frequencies --   3113.1337              3145.9559              3155.1383
 Red. masses --      1.0923                 1.1021                 1.0977
 Frc consts  --      6.2371                 6.4268                 6.4381
 IR Inten    --     18.7112                10.7771                 6.4170

                     43                     44                     45
                      A                      A                      A
 Frequencies --   3808.6433              3827.0768              3829.9752
 Red. masses --      1.0654                 1.0658                 1.0664
 Frc consts  --      9.1056                 9.1976                 9.2162
 IR Inten    --     23.3035                20.8791                17.2288

 - Thermochemistry -
 -------------------
 Temperature   298.150 Kelvin.  Pressure   1.00000 Atm.
 Atom     1 has atomic number  6 and mass  12.00000

 Molecular mass:   106.06299 amu.
 Principal axes and moments of inertia in atomic units:
                           1         2         3
     Eigenvalues --   543.60157 763.83313 942.19645
           X            0.99243   0.12275  -0.00371
           Y           -0.12280   0.99218  -0.02239
           Z            0.00093   0.02267   0.99974
 This molecule is an asymmetric top.
 Rotational symmetry number  1.
 Warning -- assumption of classical behavior for rotation
           may cause significant error
 Rotational temperatures (Kelvin)      0.15933     0.11339     0.09193
 Rotational constants (GHZ):           3.31997     2.36274     1.91546
 Zero-point vibrational energy     378324.3 (Joules/Mol)
                                   90.42167 (Kcal/Mol)
 Warning -- explicit consideration of  14 degrees of freedom as
           vibrations may cause significant error
 Vibrational temperatures:    127.11   247.74   273.70   328.34   343.75
          (Kelvin)            351.65   360.06   424.19   492.54   553.12
                              617.37   692.43   800.14   868.41  1085.75
                             1278.24  1337.55  1391.06  1470.58  1540.67
                             1582.76  1621.84  1673.19  1680.83  1819.38
                             1923.47  1965.42  1983.88  2012.04  2022.49
                             2075.70  2131.45  2138.17  2153.84  2173.74
                             4236.38  4361.40  4367.90  4454.01  4479.10
                             4526.32  4539.53  5479.78  5506.30  5510.47

 Zero-point correction=                           0.144096 (Hartree/Particle)
 Thermal correction to Energy=                    0.153321
 Thermal correction to Enthalpy=                  0.154265
 Thermal correction to Gibbs Free Energy=         0.111364
 Sum of electronic and zero-point Energies=           -383.995444
 Sum of electronic and thermal Energies=              -383.986219
 Sum of electronic and thermal Enthalpies=            -383.985275
 Sum of electronic and thermal Free Energies=         -384.028175

                     E (Thermal)             CV                S
                      KCal/Mol        Cal/Mol-Kelvin    Cal/Mol-Kelvin
 Total                   96.210             33.302             90.292
 Electronic               0.000              0.000              0.000
 Translational            0.889              2.981             39.894
 Rotational               0.889              2.981             27.461
 Vibrational             94.433             27.340             22.938
 Vibration     1          0.601              1.957              3.696
 Vibration     2          0.626              1.877              2.411
 Vibration     3          0.634              1.853              2.226
 Vibration     4          0.651              1.798              1.893
 Vibration     5          0.657              1.781              1.811
 Vibration     6          0.660              1.772              1.771
 Vibration     7          0.663              1.762              1.729
 Vibration     8          0.689              1.683              1.446
 Vibration     9          0.721              1.591              1.201
 Vibration    10          0.753              1.503              1.022
 Vibration    11          0.790              1.407              0.862
 Vibration    12          0.838              1.292              0.707
 Vibration    13          0.912              1.126              0.532
 Vibration    14          0.962              1.024              0.444

 Normal termination of Gaussian 09 at Fri Aug 26 13:07:54 2022.

 -----------------------------------------------------------------
 #P Geom=AllCheck Guess=TCheck SCRF=Check CCSD(T,E4T,FrzG4)/GTBas1
 -----------------------------------------------------------------

 Structure from the checkpoint file:  "G4.Frag_746.chk"
 --------
 Frag_746
 --------
 Charge =  0 Multiplicity = 1

 SCF Done:  E(RHF) =  -381.859751703     A.U. after   11 cycles
 E2 =    -0.1064324391D+01 EUMP2 =    -0.38292407609438D+03
 CCSD(T)
 CCSD(T)= -0.38300968703D+03
 .9804773\CCSD=-382.9804984\CCSD(T)=-383.009687\RMSD=7.254e-09\PG=C01 [
 Normal termination of Gaussian 09 at Fri Aug 26 13:12:18 2022.

 ---------------------------------------------------------
 #P Geom=AllCheck Guess=TCheck SCRF=Check MP4=FrzG4/GTBas2
 ---------------------------------------------------------

 Structure from the checkpoint file:  "G4.Frag_746.chk"
 --------
 Frag_746
 --------
 Charge =  0 Multiplicity = 1

 SCF Done:  E(RHF) =  -381.872962881     A.U. after   12 cycles
 E2 =    -0.1083744345D+01 EUMP2 =    -0.38295670722546D+03
 Normal termination of Gaussian 09 at Fri Aug 26 13:13:40 2022.

 ---------------------------------------------------------
 #P Geom=AllCheck Guess=TCheck SCRF=Check MP4=FrzG4/GTBas3
 ---------------------------------------------------------

 Structure from the checkpoint file:  "G4.Frag_746.chk"
 --------
 Frag_746
 --------
 Charge =  0 Multiplicity = 1

 SCF Done:  E(RHF) =  -381.914505313     A.U. after   10 cycles
 E2 =    -0.1327458844D+01 EUMP2 =    -0.38324196415777D+03
 Normal termination of Gaussian 09 at Fri Aug 26 13:26:21 2022.

 -----------------------------------------------------------
 #P Geom=AllCheck Guess=TCheck SCRF=Check MP2=Full/GTLargeXP
 -----------------------------------------------------------

 Structure from the checkpoint file:  "G4.Frag_746.chk"
 --------
 Frag_746
 --------
 Charge =  0 Multiplicity = 1

 SCF Done:  E(RHF) =  -382.019574973     A.U. after   12 cycles
 E2 =    -0.1733687564D+01 EUMP2 =    -0.38375326253664D+03
 Normal termination of Gaussian 09 at Fri Aug 26 13:30:23 2022.
 SCF Done:  E(RHF) =  -382.050716100     A.U. after    8 cycles
 Normal termination of Gaussian 09 at Fri Aug 26 13:33:42 2022.

                         Standard orientation:
 ---------------------------------------------------------------------
 Center     Atomic      Atomic             Coordinates (Angstroms)
 Number     Number       Type             X           Y           Z
 ---------------------------------------------------------------------
      1          6           0       -1.770100   -0.974795   -0.043781
      2          6           0       -0.834007    0.159147   -0.448033
      3          8           0       -1.246922    1.412902    0.081649
      4          6           0        0.618707   -0.085220    0.018595
      5          6           0        1.523640    1.116758   -0.265764
      6          8           0        0.575974   -0.379229    1.386208
      7          8           0        1.116801   -1.254481   -0.633373
      8          1           0       -1.397712   -1.927931   -0.425890
      9          1           0       -1.837282   -1.035029    1.044203
     10          1           0       -2.771504   -0.807381   -0.457654
     11          1           0       -0.787864    0.214093   -1.549830
     12          1           0       -2.202793    1.469942   -0.005606
     13          1           0        1.162122    1.987950    0.280620
     14          1           0        1.535598    1.364018   -1.333703
     15          1           0        2.547454    0.887692    0.048757
     16          1           0        1.454200   -0.690329    1.632661
     17          1           0        1.501514   -0.991901   -1.475543
 ---------------------------------------------------------------------

 SCF Done:  E(RHF) =  -382.057629960     A.U. after    8 cycles

 The electronic state is 1-A.
 Alpha  occ. eigenvalues --  -20.56385 -20.55586 -20.55450 -11.33999 -11.28145
 Alpha  occ. eigenvalues --  -11.21979 -11.20981  -1.41502  -1.36102  -1.33147
 Alpha  occ. eigenvalues --   -1.03455  -0.99057  -0.88041  -0.79834  -0.72636
 Alpha  occ. eigenvalues --   -0.67344  -0.66924  -0.65197  -0.61740  -0.58418
 Alpha  occ. eigenvalues --   -0.56451  -0.54191  -0.53495  -0.52408  -0.51372
 Alpha  occ. eigenvalues --   -0.50720  -0.48074  -0.44321  -0.42921
 Alpha virt. eigenvalues --    0.03333   0.03874   0.04643   0.05217   0.05914
 Alpha virt. eigenvalues --    0.06881   0.07092   0.07378   0.08501   0.09427
 Alpha virt. eigenvalues --    0.09755   0.09930   0.12850   0.13658   0.14234

 Mulliken charges:
               1
     1  C   -0.587225
     2  C    0.154779
     3  O   -0.613555
     4  C    0.542979
     5  C   -0.607145
     6  O   -0.611856
     7  O   -0.629056
     8  H    0.197872
     9  H    0.202055
    10  H    0.153746
    11  H    0.126150
    12  H    0.372716
    13  H    0.220088
    14  H    0.164242
    15  H    0.169606
    16  H    0.372932
    17  H    0.371672
 Sum of Mulliken charges =  -0.00000

 Dipole moment (field-independent basis, Debye):
    X=              0.3928    Y=              0.2926    Z=             -2.0134  Tot=              2.0721
 Quadrupole moment (field-independent basis, Debye-Ang):
   XX=            -35.1807   YY=            -48.3760   ZZ=            -41.9480
   XY=             -0.2700   XZ=              0.9650   YZ=             -0.9650

 Normal termination of Gaussian 09 at Fri Aug 26 13:46:01 2022.
