 Gaussian 09, Revision E.01,
 Gaussian 09:  ES64L-G09RevE.01 30-Nov-2015

 -----
 #P G4
 -----

 --------
 Frag_977
 --------
 Symbolic Z-matrix:
 Charge =  0 Multiplicity = 1

 SCF Done:  E(RB3LYP) =  -248.438756165     A.U. after   15 cycles
 SCF Done:  E(RB3LYP) =  -248.459864970     A.U. after   13 cycles
 SCF Done:  E(RB3LYP) =  -248.460760546     A.U. after   12 cycles
 SCF Done:  E(RB3LYP) =  -248.460926883     A.U. after   11 cycles
 SCF Done:  E(RB3LYP) =  -248.460929373     A.U. after    8 cycles
 SCF Done:  E(RB3LYP) =  -248.460929575     A.U. after    7 cycles
 Optimization completed.
    -- Stationary point found.
 Normal termination of Gaussian 09 at Thu Sep  1 16:37:30 2022.

 ----------------------------------------------------------
 #P Geom=AllCheck Guess=TCheck SCRF=Check B3LYP/GTBas3 Freq
 ----------------------------------------------------------

 Structure from the checkpoint file:  "G4.Frag_977.chk"
 --------
 Frag_977
 --------
 Charge =  0 Multiplicity = 1

 SCF Done:  E(RB3LYP) =  -248.460929575     A.U. after    1 cycles

  Exact polarizability:  62.950  -2.461  47.657   0.004   0.156  31.539
 Approx polarizability: 117.329  -9.707  64.952  -0.044   0.238  46.259

                      1                      2                      3
                      A                      A                      A
 Frequencies --     29.0838               192.3206               276.5938
 Red. masses --      1.0366                 1.1201                 2.8043
 Frc consts  --      0.0005                 0.0244                 0.1264
 IR Inten    --      0.1600                 0.3862                 2.9193

                      4                      5                      6
                      A                      A                      A
 Frequencies --    280.5104               359.6862               464.5005
 Red. masses --      3.3920                 2.3348                 2.3985
 Frc consts  --      0.1573                 0.1780                 0.3049
 IR Inten    --     11.5035                 2.6385                19.1713

                      7                      8                      9
                      A                      A                      A
 Frequencies --    647.1518               830.7408               905.6824
 Red. masses --      4.7547                 3.1873                 1.4249
 Frc consts  --      1.1732                 1.2960                 0.6886
 IR Inten    --      9.1459                 9.8682                25.5984

                     10                     11                     12
                      A                      A                      A
 Frequencies --    988.9989              1001.4604              1047.3558
 Red. masses --      1.3747                 1.2417                 1.6825
 Frc consts  --      0.7922                 0.7337                 1.0874
 IR Inten    --      3.5942                 4.2375                 0.5983

                     13                     14                     15
                      A                      A                      A
 Frequencies --   1088.1953              1290.0549              1336.7949
 Red. masses --      1.5535                 3.0639                 3.8543
 Frc consts  --      1.0839                 3.0043                 4.0581
 IR Inten    --      1.5705                12.6870               165.3562

                     16                     17                     18
                      A                      A                      A
 Frequencies --   1411.3448              1425.0977              1462.8011
 Red. masses --      1.3220                 1.2945                 1.0472
 Frc consts  --      1.5515                 1.5490                 1.3202
 IR Inten    --     13.6793                 0.9890                 3.9806

                     19                     20                     21
                      A                      A                      A
 Frequencies --   1465.0975              1473.1858              1478.8203
 Red. masses --      1.0460                 1.1350                 1.1564
 Frc consts  --      1.3229                 1.4514                 1.4901
 IR Inten    --     10.5127                20.4972                 5.0576

                     22                     23                     24
                      A                      A                      A
 Frequencies --   1527.5343              1686.8174              3011.3195
 Red. masses --      1.2529                 4.6249                 1.0360
 Frc consts  --      1.7224                 7.7534                 5.5352
 IR Inten    --     18.0217                63.6418                29.3132

                     25                     26                     27
                      A                      A                      A
 Frequencies --   3028.2040              3059.2122              3077.2211
 Red. masses --      1.0381                 1.0999                 1.0967
 Frc consts  --      5.6085                 6.0648                 6.1187
 IR Inten    --     12.6867                16.6838                 7.8823

                     28                     29                     30
                      A                      A                      A
 Frequencies --   3091.8739              3132.0532              3287.2081
 Red. masses --      1.1000                 1.1014                 1.0751
 Frc consts  --      6.1955                 6.3657                 6.8444
 IR Inten    --     19.8454                11.5091                18.5309

 - Thermochemistry -
 -------------------
 Temperature   298.150 Kelvin.  Pressure   1.00000 Atm.
 Atom     1 has atomic number  6 and mass  12.00000

 Molecular mass:    73.05276 amu.
 Principal axes and moments of inertia in atomic units:
                           1         2         3
     Eigenvalues --   215.53393 430.76626 624.12259
           X            0.99928   0.03788  -0.00014
           Y           -0.03788   0.99928   0.00043
           Z            0.00015  -0.00043   1.00000
 This molecule is an asymmetric top.
 Rotational symmetry number  1.
 Rotational temperatures (Kelvin)      0.40186     0.20107     0.13878
 Rotational constants (GHZ):           8.37335     4.18961     2.89165
 Zero-point vibrational energy     265313.3 (Joules/Mol)
                                   63.41140 (Kcal/Mol)
 Warning -- explicit consideration of   6 degrees of freedom as
           vibrations may cause significant error
 Vibrational temperatures:     41.85   276.71   397.96   403.59   517.51
          (Kelvin)            668.31   931.11  1195.25  1303.07  1422.95
                             1440.88  1506.91  1565.67  1856.10  1923.35
                             2030.61  2050.40  2104.64  2107.95  2119.58
                             2127.69  2197.78  2426.95  4332.61  4356.90
                             4401.52  4427.43  4448.51  4506.32  4729.55

 Zero-point correction=                           0.101053 (Hartree/Particle)
 Thermal correction to Energy=                    0.107290
 Thermal correction to Enthalpy=                  0.108234
 Thermal correction to Gibbs Free Energy=         0.070895
 Sum of electronic and zero-point Energies=           -248.359877
 Sum of electronic and thermal Energies=              -248.353640
 Sum of electronic and thermal Enthalpies=            -248.352696
 Sum of electronic and thermal Free Energies=         -248.390035

                     E (Thermal)             CV                S
                      KCal/Mol        Cal/Mol-Kelvin    Cal/Mol-Kelvin
 Total                   67.325             20.441             78.587
 Electronic               0.000              0.000              0.000
 Translational            0.889              2.981             38.782
 Rotational               0.889              2.981             25.564
 Vibrational             65.548             14.479             14.242
 Vibration     1          0.593              1.984              5.891
 Vibration     2          0.634              1.851              2.205
 Vibration     3          0.678              1.717              1.555
 Vibration     4          0.680              1.710              1.531
 Vibration     5          0.734              1.555              1.123
 Vibration     6          0.822              1.329              0.753

 Normal termination of Gaussian 09 at Thu Sep  1 16:37:51 2022.

 -----------------------------------------------------------------
 #P Geom=AllCheck Guess=TCheck SCRF=Check CCSD(T,E4T,FrzG4)/GTBas1
 -----------------------------------------------------------------

 Structure from the checkpoint file:  "G4.Frag_977.chk"
 --------
 Frag_977
 --------
 Charge =  0 Multiplicity = 1

 SCF Done:  E(RHF) =  -246.892992543     A.U. after   13 cycles
 E2 =    -0.7480059002D+00 EUMP2 =    -0.24764099844343D+03
 CCSD(T)
 CCSD(T)= -0.24770672436D+03
 \CCSD=-247.6785425\CCSD(T)=-247.7067244\RMSD=7.514e-09\PG=C01 [X(C3H7N
 Normal termination of Gaussian 09 at Thu Sep  1 16:38:52 2022.

 ---------------------------------------------------------
 #P Geom=AllCheck Guess=TCheck SCRF=Check MP4=FrzG4/GTBas2
 ---------------------------------------------------------

 Structure from the checkpoint file:  "G4.Frag_977.chk"
 --------
 Frag_977
 --------
 Charge =  0 Multiplicity = 1

 SCF Done:  E(RHF) =  -246.903563751     A.U. after   13 cycles
 E2 =    -0.7578011894D+00 EUMP2 =    -0.24766136494058D+03
 Normal termination of Gaussian 09 at Thu Sep  1 16:39:09 2022.

 ---------------------------------------------------------
 #P Geom=AllCheck Guess=TCheck SCRF=Check MP4=FrzG4/GTBas3
 ---------------------------------------------------------

 Structure from the checkpoint file:  "G4.Frag_977.chk"
 --------
 Frag_977
 --------
 Charge =  0 Multiplicity = 1

 SCF Done:  E(RHF) =  -246.923990191     A.U. after   12 cycles
 E2 =    -0.9138416930D+00 EUMP2 =    -0.24783783188360D+03
 Normal termination of Gaussian 09 at Thu Sep  1 16:40:35 2022.

 -----------------------------------------------------------
 #P Geom=AllCheck Guess=TCheck SCRF=Check MP2=Full/GTLargeXP
 -----------------------------------------------------------

 Structure from the checkpoint file:  "G4.Frag_977.chk"
 --------
 Frag_977
 --------
 Charge =  0 Multiplicity = 1

 SCF Done:  E(RHF) =  -246.989549264     A.U. after   13 cycles
 E2 =    -0.1192764299D+01 EUMP2 =    -0.24818231356298D+03
 Normal termination of Gaussian 09 at Thu Sep  1 16:41:29 2022.
 SCF Done:  E(RHF) =  -247.009677069     A.U. after   10 cycles
 Normal termination of Gaussian 09 at Thu Sep  1 16:42:38 2022.

                         Standard orientation:
 ---------------------------------------------------------------------
 Center     Atomic      Atomic             Coordinates (Angstroms)
 Number     Number       Type             X           Y           Z
 ---------------------------------------------------------------------
      1          6           0       -0.238584    1.512175   -0.002060
      2          6           0       -0.388930    0.027325   -0.001688
      3          6           0       -1.711756   -0.666994    0.001683
      4          7           0        0.711334   -0.677747   -0.001240
      5          8           0        1.901774   -0.241067    0.002162
      6          1           0        0.443164    1.820647   -0.802604
      7          1           0       -1.203611    2.007679   -0.126319
      8          1           0        0.221817    1.856358    0.932444
      9          1           0       -2.310470   -0.392700   -0.876125
     10          1           0       -1.594331   -1.756170   -0.000510
     11          1           0       -2.304124   -0.396776    0.885225
     12          1           0        0.589651   -1.701313   -0.008340
 ---------------------------------------------------------------------

 SCF Done:  E(RHF) =  -247.013908075     A.U. after    8 cycles

 The electronic state is 1-A.
 Alpha  occ. eigenvalues --  -20.49451 -15.69811 -11.30274 -11.25971 -11.23711
 Alpha  occ. eigenvalues --   -1.42654  -1.16255  -1.01092  -0.97863  -0.81851
 Alpha  occ. eigenvalues --   -0.69333  -0.65296  -0.64227  -0.57578  -0.57367
 Alpha  occ. eigenvalues --   -0.56759  -0.54870  -0.53189  -0.40893  -0.32479
 Alpha virt. eigenvalues --    0.02886   0.03913   0.04940   0.05141   0.06714
 Alpha virt. eigenvalues --    0.07368   0.07820   0.08691   0.09036   0.10384
 Alpha virt. eigenvalues --    0.12272   0.12375   0.13080   0.14162   0.14951

 Mulliken charges:
               1
     1  C   -0.535789
     2  C    0.266157
     3  C   -0.540171
     4  N    0.001278
     5  O   -0.665600
     6  H    0.221033
     7  H    0.173196
     8  H    0.201903
     9  H    0.199774
    10  H    0.162827
    11  H    0.199816
    12  H    0.315575
 Sum of Mulliken charges =  -0.00000

 Dipole moment (field-independent basis, Debye):
    X=             -5.1798    Y=             -0.7651    Z=             -0.0056  Tot=              5.2360
 Quadrupole moment (field-independent basis, Debye-Ang):
   XX=            -39.4565   YY=            -26.1639   ZZ=            -31.5012
   XY=              0.5067   XZ=             -0.0367   YZ=              0.0332

 Normal termination of Gaussian 09 at Thu Sep  1 16:49:05 2022.
