 Gaussian 09, Revision E.01,
 Gaussian 09:  ES64L-G09RevE.01 30-Nov-2015

 -----
 #P G4
 -----

 --------
 Frag_863
 --------
 Symbolic Z-matrix:
 Charge =  0 Multiplicity = 1

 SCF Done:  E(RB3LYP) =  -173.270649075     A.U. after   13 cycles
 SCF Done:  E(RB3LYP) =  -173.278726512     A.U. after   11 cycles
 SCF Done:  E(RB3LYP) =  -173.278996697     A.U. after   11 cycles
 SCF Done:  E(RB3LYP) =  -173.279255658     A.U. after   11 cycles
 SCF Done:  E(RB3LYP) =  -173.271328479     A.U. after   14 cycles
 SCF Done:  E(RB3LYP) =  -173.279566005     A.U. after   11 cycles
 SCF Done:  E(RB3LYP) =  -173.280145413     A.U. after   12 cycles
 SCF Done:  E(RB3LYP) =  -173.280404043     A.U. after   10 cycles
 SCF Done:  E(RB3LYP) =  -173.280560787     A.U. after   11 cycles
 SCF Done:  E(RB3LYP) =  -173.280576726     A.U. after   11 cycles
 SCF Done:  E(RB3LYP) =  -173.280585222     A.U. after    9 cycles
 Optimization completed.
    -- Stationary point found.
 Normal termination of Gaussian 09 at Tue Aug 30 11:42:36 2022.

 ----------------------------------------------------------
 #P Geom=AllCheck Guess=TCheck SCRF=Check B3LYP/GTBas3 Freq
 ----------------------------------------------------------

 Structure from the checkpoint file:  "G4.Frag_863.chk"
 --------
 Frag_863
 --------
 Charge =  0 Multiplicity = 1

 SCF Done:  E(RB3LYP) =  -173.280585222     A.U. after    1 cycles

  Exact polarizability:  48.417   0.999  36.529  -4.334  -3.638  34.597
 Approx polarizability:  66.219   1.931  51.475  -9.813  -5.926  51.211

                      1                      2                      3
                      A                      A                      A
 Frequencies --     92.6887               221.3551               317.6372
 Red. masses --      2.3683                 1.0933                 2.0820
 Frc consts  --      0.0120                 0.0316                 0.1238
 IR Inten    --      0.1482                 0.9217                 4.5932

                      4                      5                      6
                      A                      A                      A
 Frequencies --    488.4856               739.4229               821.2468
 Red. masses --      2.2695                 1.5041                 1.3511
 Frc consts  --      0.3191                 0.4845                 0.5369
 IR Inten    --      5.6824                 6.0634                 9.3068

                      7                      8                      9
                      A                      A                      A
 Frequencies --    882.0440              1017.1721              1098.1069
 Red. masses --      1.7798                 2.6576                 1.7647
 Frc consts  --      0.8158                 1.6200                 1.2538
 IR Inten    --      8.4867                 1.4373                 5.2987

                     10                     11                     12
                      A                      A                      A
 Frequencies --   1099.8960              1151.5752              1253.4368
 Red. masses --      1.3830                 1.1106                 1.3449
 Frc consts  --      0.9858                 0.8677                 1.2450
 IR Inten    --     14.6194                37.9046                25.1349

                     13                     14                     15
                      A                      A                      A
 Frequencies --   1300.8502              1338.0127              1405.0621
 Red. masses --      1.2605                 1.4190                 1.2108
 Frc consts  --      1.2567                 1.4968                 1.4084
 IR Inten    --     33.0268                18.0645                 2.7885

                     16                     17                     18
                      A                      A                      A
 Frequencies --   1426.2959              1472.7635              1498.8505
 Red. masses --      1.2328                 1.0772                 1.0406
 Frc consts  --      1.4776                 1.3766                 1.3773
 IR Inten    --     15.8918                 3.8870                 5.7433

                     19                     20                     21
                      A                      A                      A
 Frequencies --   1505.4129              1732.1870              3014.1581
 Red. masses --      1.0608                 8.3400                 1.0613
 Frc consts  --      1.4164                14.7438                 5.6809
 IR Inten    --      4.7503                64.6063                18.2713

                     22                     23                     24
                      A                      A                      A
 Frequencies --   3038.6816              3047.2244              3065.2281
 Red. masses --      1.0374                 1.0843                 1.0984
 Frc consts  --      5.6437                 5.9321                 6.0806
 IR Inten    --     20.7670                13.8043                34.2771

                     25                     26                     27
                      A                      A                      A
 Frequencies --   3109.5604              3115.1670              3395.7771
 Red. masses --      1.1018                 1.1025                 1.0734
 Frc consts  --      6.2769                 6.3037                 7.2924
 IR Inten    --     35.5152                24.7392                 6.0185

 - Thermochemistry -
 -------------------
 Temperature   298.150 Kelvin.  Pressure   1.00000 Atm.
 Atom     1 has atomic number  6 and mass  12.00000

 Molecular mass:    57.05785 amu.
 Principal axes and moments of inertia in atomic units:
                           1         2         3
     Eigenvalues --    75.02679 426.46656 439.66799
           X            0.99987   0.01587  -0.00111
           Y           -0.01569   0.97239  -0.23285
           Z           -0.00261   0.23284   0.97251
 This molecule is an asymmetric top.
 Rotational symmetry number  1.
 Rotational temperatures (Kelvin)      1.15444     0.20310     0.19700
 Rotational constants (GHZ):          24.05462     4.23185     4.10478
 Zero-point vibrational energy     255093.5 (Joules/Mol)
                                   60.96880 (Kcal/Mol)
 Warning -- explicit consideration of   4 degrees of freedom as
           vibrations may cause significant error
 Vibrational temperatures:    133.36   318.48   457.01   702.82  1063.86
          (Kelvin)           1181.59  1269.06  1463.48  1579.93  1582.50
                             1656.86  1803.41  1871.63  1925.10  2021.57
                             2052.12  2118.98  2156.51  2165.95  2492.23
                             4336.70  4371.98  4384.27  4410.17  4473.96
                             4482.02  4885.76

 Zero-point correction=                           0.097160 (Hartree/Particle)
 Thermal correction to Energy=                    0.102299
 Thermal correction to Enthalpy=                  0.103243
 Thermal correction to Gibbs Free Energy=         0.069610
 Sum of electronic and zero-point Energies=           -173.183425
 Sum of electronic and thermal Energies=              -173.178286
 Sum of electronic and thermal Enthalpies=            -173.177342
 Sum of electronic and thermal Free Energies=         -173.210976

                     E (Thermal)             CV                S
                      KCal/Mol        Cal/Mol-Kelvin    Cal/Mol-Kelvin
 Total                   64.193             16.612             70.787
 Electronic               0.000              0.000              0.000
 Translational            0.889              2.981             38.046
 Rotational               0.889              2.981             24.157
 Vibrational             62.416             10.651              8.585
 Vibration     1          0.602              1.954              3.603
 Vibration     2          0.648              1.809              1.948
 Vibration     3          0.704              1.640              1.322
 Vibration     4          0.844              1.276              0.688

 Normal termination of Gaussian 09 at Tue Aug 30 11:42:52 2022.

 -----------------------------------------------------------------
 #P Geom=AllCheck Guess=TCheck SCRF=Check CCSD(T,E4T,FrzG4)/GTBas1
 -----------------------------------------------------------------

 Structure from the checkpoint file:  "G4.Frag_863.chk"
 --------
 Frag_863
 --------
 Charge =  0 Multiplicity = 1

 SCF Done:  E(RHF) =  -172.106101220     A.U. after   12 cycles
 E2 =    -0.5487784149D+00 EUMP2 =    -0.17265487963529D+03
 CCSD(T)
 CCSD(T)= -0.17271754710D+03
 172.6978588\CCSD=-172.6987463\CCSD(T)=-172.7175471\RMSD=6.488e-09\PG=C
 Normal termination of Gaussian 09 at Tue Aug 30 11:43:16 2022.

 ---------------------------------------------------------
 #P Geom=AllCheck Guess=TCheck SCRF=Check MP4=FrzG4/GTBas2
 ---------------------------------------------------------

 Structure from the checkpoint file:  "G4.Frag_863.chk"
 --------
 Frag_863
 --------
 Charge =  0 Multiplicity = 1

 SCF Done:  E(RHF) =  -172.110830001     A.U. after   12 cycles
 E2 =    -0.5548057212D+00 EUMP2 =    -0.17266563572210D+03
 Normal termination of Gaussian 09 at Tue Aug 30 11:43:24 2022.

 ---------------------------------------------------------
 #P Geom=AllCheck Guess=TCheck SCRF=Check MP4=FrzG4/GTBas3
 ---------------------------------------------------------

 Structure from the checkpoint file:  "G4.Frag_863.chk"
 --------
 Frag_863
 --------
 Charge =  0 Multiplicity = 1

 SCF Done:  E(RHF) =  -172.129573838     A.U. after   11 cycles
 E2 =    -0.6746633225D+00 EUMP2 =    -0.17280423716020D+03
 Normal termination of Gaussian 09 at Tue Aug 30 11:43:59 2022.

 -----------------------------------------------------------
 #P Geom=AllCheck Guess=TCheck SCRF=Check MP2=Full/GTLargeXP
 -----------------------------------------------------------

 Structure from the checkpoint file:  "G4.Frag_863.chk"
 --------
 Frag_863
 --------
 Charge =  0 Multiplicity = 1

 SCF Done:  E(RHF) =  -172.170024712     A.U. after   12 cycles
 E2 =    -0.8888782771D+00 EUMP2 =    -0.17305890298897D+03
 Normal termination of Gaussian 09 at Tue Aug 30 11:44:22 2022.
 SCF Done:  E(RHF) =  -172.183706104     A.U. after    8 cycles
 Normal termination of Gaussian 09 at Tue Aug 30 11:44:52 2022.

                         Standard orientation:
 ---------------------------------------------------------------------
 Center     Atomic      Atomic             Coordinates (Angstroms)
 Number     Number       Type             X           Y           Z
 ---------------------------------------------------------------------
      1          6           0       -1.702721   -0.244957   -0.250694
      2          6           0       -0.489424    0.546284    0.264022
      3          6           0        0.761483   -0.293999    0.311699
      4          7           0        1.873798   -0.088215   -0.263418
      5          1           0       -1.887287   -1.129903    0.367017
      6          1           0       -2.606381    0.370734   -0.231308
      7          1           0       -1.543812   -0.583445   -1.279062
      8          1           0       -0.702546    0.906412    1.280154
      9          1           0       -0.311974    1.430760   -0.359297
     10          1           0        0.681235   -1.203288    0.921513
     11          1           0        1.838150    0.782266   -0.805253
 ---------------------------------------------------------------------

 SCF Done:  E(RHF) =  -172.186551787     A.U. after    7 cycles

 The electronic state is 1-A.
 Alpha  occ. eigenvalues --  -15.54818 -11.27993 -11.24280 -11.23154  -1.20790
 Alpha  occ. eigenvalues --   -1.04853  -0.88811  -0.79473  -0.64892  -0.63846
 Alpha  occ. eigenvalues --   -0.57901  -0.55729  -0.52871  -0.50517  -0.42742
 Alpha  occ. eigenvalues --   -0.41491
 Alpha virt. eigenvalues --    0.03792   0.04148   0.04782   0.05373   0.07367
 Alpha virt. eigenvalues --    0.07581   0.07717   0.08153   0.09104   0.10791
 Alpha virt. eigenvalues --    0.12313   0.13032   0.14460   0.14609   0.16001

 Mulliken charges:
               1
     1  C   -0.498336
     2  C   -0.256635
     3  C    0.063188
     4  N   -0.601756
     5  H    0.163558
     6  H    0.168272
     7  H    0.169898
     8  H    0.173833
     9  H    0.156152
    10  H    0.199018
    11  H    0.262809
 Sum of Mulliken charges =  -0.00000

 Dipole moment (field-independent basis, Debye):
    X=             -2.6624    Y=              1.0319    Z=              0.2899  Tot=              2.8700
 Quadrupole moment (field-independent basis, Debye-Ang):
   XX=            -32.8615   YY=            -25.2847   ZZ=            -25.4448
   XY=              2.3321   XZ=             -0.3109   YZ=             -1.6548

 Normal termination of Gaussian 09 at Tue Aug 30 11:47:51 2022.
