 Gaussian 09, Revision E.01,
 Gaussian 09:  ES64L-G09RevE.01 30-Nov-2015

 -----
 #P G4
 -----

 --------
 Frag_512
 --------
 Symbolic Z-matrix:
 Charge =  0 Multiplicity = 1

 SCF Done:  E(RB3LYP) =  -328.298091919     A.U. after   13 cycles
 SCF Done:  E(RB3LYP) =  -328.304979863     A.U. after   11 cycles
 SCF Done:  E(RB3LYP) =  -328.305869034     A.U. after   10 cycles
 SCF Done:  E(RB3LYP) =  -328.306060226     A.U. after   10 cycles
 SCF Done:  E(RB3LYP) =  -328.306064575     A.U. after   10 cycles
 SCF Done:  E(RB3LYP) =  -328.306087601     A.U. after    9 cycles
 SCF Done:  E(RB3LYP) =  -328.306089615     A.U. after    8 cycles
 SCF Done:  E(RB3LYP) =  -328.306090115     A.U. after    7 cycles
 SCF Done:  E(RB3LYP) =  -328.306090535     A.U. after    7 cycles
 Optimization completed.
    -- Stationary point found.
 Normal termination of Gaussian 09 at Fri Aug 26 14:44:51 2022.

 ----------------------------------------------------------
 #P Geom=AllCheck Guess=TCheck SCRF=Check B3LYP/GTBas3 Freq
 ----------------------------------------------------------

 Structure from the checkpoint file:  "G4.Frag_512.chk"
 --------
 Frag_512
 --------
 Charge =  0 Multiplicity = 1

 SCF Done:  E(RB3LYP) =  -328.306090535     A.U. after    1 cycles

  Exact polarizability:  71.636  -0.297  69.310   0.186   0.921  62.317
 Approx polarizability:  95.695   2.681  98.013   0.346   0.647  89.986

                      1                      2                      3
                      A                      A                      A
 Frequencies --     92.5176               190.5035               239.0948
 Red. masses --      2.5302                 1.0380                 1.1612
 Frc consts  --      0.0128                 0.0222                 0.0391
 IR Inten    --      0.5297                 0.0897                 1.4705

                      4                      5                      6
                      A                      A                      A
 Frequencies --    245.7779               255.4673               292.3983
 Red. masses --      1.2628                 1.2379                 2.0354
 Frc consts  --      0.0449                 0.0476                 0.1025
 IR Inten    --      0.2829                 2.9383                 0.8766

                      7                      8                      9
                      A                      A                      A
 Frequencies --    305.8487               324.7355               357.1393
 Red. masses --      1.9877                 1.1202                 2.5746
 Frc consts  --      0.1095                 0.0696                 0.1935
 IR Inten    --      6.6891                79.5931                 3.1843

                     10                     11                     12
                      A                      A                      A
 Frequencies --    375.4580               396.1153               468.8841
 Red. masses --      2.2692                 2.1075                 2.5118
 Frc consts  --      0.1885                 0.1948                 0.3254
 IR Inten    --      3.0615                 0.4055                 2.0269

                     13                     14                     15
                      A                      A                      A
 Frequencies --    497.7577               532.2117               702.0704
 Red. masses --      2.9679                 3.1115                 3.8365
 Frc consts  --      0.4332                 0.5193                 1.1142
 IR Inten    --      0.7570                 9.9481                 5.4676

                     16                     17                     18
                      A                      A                      A
 Frequencies --    822.0938               916.1723               922.8716
 Red. masses --      2.8248                 2.2568                 2.1447
 Frc consts  --      1.1248                 1.1161                 1.0762
 IR Inten    --      6.9725                12.2431                 8.9068

                     19                     20                     21
                      A                      A                      A
 Frequencies --    931.7612               957.3336              1024.7391
 Red. masses --      1.7003                 1.2100                 1.6000
 Frc consts  --      0.8697                 0.6534                 0.9899
 IR Inten    --      0.7969                 0.0837                 4.7504

                     22                     23                     24
                      A                      A                      A
 Frequencies --   1041.3155              1109.8484              1149.1029
 Red. masses --      1.3974                 2.7576                 1.3608
 Frc consts  --      0.8928                 2.0013                 1.0587
 IR Inten    --      1.9531                15.2125                 6.4360

                     25                     26                     27
                      A                      A                      A
 Frequencies --   1190.5584              1251.3247              1259.3901
 Red. masses --      1.8277                 2.6747                 2.6243
 Frc consts  --      1.5264                 2.4675                 2.4524
 IR Inten    --     11.0491                20.6614                20.5976

                     28                     29                     30
                      A                      A                      A
 Frequencies --   1272.0926              1356.6408              1388.8278
 Red. masses --      3.0772                 1.1985                 1.2582
 Frc consts  --      2.9339                 1.2996                 1.4299
 IR Inten    --      8.5693                43.0269                11.2843

                     31                     32                     33
                      A                      A                      A
 Frequencies --   1391.7093              1420.3864              1442.5655
 Red. masses --      1.2590                 1.2274                 1.1735
 Frc consts  --      1.4367                 1.4590                 1.4388
 IR Inten    --      8.0663                 6.9148                 0.0665

                     34                     35                     36
                      A                      A                      A
 Frequencies --   1471.3720              1481.8952              1488.2529
 Red. masses --      1.0496                 1.0486                 1.0476
 Frc consts  --      1.3388                 1.3567                 1.3671
 IR Inten    --      0.8340                 6.7942                 0.9161

                     37                     38                     39
                      A                      A                      A
 Frequencies --   1493.4547              1497.5673              1508.3057
 Red. masses --      1.0545                 1.0472                 1.0546
 Frc consts  --      1.3857                 1.3837                 1.4136
 IR Inten    --      3.3886                 2.9561                 2.6117

                     40                     41                     42
                      A                      A                      A
 Frequencies --   1514.2836              1526.0529              3000.6391
 Red. masses --      1.0524                 1.0585                 1.0497
 Frc consts  --      1.4218                 1.4524                 5.5683
 IR Inten    --      0.6522                 5.5062                40.5324

                     43                     44                     45
                      A                      A                      A
 Frequencies --   3037.9797              3039.8208              3046.7212
 Red. masses --      1.0352                 1.0353                 1.0366
 Frc consts  --      5.6291                 5.6368                 5.6695
 IR Inten    --     20.4631                25.8958                10.4747

                     46                     47                     48
                      A                      A                      A
 Frequencies --   3093.4503              3103.1612              3107.0438
 Red. masses --      1.0844                 1.1005                 1.1017
 Frc consts  --      6.1140                 6.2438                 6.2661
 IR Inten    --     30.1456                11.9008                 3.4190

                     49                     50                     51
                      A                      A                      A
 Frequencies --   3113.2210              3115.8450              3128.3895
 Red. masses --      1.1008                 1.1016                 1.1007
 Frc consts  --      6.2863                 6.3014                 6.3468
 IR Inten    --     54.6212                34.7150                 4.5426

                     52                     53                     54
                      A                      A                      A
 Frequencies --   3132.2889              3134.9759              3808.6201
 Red. masses --      1.1002                 1.1006                 1.0682
 Frc consts  --      6.3599                 6.3728                 9.1296
 IR Inten    --     20.3960                28.3450                36.7421

 - Thermochemistry -
 -------------------
 Temperature   298.150 Kelvin.  Pressure   1.00000 Atm.
 Atom     1 has atomic number  6 and mass  12.00000

 Molecular mass:   103.09971 amu.
 Principal axes and moments of inertia in atomic units:
                           1         2         3
     Eigenvalues --   573.07666 775.17496 926.99060
           X            0.99769  -0.06779  -0.00469
           Y            0.06788   0.99739   0.02444
           Z            0.00302  -0.02470   0.99969
 This molecule is an asymmetric top.
 Rotational symmetry number  1.
 Warning -- assumption of classical behavior for rotation
           may cause significant error
 Rotational temperatures (Kelvin)      0.15114     0.11173     0.09344
 Rotational constants (GHZ):           3.14921     2.32817     1.94688
 Zero-point vibrational energy     472333.9 (Joules/Mol)
                                  112.89050 (Kcal/Mol)
 Warning -- explicit consideration of  14 degrees of freedom as
           vibrations may cause significant error
 Vibrational temperatures:    133.11   274.09   344.00   353.62   367.56
          (Kelvin)            420.70   440.05   467.22   513.84   540.20
                              569.92   674.62   716.16   765.73  1010.12
                             1182.81  1318.17  1327.80  1340.59  1377.39
                             1474.37  1498.22  1596.82  1653.30  1712.95
                             1800.37  1811.98  1830.26  1951.90  1998.21
                             2002.36  2043.62  2075.53  2116.97  2132.11
                             2141.26  2148.75  2154.66  2170.11  2178.71
                             2195.65  4317.24  4370.97  4373.62  4383.55
                             4450.78  4464.75  4470.34  4479.23  4483.00
                             4501.05  4506.66  4510.53  5479.75

 Zero-point correction=                           0.179902 (Hartree/Particle)
 Thermal correction to Energy=                    0.189061
 Thermal correction to Enthalpy=                  0.190005
 Thermal correction to Gibbs Free Energy=         0.147582
 Sum of electronic and zero-point Energies=           -328.126188
 Sum of electronic and thermal Energies=              -328.117030
 Sum of electronic and thermal Enthalpies=            -328.116085
 Sum of electronic and thermal Free Energies=         -328.158508

                     E (Thermal)             CV                S
                      KCal/Mol        Cal/Mol-Kelvin    Cal/Mol-Kelvin
 Total                  118.637             34.688             89.286
 Electronic               0.000              0.000              0.000
 Translational            0.889              2.981             39.809
 Rotational               0.889              2.981             27.512
 Vibrational            116.860             28.727             21.965
 Vibration     1          0.602              1.955              3.606
 Vibration     2          0.634              1.853              2.223
 Vibration     3          0.657              1.781              1.810
 Vibration     4          0.660              1.770              1.761
 Vibration     5          0.666              1.754              1.693
 Vibration     6          0.688              1.688              1.460
 Vibration     7          0.696              1.663              1.385
 Vibration     8          0.709              1.626              1.286
 Vibration     9          0.732              1.561              1.135
 Vibration    10          0.746              1.522              1.057
 Vibration    11          0.763              1.478              0.977
 Vibration    12          0.826              1.319              0.741
 Vibration    13          0.853              1.255              0.664
 Vibration    14          0.887              1.179              0.582

 Optimization completed.
    -- Stationary point found.
 Normal termination of Gaussian 09 at Fri Aug 26 14:45:53 2022.

 -----------------------------------------------------------------
 #P Geom=AllCheck Guess=TCheck SCRF=Check CCSD(T,E4T,FrzG4)/GTBas1
 -----------------------------------------------------------------

 Structure from the checkpoint file:  "G4.Frag_512.chk"
 --------
 Frag_512
 --------
 Charge =  0 Multiplicity = 1

 SCF Done:  E(RHF) =  -326.145437959     A.U. after   12 cycles
 E2 =    -0.1012587269D+01 EUMP2 =    -0.32715802522804D+03
 CCSD(T)
 CCSD(T)= -0.32726334090D+03
 4\CCSD=-327.2309912\CCSD(T)=-327.2633409\RMSD=7.550e-09\PG=C01 [X(C5H1
 Normal termination of Gaussian 09 at Fri Aug 26 14:51:16 2022.

 ---------------------------------------------------------
 #P Geom=AllCheck Guess=TCheck SCRF=Check MP4=FrzG4/GTBas2
 ---------------------------------------------------------

 Structure from the checkpoint file:  "G4.Frag_512.chk"
 --------
 Frag_512
 --------
 Charge =  0 Multiplicity = 1

 SCF Done:  E(RHF) =  -326.152558979     A.U. after   12 cycles
 E2 =    -0.1027714705D+01 EUMP2 =    -0.32718027368405D+03
 Normal termination of Gaussian 09 at Fri Aug 26 14:52:54 2022.

 ---------------------------------------------------------
 #P Geom=AllCheck Guess=TCheck SCRF=Check MP4=FrzG4/GTBas3
 ---------------------------------------------------------

 Structure from the checkpoint file:  "G4.Frag_512.chk"
 --------
 Frag_512
 --------
 Charge =  0 Multiplicity = 1

 SCF Done:  E(RHF) =  -326.187593107     A.U. after   11 cycles
 E2 =    -0.1261119007D+01 EUMP2 =    -0.32744871211415D+03
 Normal termination of Gaussian 09 at Fri Aug 26 15:06:20 2022.

 -----------------------------------------------------------
 #P Geom=AllCheck Guess=TCheck SCRF=Check MP2=Full/GTLargeXP
 -----------------------------------------------------------

 Structure from the checkpoint file:  "G4.Frag_512.chk"
 --------
 Frag_512
 --------
 Charge =  0 Multiplicity = 1

 SCF Done:  E(RHF) =  -326.264789418     A.U. after   12 cycles
 E2 =    -0.1649186072D+01 EUMP2 =    -0.32791397548987D+03
 Normal termination of Gaussian 09 at Fri Aug 26 15:11:44 2022.
 SCF Done:  E(RHF) =  -326.290755873     A.U. after    8 cycles
 Normal termination of Gaussian 09 at Fri Aug 26 15:16:25 2022.

                         Standard orientation:
 ---------------------------------------------------------------------
 Center     Atomic      Atomic             Coordinates (Angstroms)
 Number     Number       Type             X           Y           Z
 ---------------------------------------------------------------------
      1          6           0       -1.687411    1.043952   -0.058361
      2          7           0       -0.804947   -0.035985   -0.486771
      3          8           0       -1.397756   -1.238394    0.060487
      4          6           0        0.601394    0.036359    0.005816
      5          6           0        1.230141    1.322174   -0.557612
      6          6           0        1.340188   -1.175171   -0.587216
      7          6           0        0.708768    0.011963    1.542704
      8          1           0       -1.794490    1.123439    1.033293
      9          1           0       -2.676369    0.859545   -0.484418
     10          1           0       -1.319100    1.992988   -0.453408
     11          1           0       -1.563326   -1.766178   -0.727705
     12          1           0        2.310967    1.305707   -0.389419
     13          1           0        0.839081    2.222244   -0.075351
     14          1           0        1.051965    1.399314   -1.634561
     15          1           0        0.925023   -2.109724   -0.204682
     16          1           0        1.254215   -1.177043   -1.678488
     17          1           0        2.401806   -1.140108   -0.324814
     18          1           0        0.267695    0.904807    1.995962
     19          1           0        1.759247   -0.024708    1.848243
     20          1           0        0.201483   -0.866888    1.946864
 ---------------------------------------------------------------------

 SCF Done:  E(RHF) =  -326.296364697     A.U. after    7 cycles

 The electronic state is 1-A.
 Alpha  occ. eigenvalues --  -20.57345 -15.59964 -11.26300 -11.24012 -11.21392
 Alpha  occ. eigenvalues --  -11.20650 -11.20596  -1.39150  -1.15317  -1.04451
 Alpha  occ. eigenvalues --   -0.93339  -0.93108  -0.88766  -0.73949  -0.68798
 Alpha  occ. eigenvalues --   -0.65485  -0.62485  -0.59779  -0.58615  -0.56063
 Alpha  occ. eigenvalues --   -0.55404  -0.53362  -0.52647  -0.51381  -0.50311
 Alpha  occ. eigenvalues --   -0.47866  -0.46381  -0.45214  -0.37399
 Alpha virt. eigenvalues --    0.03272   0.03996   0.04393   0.04508   0.06319
 Alpha virt. eigenvalues --    0.06597   0.06973   0.07177   0.07332   0.09298
 Alpha virt. eigenvalues --    0.09766   0.09886   0.10042   0.10758   0.11504

 Mulliken charges:
               1
     1  C   -0.478270
     2  N   -0.028325
     3  O   -0.592457
     4  C    0.490662
     5  C   -0.627889
     6  C   -0.642318
     7  C   -0.608564
     8  H    0.159931
     9  H    0.172017
    10  H    0.176255
    11  H    0.401599
    12  H    0.177262
    13  H    0.167098
    14  H    0.181402
    15  H    0.182192
    16  H    0.176437
    17  H    0.165775
    18  H    0.160562
    19  H    0.169210
    20  H    0.197421
 Sum of Mulliken charges =  -0.00000

 Dipole moment (field-independent basis, Debye):
    X=              0.4297    Y=              0.5291    Z=             -0.5142  Tot=              0.8538
 Quadrupole moment (field-independent basis, Debye-Ang):
   XX=            -45.5572   YY=            -44.1503   ZZ=            -46.9979
   XY=             -0.2983   XZ=              1.7540   YZ=              2.3267

 Normal termination of Gaussian 09 at Fri Aug 26 15:30:23 2022.
