 Gaussian 09, Revision E.01,
 Gaussian 09:  ES64L-G09RevE.01 30-Nov-2015

 -----
 #P G4
 -----

 --------
 Frag_628
 --------
 Symbolic Z-matrix:
 Charge =  0 Multiplicity = 1

 SCF Done:  E(RB3LYP) =  -228.591775175     A.U. after   13 cycles
 SCF Done:  E(RB3LYP) =  -228.603905770     A.U. after   13 cycles
 SCF Done:  E(RB3LYP) =  -228.605421204     A.U. after   13 cycles
 SCF Done:  E(RB3LYP) =  -228.606473929     A.U. after   13 cycles
 SCF Done:  E(RB3LYP) =  -228.607006770     A.U. after   13 cycles
 SCF Done:  E(RB3LYP) =  -228.607506267     A.U. after   13 cycles
 SCF Done:  E(RB3LYP) =  -228.607698849     A.U. after   11 cycles
 SCF Done:  E(RB3LYP) =  -228.607731834     A.U. after   13 cycles
 SCF Done:  E(RB3LYP) =  -228.607739224     A.U. after    9 cycles
 SCF Done:  E(RB3LYP) =  -228.607739840     A.U. after    7 cycles
 Optimization completed.
    -- Stationary point found.
 Normal termination of Gaussian 09 at Sat Aug 20 08:55:55 2022.

 ----------------------------------------------------------
 #P Geom=AllCheck Guess=TCheck SCRF=Check B3LYP/GTBas3 Freq
 ----------------------------------------------------------

 Structure from the checkpoint file:  "G4.Frag_628.chk"
 --------
 Frag_628
 --------
 Charge =  0 Multiplicity = 1

 SCF Done:  E(RB3LYP) =  -228.607739840     A.U. after    1 cycles

  Exact polarizability:  61.281   0.002  43.186  -0.103  -0.001  40.642
 Approx polarizability:  84.174   0.003  56.608   3.326  -0.002  62.442

                      1                      2                      3
                      A                      A                      A
 Frequencies --     87.0356               200.6735               232.1574
 Red. masses --      5.1101                 1.0241                 1.0614
 Frc consts  --      0.0228                 0.0243                 0.0337
 IR Inten    --      0.0163                 0.0440                 0.1260

                      4                      5                      6
                      A                      A                      A
 Frequencies --    333.8108               378.3238               389.5724
 Red. masses --      2.3493                 2.4552                 3.2779
 Frc consts  --      0.1542                 0.2070                 0.2931
 IR Inten    --      0.5665                 2.9975                 0.0247

                      7                      8                      9
                      A                      A                      A
 Frequencies --    571.7356               812.3376               915.0443
 Red. masses --      3.7189                 2.1653                 2.4576
 Frc consts  --      0.7162                 0.8418                 1.2124
 IR Inten    --      5.4393                10.0148                 3.4875

                     10                     11                     12
                      A                      A                      A
 Frequencies --    923.9896               942.9631               966.6814
 Red. masses --      1.2246                 1.1590                 1.5915
 Frc consts  --      0.6160                 0.6072                 0.8762
 IR Inten    --     22.8175                 5.3629                 4.8369

                     13                     14                     15
                      A                      A                      A
 Frequencies --   1149.8738              1154.7851              1194.7426
 Red. masses --      1.7170                 1.7929                 1.9428
 Frc consts  --      1.3376                 1.4087                 1.6339
 IR Inten    --      7.6978                19.9621                 3.9987

                     16                     17                     18
                      A                      A                      A
 Frequencies --   1343.7746              1365.2589              1393.8539
 Red. masses --      1.3471                 1.3633                 1.2781
 Frc consts  --      1.4332                 1.4971                 1.4630
 IR Inten    --     14.2980                 8.5942                 7.3819

                     19                     20                     21
                      A                      A                      A
 Frequencies --   1411.4952              1481.7399              1488.0497
 Red. masses --      1.2199                 1.0484                 1.0448
 Frc consts  --      1.4319                 1.3562                 1.3630
 IR Inten    --      3.9213                 0.6333                 0.0106

                     22                     23                     24
                      A                      A                      A
 Frequencies --   1491.3465              1496.6957              1512.9470
 Red. masses --      1.1507                 1.1590                 1.0684
 Frc consts  --      1.5079                 1.5297                 1.4409
 IR Inten    --      5.5633                20.7506                 8.8087

                     25                     26                     27
                      A                      A                      A
 Frequencies --   1653.2088              3021.4962              3038.6267
 Red. masses --     10.1605                 1.0838                 1.0338
 Frc consts  --     16.3613                 5.8297                 5.6242
 IR Inten    --      4.0685                18.2130                22.1546

                     28                     29                     30
                      A                      A                      A
 Frequencies --   3041.7669              3113.8134              3115.1451
 Red. masses --      1.0346                 1.1022                 1.1023
 Frc consts  --      5.6398                 6.2966                 6.3022
 IR Inten    --     13.3128                 1.5120                16.8132

                     31                     32                     33
                      A                      A                      A
 Frequencies --   3116.6218              3119.3506              3231.7542
 Red. masses --      1.1021                 1.1014                 1.0736
 Frc consts  --      6.3072                 6.3145                 6.6067
 IR Inten    --     24.7130                41.1865                34.5368

 - Thermochemistry -
 -------------------
 Temperature   298.150 Kelvin.  Pressure   1.00000 Atm.
 Atom     1 has atomic number  6 and mass  12.00000

 Molecular mass:    72.06875 amu.
 Principal axes and moments of inertia in atomic units:
                           1         2         3
     Eigenvalues --   233.67464 446.87965 606.55321
           X            0.99999  -0.00002  -0.00459
           Y            0.00002   1.00000   0.00001
           Z            0.00459  -0.00001   0.99999
 This molecule is an asymmetric top.
 Rotational symmetry number  1.
 Rotational temperatures (Kelvin)      0.37066     0.19382     0.14280
 Rotational constants (GHZ):           7.72331     4.03854     2.97540
 Zero-point vibrational energy     297216.2 (Joules/Mol)
                                   71.03638 (Kcal/Mol)
 Warning -- explicit consideration of   7 degrees of freedom as
           vibrations may cause significant error
 Vibrational temperatures:    125.22   288.72   334.02   480.28   544.32
          (Kelvin)            560.51   822.60  1168.77  1316.54  1329.41
                             1356.71  1390.84  1654.41  1661.48  1718.97
                             1933.39  1964.30  2005.44  2030.82  2131.89
                             2140.97  2145.71  2153.41  2176.79  2378.60
                             4347.25  4371.90  4376.42  4480.08  4481.99
                             4484.12  4488.04  4649.77

 Zero-point correction=                           0.113204 (Hartree/Particle)
 Thermal correction to Energy=                    0.119455
 Thermal correction to Enthalpy=                  0.120399
 Thermal correction to Gibbs Free Energy=         0.083877
 Sum of electronic and zero-point Energies=           -228.494536
 Sum of electronic and thermal Energies=              -228.488285
 Sum of electronic and thermal Enthalpies=            -228.487340
 Sum of electronic and thermal Free Energies=         -228.523863

                     E (Thermal)             CV                S
                      KCal/Mol        Cal/Mol-Kelvin    Cal/Mol-Kelvin
 Total                   74.959             21.266             76.868
 Electronic               0.000              0.000              0.000
 Translational            0.889              2.981             38.742
 Rotational               0.889              2.981             25.652
 Vibrational             73.182             15.304             12.474
 Vibration     1          0.601              1.958              3.726
 Vibration     2          0.638              1.839              2.127
 Vibration     3          0.653              1.792              1.862
 Vibration     4          0.715              1.608              1.242
 Vibration     5          0.749              1.516              1.046
 Vibration     6          0.757              1.492              1.002
 Vibration     7          0.928              1.092              0.501

 Normal termination of Gaussian 09 at Sat Aug 20 08:57:34 2022.

 -----------------------------------------------------------------
 #P Geom=AllCheck Guess=TCheck SCRF=Check CCSD(T,E4T,FrzG4)/GTBas1
 -----------------------------------------------------------------

 Structure from the checkpoint file:  "G4.Frag_628.chk"
 --------
 Frag_628
 --------
 Charge =  0 Multiplicity = 1

 SCF Done:  E(RHF) =  -227.105788132     A.U. after   11 cycles
 E2 =    -0.7165455841D+00 EUMP2 =    -0.22782233371627D+03
 CCSD(T)
 CCSD(T)= -0.22789763075D+03
 Normal termination of Gaussian 09 at Sat Aug 20 08:59:33 2022.

 ---------------------------------------------------------
 #P Geom=AllCheck Guess=TCheck SCRF=Check MP4=FrzG4/GTBas2
 ---------------------------------------------------------

 Structure from the checkpoint file:  "G4.Frag_628.chk"
 --------
 Frag_628
 --------
 Charge =  0 Multiplicity = 1

 SCF Done:  E(RHF) =  -227.112484439     A.U. after   13 cycles
 E2 =    -0.7261192077D+00 EUMP2 =    -0.22783860364705D+03
 Normal termination of Gaussian 09 at Sat Aug 20 09:01:47 2022.

 ---------------------------------------------------------
 #P Geom=AllCheck Guess=TCheck SCRF=Check MP4=FrzG4/GTBas3
 ---------------------------------------------------------

 Structure from the checkpoint file:  "G4.Frag_628.chk"
 --------
 Frag_628
 --------
 Charge =  0 Multiplicity = 1

 SCF Done:  E(RHF) =  -227.133235819     A.U. after   11 cycles
 E2 =    -0.8754227015D+00 EUMP2 =    -0.22800865852092D+03
 Normal termination of Gaussian 09 at Sat Aug 20 09:47:00 2022.

 -----------------------------------------------------------
 #P Geom=AllCheck Guess=TCheck SCRF=Check MP2=Full/GTLargeXP
 -----------------------------------------------------------

 Structure from the checkpoint file:  "G4.Frag_628.chk"
 --------
 Frag_628
 --------
 Charge =  0 Multiplicity = 1

 SCF Done:  E(RHF) =  -227.187201896     A.U. after   12 cycles
 E2 =    -0.1147408862D+01 EUMP2 =    -0.22833461075795D+03
 Normal termination of Gaussian 09 at Sat Aug 20 09:49:55 2022.
 SCF Done:  E(RHF) =  -227.205228398     A.U. after    8 cycles
 Normal termination of Gaussian 09 at Sat Aug 20 09:53:18 2022.

                         Standard orientation:
 ---------------------------------------------------------------------
 Center     Atomic      Atomic             Coordinates (Angstroms)
 Number     Number       Type             X           Y           Z
 ---------------------------------------------------------------------
      1          6           0        1.094927   -1.271053    0.049248
      2          6           0        0.322068   -0.000030   -0.315782
      3          6           0        1.093852    1.271628    0.049277
      4          7           0       -0.931370   -0.000419    0.463003
      5          7           0       -1.943747   -0.000236   -0.253847
      6          1           0        0.530482   -2.165747   -0.228984
      7          1           0        1.289082   -1.309453    1.125635
      8          1           0        2.053745   -1.292395   -0.477095
      9          1           0        0.076960   -0.000186   -1.386060
     10          1           0        0.529495    2.165835   -0.230688
     11          1           0        2.053607    1.292919   -0.475346
     12          1           0        1.286040    1.310979    1.125986
     13          1           0       -2.758675   -0.000638    0.385999
 ---------------------------------------------------------------------

 SCF Done:  E(RHF) =  -227.208875470     A.U. after    7 cycles

 The electronic state is 1-A.
 Alpha  occ. eigenvalues --  -15.62502 -15.61451 -11.26026 -11.22090 -11.22088
 Alpha  occ. eigenvalues --   -1.35588  -1.08795  -0.93976  -0.91534  -0.77008
 Alpha  occ. eigenvalues --   -0.69442  -0.62471  -0.59518  -0.59003  -0.54532
 Alpha  occ. eigenvalues --   -0.53375  -0.51180  -0.48085  -0.46316  -0.38812
 Alpha virt. eigenvalues --    0.03914   0.04332   0.05061   0.05288   0.07321
 Alpha virt. eigenvalues --    0.07454   0.07797   0.07807   0.08551   0.10465
 Alpha virt. eigenvalues --    0.11610   0.12015   0.12080   0.13711   0.14662

 Mulliken charges:
               1
     1  C   -0.518802
     2  C    0.080469
     3  C   -0.518987
     4  N   -0.134793
     5  N   -0.422809
     6  H    0.171249
     7  H    0.177577
     8  H    0.166036
     9  H    0.174246
    10  H    0.171260
    11  H    0.166042
    12  H    0.177664
    13  H    0.310848
 Sum of Mulliken charges =  -0.00000

 Dipole moment (field-independent basis, Debye):
    X=              0.6744    Y=             -0.0000    Z=              0.1117  Tot=              0.6836
 Quadrupole moment (field-independent basis, Debye-Ang):
   XX=            -29.4601   YY=            -32.0878   ZZ=            -34.2410
   XY=              0.0012   XZ=             -2.3476   YZ=              0.0007

 Normal termination of Gaussian 09 at Sat Aug 20 11:21:38 2022.
