 Gaussian 09, Revision E.01,
 Gaussian 09:  ES64L-G09RevE.01 30-Nov-2015

 -----
 #P G4
 -----

 ---------
 Frag_1038
 ---------
 Symbolic Z-matrix:
 Charge =  0 Multiplicity = 1

 SCF Done:  E(RB3LYP) =  -323.727492680     A.U. after   13 cycles
 SCF Done:  E(RB3LYP) =  -323.728575768     A.U. after   11 cycles
 SCF Done:  E(RB3LYP) =  -323.729507373     A.U. after   11 cycles
 SCF Done:  E(RB3LYP) =  -323.730394474     A.U. after   11 cycles
 SCF Done:  E(RB3LYP) =  -323.730635777     A.U. after   11 cycles
 SCF Done:  E(RB3LYP) =  -323.730760339     A.U. after   10 cycles
 SCF Done:  E(RB3LYP) =  -323.730772522     A.U. after    8 cycles
 SCF Done:  E(RB3LYP) =  -323.730780717     A.U. after    9 cycles
 SCF Done:  E(RB3LYP) =  -323.730782791     A.U. after    8 cycles
 SCF Done:  E(RB3LYP) =  -323.730783658     A.U. after    8 cycles
 Optimization completed.
    -- Stationary point found.
 Normal termination of Gaussian 09 at Thu Sep  1 16:55:23 2022.

 ----------------------------------------------------------
 #P Geom=AllCheck Guess=TCheck SCRF=Check B3LYP/GTBas3 Freq
 ----------------------------------------------------------

 Structure from the checkpoint file:  "G4.Frag_1038.chk"
 ---------
 Frag_1038
 ---------
 Charge =  0 Multiplicity = 1

 SCF Done:  E(RB3LYP) =  -323.730783658     A.U. after    1 cycles

  Exact polarizability:  67.995   1.540  49.509  -1.042  -1.608  33.015
 Approx polarizability: 100.868   5.280  67.436  -0.749  -0.328  50.042

                      1                      2                      3
                      A                      A                      A
 Frequencies --    172.8556               189.7979               252.5856
 Red. masses --      1.0386                 3.9008                 2.4457
 Frc consts  --      0.0183                 0.0828                 0.0919
 IR Inten    --      5.4965                 1.9936                10.6132

                      4                      5                      6
                      A                      A                      A
 Frequencies --    273.2112               328.1528               362.8447
 Red. masses --      1.3307                 1.3178                 1.9460
 Frc consts  --      0.0585                 0.0836                 0.1509
 IR Inten    --     96.8394                47.4350                67.2995

                      7                      8                      9
                      A                      A                      A
 Frequencies --    367.0491               419.6865               535.2444
 Red. masses --      2.8690                 1.2735                 3.0083
 Frc consts  --      0.2277                 0.1322                 0.5078
 IR Inten    --     13.9689                58.9428                88.5482

                     10                     11                     12
                      A                      A                      A
 Frequencies --    548.7819               581.9636               751.3082
 Red. masses --      5.1196                 4.1215                 5.2121
 Frc consts  --      0.9084                 0.8224                 1.7334
 IR Inten    --     10.1779                 3.5661                 3.7369

                     13                     14                     15
                      A                      A                      A
 Frequencies --    809.0255               985.0751              1046.4568
 Red. masses --      1.3834                 2.0061                 1.6391
 Frc consts  --      0.5335                 1.1470                 1.0575
 IR Inten    --    215.9226                19.6840                45.0074

                     16                     17                     18
                      A                      A                      A
 Frequencies --   1066.7672              1179.3875              1241.4655
 Red. masses --      1.4867                 1.3975                 6.0383
 Frc consts  --      0.9968                 1.1453                 5.4832
 IR Inten    --     23.9020                94.3064               100.4746

                     19                     20                     21
                      A                      A                      A
 Frequencies --   1272.4119              1316.0176              1348.1426
 Red. masses --      1.3059                 2.2043                 1.8448
 Frc consts  --      1.2458                 2.2493                 1.9755
 IR Inten    --    156.1071                18.2644                 9.8691

                     22                     23                     24
                      A                      A                      A
 Frequencies --   1415.6076              1484.9793              1492.9296
 Red. masses --      1.4687                 1.0445                 1.0550
 Frc consts  --      1.7341                 1.3570                 1.3854
 IR Inten    --      0.4516                 5.0001                 4.2179

                     25                     26                     27
                      A                      A                      A
 Frequencies --   1640.9200              1821.2561              3012.1558
 Red. masses --      1.1160                 7.1570                 1.0456
 Frc consts  --      1.7704                13.9870                 5.5892
 IR Inten    --     39.1907                19.7329                48.1912

                     28                     29                     30
                      A                      A                      A
 Frequencies --   3060.2500              3152.0529              3498.6635
 Red. masses --      1.0940                 1.0952                 1.0490
 Frc consts  --      6.0366                 6.4112                 7.5656
 IR Inten    --     26.4082                 8.2216                 2.3718

                     31                     32                     33
                      A                      A                      A
 Frequencies --   3603.4402              3731.2602              3757.4477
 Red. masses --      1.0931                 1.0656                 1.0652
 Frc consts  --      8.3628                 8.7412                 8.8606
 IR Inten    --      5.2503                17.1999                22.8326

 - Thermochemistry -
 -------------------
 Temperature   298.150 Kelvin.  Pressure   1.00000 Atm.
 Atom     1 has atomic number  6 and mass  12.00000

 Molecular mass:    89.04768 amu.
 Principal axes and moments of inertia in atomic units:
                           1         2         3
     Eigenvalues --   362.22052 552.80002 893.32884
           X            0.99886  -0.04707  -0.00732
           Y            0.04687   0.99858  -0.02539
           Z            0.00851   0.02502   0.99965
 This molecule is an asymmetric top.
 Rotational symmetry number  1.
 Rotational temperatures (Kelvin)      0.23912     0.15668     0.09696
 Rotational constants (GHZ):           4.98244     3.26473     2.02024
 Zero-point vibrational energy     279442.8 (Joules/Mol)
                                   66.78844 (Kcal/Mol)
 Warning -- explicit consideration of  11 degrees of freedom as
           vibrations may cause significant error
 Vibrational temperatures:    248.70   273.08   363.41   393.09   472.14
          (Kelvin)            522.05   528.10   603.83   770.10   789.57
                              837.31  1080.96  1164.01  1417.30  1505.62
                             1534.84  1696.87  1786.19  1830.71  1893.45
                             1939.67  2036.74  2136.55  2147.99  2360.91
                             2620.38  4333.82  4403.01  4535.10  5033.79
                             5184.54  5368.44  5406.12

 Zero-point correction=                           0.106434 (Hartree/Particle)
 Thermal correction to Energy=                    0.113666
 Thermal correction to Enthalpy=                  0.114610
 Thermal correction to Gibbs Free Energy=         0.076194
 Sum of electronic and zero-point Energies=           -323.624350
 Sum of electronic and thermal Energies=              -323.617118
 Sum of electronic and thermal Enthalpies=            -323.616173
 Sum of electronic and thermal Free Energies=         -323.654590

                     E (Thermal)             CV                S
                      KCal/Mol        Cal/Mol-Kelvin    Cal/Mol-Kelvin
 Total                   71.327             26.248             80.855
 Electronic               0.000              0.000              0.000
 Translational            0.889              2.981             39.372
 Rotational               0.889              2.981             26.684
 Vibrational             69.549             20.286             14.799
 Vibration     1          0.626              1.876              2.404
 Vibration     2          0.633              1.854              2.230
 Vibration     3          0.664              1.758              1.712
 Vibration     4          0.676              1.723              1.576
 Vibration     5          0.711              1.619              1.269
 Vibration     6          0.737              1.549              1.110
 Vibration     7          0.740              1.540              1.092
 Vibration     8          0.782              1.427              0.893
 Vibration     9          0.890              1.172              0.576
 Vibration    10          0.904              1.142              0.547
 Vibration    11          0.939              1.070              0.482

 Optimization completed.
    -- Stationary point found.
 Normal termination of Gaussian 09 at Thu Sep  1 16:55:51 2022.

 -----------------------------------------------------------------
 #P Geom=AllCheck Guess=TCheck SCRF=Check CCSD(T,E4T,FrzG4)/GTBas1
 -----------------------------------------------------------------

 Structure from the checkpoint file:  "G4.Frag_1038.chk"
 ---------
 Frag_1038
 ---------
 Charge =  0 Multiplicity = 1

 SCF Done:  E(RHF) =  -321.808753617     A.U. after   12 cycles
 E2 =    -0.9063293809D+00 EUMP2 =    -0.32271508299786D+03
 CCSD(T)
 CCSD(T)= -0.32278505224D+03
 06\MP4SDTQ=-322.7853769\MP4SDQ=-322.7576515\CCSD=-322.7577732\CCSD(T)=
 Normal termination of Gaussian 09 at Thu Sep  1 16:57:43 2022.

 ---------------------------------------------------------
 #P Geom=AllCheck Guess=TCheck SCRF=Check MP4=FrzG4/GTBas2
 ---------------------------------------------------------

 Structure from the checkpoint file:  "G4.Frag_1038.chk"
 ---------
 Frag_1038
 ---------
 Charge =  0 Multiplicity = 1

 SCF Done:  E(RHF) =  -321.820740221     A.U. after   14 cycles
 E2 =    -0.9222361597D+00 EUMP2 =    -0.32274297638105D+03
 Normal termination of Gaussian 09 at Thu Sep  1 16:58:16 2022.

 ---------------------------------------------------------
 #P Geom=AllCheck Guess=TCheck SCRF=Check MP4=FrzG4/GTBas3
 ---------------------------------------------------------

 Structure from the checkpoint file:  "G4.Frag_1038.chk"
 ---------
 Frag_1038
 ---------
 Charge =  0 Multiplicity = 1

 SCF Done:  E(RHF) =  -321.857279650     A.U. after   11 cycles
 E2 =    -0.1115294474D+01 EUMP2 =    -0.32297257412451D+03
 Normal termination of Gaussian 09 at Thu Sep  1 17:01:33 2022.

 -----------------------------------------------------------
 #P Geom=AllCheck Guess=TCheck SCRF=Check MP2=Full/GTLargeXP
 -----------------------------------------------------------

 Structure from the checkpoint file:  "G4.Frag_1038.chk"
 ---------
 Frag_1038
 ---------
 Charge =  0 Multiplicity = 1

 SCF Done:  E(RHF) =  -321.945811687     A.U. after   12 cycles
 E2 =    -0.1460000893D+01 EUMP2 =    -0.32340581258089D+03
 Normal termination of Gaussian 09 at Thu Sep  1 17:03:14 2022.
 SCF Done:  E(RHF) =  -321.972137540     A.U. after    9 cycles
 Normal termination of Gaussian 09 at Thu Sep  1 17:04:57 2022.

                         Standard orientation:
 ---------------------------------------------------------------------
 Center     Atomic      Atomic             Coordinates (Angstroms)
 Number     Number       Type             X           Y           Z
 ---------------------------------------------------------------------
      1          6           0        1.572147   -1.132018    0.019756
      2          6           0        0.662475    0.058755    0.000814
      3          7           0        1.298739    1.319051    0.085624
      4          6           0       -0.669718   -0.046346   -0.013763
      5          8           0       -1.345591   -1.237450   -0.106826
      6          8           0       -1.474784    1.068937    0.087717
      7          1           0        2.226554   -1.103811    0.899192
      8          1           0        2.225084   -1.142813   -0.864070
      9          1           0        0.999772   -2.059414    0.027415
     10          1           0        0.640979    2.073949   -0.069134
     11          1           0        2.069428    1.399860   -0.569512
     12          1           0       -1.913061   -1.325745    0.670924
     13          1           0       -2.166355    0.990381   -0.582156
 ---------------------------------------------------------------------

 SCF Done:  E(RHF) =  -321.977792872     A.U. after    8 cycles

 The electronic state is 1-A.
 Alpha  occ. eigenvalues --  -20.58432 -20.58420 -15.54737 -11.31941 -11.25335
 Alpha  occ. eigenvalues --  -11.21767  -1.43371  -1.35601  -1.19804  -1.01337
 Alpha  occ. eigenvalues --   -0.92528  -0.76802  -0.75149  -0.69344  -0.64284
 Alpha  occ. eigenvalues --   -0.63441  -0.62343  -0.56457  -0.54884  -0.53320
 Alpha  occ. eigenvalues --   -0.51703  -0.50547  -0.45593  -0.29840
 Alpha virt. eigenvalues --    0.03615   0.04359   0.04964   0.05731   0.06672
 Alpha virt. eigenvalues --    0.07303   0.07828   0.08926   0.09709   0.10242
 Alpha virt. eigenvalues --    0.13252   0.13375   0.13617   0.14050   0.14208

 Mulliken charges:
               1
     1  C   -0.525006
     2  C    0.191335
     3  N   -0.740575
     4  C    0.300602
     5  O   -0.573601
     6  O   -0.583083
     7  H    0.187747
     8  H    0.160495
     9  H    0.197348
    10  H    0.323421
    11  H    0.295973
    12  H    0.381285
    13  H    0.384060
 Sum of Mulliken charges =  -0.00000

 Dipole moment (field-independent basis, Debye):
    X=             -0.8518    Y=             -0.1192    Z=             -0.9427  Tot=              1.2761
 Quadrupole moment (field-independent basis, Debye-Ang):
   XX=            -30.3071   YY=            -36.9903   ZZ=            -36.7135
   XY=             -0.0786   XZ=             -2.5909   YZ=             -5.5084

 Normal termination of Gaussian 09 at Thu Sep  1 17:11:30 2022.
