 Gaussian 09, Revision E.01,
 Gaussian 09:  ES64L-G09RevE.01 30-Nov-2015

 -----
 #P G4
 -----

 --------
 Frag_695
 --------
 Symbolic Z-matrix:
 Charge =  0 Multiplicity = 1

 SCF Done:  E(RB3LYP) =  -303.821320056     A.U. after   13 cycles
 SCF Done:  E(RB3LYP) =  -303.841852190     A.U. after   12 cycles
 SCF Done:  E(RB3LYP) =  -303.847075336     A.U. after   12 cycles
 SCF Done:  E(RB3LYP) =  -303.851625161     A.U. after   12 cycles
 SCF Done:  E(RB3LYP) =  -303.854920046     A.U. after   12 cycles
 SCF Done:  E(RB3LYP) =  -303.859906599     A.U. after   13 cycles
 SCF Done:  E(RB3LYP) =  -303.862017527     A.U. after   12 cycles
 SCF Done:  E(RB3LYP) =  -303.863229656     A.U. after   11 cycles
 SCF Done:  E(RB3LYP) =  -303.863899464     A.U. after   11 cycles
 SCF Done:  E(RB3LYP) =  -303.864134249     A.U. after   10 cycles
 SCF Done:  E(RB3LYP) =  -303.864271186     A.U. after    7 cycles
 SCF Done:  E(RB3LYP) =  -303.864271835     A.U. after    7 cycles
 SCF Done:  E(RB3LYP) =  -303.864271945     A.U. after    6 cycles
 Optimization completed.
    -- Stationary point found.
 Normal termination of Gaussian 09 at Thu Aug 25 13:29:12 2022.

 ----------------------------------------------------------
 #P Geom=AllCheck Guess=TCheck SCRF=Check B3LYP/GTBas3 Freq
 ----------------------------------------------------------

 Structure from the checkpoint file:  "G4.Frag_695.chk"
 --------
 Frag_695
 --------
 Charge =  0 Multiplicity = 1

 SCF Done:  E(RB3LYP) =  -303.864271945     A.U. after    1 cycles

  Exact polarizability:  70.431  -0.488  54.086  -1.680   0.048  36.074
 Approx polarizability: 105.199  -7.204  75.268  -2.257  -0.366  54.279

                      1                      2                      3
                      A                      A                      A
 Frequencies --    146.5455               161.3052               242.4693
 Red. masses --      1.0901                 1.7973                 1.3050
 Frc consts  --      0.0138                 0.0276                 0.0452
 IR Inten    --      1.3007                 1.2436                35.5689

                      4                      5                      6
                      A                      A                      A
 Frequencies --    261.4639               283.6842               336.9539
 Red. masses --      1.3276                 2.5140                 3.1811
 Frc consts  --      0.0535                 0.1192                 0.2128
 IR Inten    --      8.9037                 8.4294                10.8455

                      7                      8                      9
                      A                      A                      A
 Frequencies --    388.2785               472.3325               557.5584
 Red. masses --      2.8858                 2.5053                 3.8385
 Frc consts  --      0.2563                 0.3293                 0.7031
 IR Inten    --     11.0927                34.2704                 3.2024

                     10                     11                     12
                      A                      A                      A
 Frequencies --    583.2170               688.7165               739.9573
 Red. masses --      3.7074                 1.1090                 4.1227
 Frc consts  --      0.7430                 0.3099                 1.3300
 IR Inten    --      8.6124                82.6451                16.4835

                     13                     14                     15
                      A                      A                      A
 Frequencies --    806.0203               864.9346               978.8726
 Red. masses --      1.3565                 1.5323                 1.9017
 Frc consts  --      0.5193                 0.6754                 1.0736
 IR Inten    --    193.4078               123.0349                35.0286

                     16                     17                     18
                      A                      A                      A
 Frequencies --   1058.3556              1063.4573              1181.3650
 Red. masses --      1.5415                 1.6575                 1.4134
 Frc consts  --      1.0173                 1.1044                 1.1622
 IR Inten    --      1.9295                 9.5280                19.4727

                     19                     20                     21
                      A                      A                      A
 Frequencies --   1201.4063              1252.7512              1328.8889
 Red. masses --      1.5623                 3.7855                 2.8313
 Frc consts  --      1.3286                 3.5003                 2.9459
 IR Inten    --      4.0961               207.3742                51.4390

                     22                     23                     24
                      A                      A                      A
 Frequencies --   1389.0949              1430.4443              1473.4462
 Red. masses --      1.2768                 1.7039                 1.0486
 Frc consts  --      1.4516                 2.0542                 1.3413
 IR Inten    --     64.5426                11.5502                 3.5878

                     25                     26                     27
                      A                      A                      A
 Frequencies --   1490.5929              1636.8858              1639.5958
 Red. masses --      1.0596                 1.1597                 1.1180
 Frc consts  --      1.3871                 1.8308                 1.7709
 IR Inten    --      3.2046                24.5657                10.8833

                     28                     29                     30
                      A                      A                      A
 Frequencies --   1783.3746              3027.6143              3078.1186
 Red. masses --      4.9839                 1.0389                 1.0982
 Frc consts  --      9.3390                 5.6109                 6.1306
 IR Inten    --     10.5532                32.7658                17.0282

                     31                     32                     33
                      A                      A                      A
 Frequencies --   3123.5061              3461.9924              3471.6719
 Red. masses --      1.0985                 1.0549                 1.0491
 Frc consts  --      6.3144                 7.4491                 7.4498
 IR Inten    --     21.8528                 5.9150                 0.3946

                     34                     35                     36
                      A                      A                      A
 Frequencies --   3542.7360              3596.7552              3657.3831
 Red. masses --      1.0913                 1.0861                 1.0633
 Frc consts  --      8.0700                 8.2785                 8.3799
 IR Inten    --      4.1182                 1.6023                59.0916

 - Thermochemistry -
 -------------------
 Temperature   298.150 Kelvin.  Pressure   1.00000 Atm.
 Atom     1 has atomic number  6 and mass  12.00000

 Molecular mass:    88.06366 amu.
 Principal axes and moments of inertia in atomic units:
                           1         2         3
     Eigenvalues --   371.39275 555.77126 899.61360
           X            0.99395   0.10959  -0.00685
           Y           -0.10956   0.99397   0.00370
           Z            0.00721  -0.00293   0.99997
 This molecule is an asymmetric top.
 Rotational symmetry number  1.
 Rotational temperatures (Kelvin)      0.23321     0.15584     0.09628
 Rotational constants (GHZ):           4.85939     3.24727     2.00613
 Zero-point vibrational energy     313432.0 (Joules/Mol)
                                   74.91206 (Kcal/Mol)
 Warning -- explicit consideration of  10 degrees of freedom as
           vibrations may cause significant error
 Vibrational temperatures:    210.85   232.08   348.86   376.19   408.16
          (Kelvin)            484.80   558.65   679.58   802.20   839.12
                              990.91  1064.63  1159.68  1244.45  1408.38
                             1522.74  1530.08  1699.72  1728.55  1802.43
                             1911.97  1998.60  2058.09  2119.96  2144.63
                             2355.11  2359.01  2565.88  4356.06  4428.72
                             4494.02  4981.03  4994.96  5097.20  5174.92
                             5262.15

 Zero-point correction=                           0.119380 (Hartree/Particle)
 Thermal correction to Energy=                    0.126733
 Thermal correction to Enthalpy=                  0.127677
 Thermal correction to Gibbs Free Energy=         0.088885
 Sum of electronic and zero-point Energies=           -303.744892
 Sum of electronic and thermal Energies=              -303.737539
 Sum of electronic and thermal Enthalpies=            -303.736595
 Sum of electronic and thermal Free Energies=         -303.775387

                     E (Thermal)             CV                S
                      KCal/Mol        Cal/Mol-Kelvin    Cal/Mol-Kelvin
 Total                   79.526             26.620             81.644
 Electronic               0.000              0.000              0.000
 Translational            0.889              2.981             39.339
 Rotational               0.889              2.981             26.721
 Vibrational             77.748             20.658             15.584
 Vibration     1          0.617              1.906              2.717
 Vibration     2          0.622              1.890              2.534
 Vibration     3          0.659              1.775              1.785
 Vibration     4          0.669              1.743              1.652
 Vibration     5          0.682              1.704              1.511
 Vibration     6          0.718              1.602              1.227
 Vibration     7          0.756              1.495              1.007
 Vibration     8          0.829              1.311              0.731
 Vibration     9          0.913              1.123              0.529
 Vibration    10          0.940              1.068              0.479

 Optimization completed.
    -- Stationary point found.
 Normal termination of Gaussian 09 at Thu Aug 25 13:31:28 2022.

 -----------------------------------------------------------------
 #P Geom=AllCheck Guess=TCheck SCRF=Check CCSD(T,E4T,FrzG4)/GTBas1
 -----------------------------------------------------------------

 Structure from the checkpoint file:  "G4.Frag_695.chk"
 --------
 Frag_695
 --------
 Charge =  0 Multiplicity = 1

 SCF Done:  E(RHF) =  -301.980980677     A.U. after   13 cycles
 E2 =    -0.8949808288D+00 EUMP2 =    -0.30287596150572D+03
 CCSD(T)
 CCSD(T)= -0.30295138188D+03
 DQ=-302.9229668\CCSD=-302.9233054\CCSD(T)=-302.9513819\RMSD=3.345e-09\
 Normal termination of Gaussian 09 at Thu Aug 25 13:37:39 2022.

 ---------------------------------------------------------
 #P Geom=AllCheck Guess=TCheck SCRF=Check MP4=FrzG4/GTBas2
 ---------------------------------------------------------

 Structure from the checkpoint file:  "G4.Frag_695.chk"
 --------
 Frag_695
 --------
 Charge =  0 Multiplicity = 1

 SCF Done:  E(RHF) =  -301.992260434     A.U. after   13 cycles
 E2 =    -0.9099463645D+00 EUMP2 =    -0.30290220679819D+03
 Normal termination of Gaussian 09 at Thu Aug 25 13:43:43 2022.

 ---------------------------------------------------------
 #P Geom=AllCheck Guess=TCheck SCRF=Check MP4=FrzG4/GTBas3
 ---------------------------------------------------------

 Structure from the checkpoint file:  "G4.Frag_695.chk"
 --------
 Frag_695
 --------
 Charge =  0 Multiplicity = 1

 SCF Done:  E(RHF) =  -302.026570379     A.U. after   11 cycles
 E2 =    -0.1096984214D+01 EUMP2 =    -0.30312355459341D+03
 Normal termination of Gaussian 09 at Thu Aug 25 16:13:54 2022.

 -----------------------------------------------------------
 #P Geom=AllCheck Guess=TCheck SCRF=Check MP2=Full/GTLargeXP
 -----------------------------------------------------------

 Structure from the checkpoint file:  "G4.Frag_695.chk"
 --------
 Frag_695
 --------
 Charge =  0 Multiplicity = 1

 SCF Done:  E(RHF) =  -302.107162494     A.U. after   12 cycles
 E2 =    -0.1435855244D+01 EUMP2 =    -0.30354301773758D+03
 Normal termination of Gaussian 09 at Thu Aug 25 16:19:30 2022.
 SCF Done:  E(RHF) =  -302.131355794     A.U. after    9 cycles
 Normal termination of Gaussian 09 at Thu Aug 25 16:25:10 2022.

                         Standard orientation:
 ---------------------------------------------------------------------
 Center     Atomic      Atomic             Coordinates (Angstroms)
 Number     Number       Type             X           Y           Z
 ---------------------------------------------------------------------
      1          6           0        1.757295    0.910724    0.062489
      2          6           0        0.668487   -0.112019    0.010779
      3          8           0        1.155774   -1.388654   -0.061986
      4          6           0       -0.656423    0.115433    0.012103
      5          7           0       -1.299175    1.375241   -0.129782
      6          7           0       -1.516139   -1.033709    0.021267
      7          1           0        2.279177    0.989701   -0.898963
      8          1           0        1.378566    1.898678    0.332939
      9          1           0        2.504621    0.615382    0.807378
     10          1           0        0.363836   -1.946142   -0.150963
     11          1           0       -1.818134    1.646666    0.702383
     12          1           0       -0.652043    2.119160   -0.358712
     13          1           0       -1.926268   -1.194459    0.938093
     14          1           0       -2.284901   -0.895303   -0.628892
 ---------------------------------------------------------------------

 SCF Done:  E(RHF) =  -302.136520961     A.U. after    8 cycles

 The electronic state is 1-A.
 Alpha  occ. eigenvalues --  -20.55720 -15.55738 -15.55667 -11.27636 -11.27041
 Alpha  occ. eigenvalues --  -11.22393  -1.37930  -1.23254  -1.14331  -1.02064
 Alpha  occ. eigenvalues --   -0.91095  -0.75972  -0.71339  -0.68173  -0.65350
 Alpha  occ. eigenvalues --   -0.62684  -0.59145  -0.56758  -0.54727  -0.52826
 Alpha  occ. eigenvalues --   -0.51997  -0.45345  -0.43738  -0.29686
 Alpha virt. eigenvalues --    0.03459   0.04168   0.05365   0.05745   0.06572
 Alpha virt. eigenvalues --    0.07280   0.07653   0.08838   0.09484   0.10076
 Alpha virt. eigenvalues --    0.11003   0.11490   0.13089   0.13669   0.14056

 Mulliken charges:
               1
     1  C   -0.508972
     2  C    0.250283
     3  O   -0.586098
     4  C    0.157103
     5  N   -0.720103
     6  N   -0.761113
     7  H    0.183442
     8  H    0.159946
     9  H    0.194463
    10  H    0.410225
    11  H    0.294913
    12  H    0.304105
    13  H    0.302759
    14  H    0.319046
 Sum of Mulliken charges =  -0.00000

 Dipole moment (field-independent basis, Debye):
    X=             -1.6246    Y=              1.6462    Z=              1.1791  Tot=              2.5961
 Quadrupole moment (field-independent basis, Debye-Ang):
   XX=            -36.0074   YY=            -35.5792   ZZ=            -37.0854
   XY=              4.4593   XZ=             -2.8138   YZ=              0.7338

 Normal termination of Gaussian 09 at Thu Aug 25 18:59:42 2022.
