 Gaussian 09, Revision E.01,
 Gaussian 09:  ES64L-G09RevE.01 30-Nov-2015

 -----
 #P G4
 -----

 ---------
 Frag_1117
 ---------
 Symbolic Z-matrix:
 Charge =  0 Multiplicity = 1

 SCF Done:  E(RB3LYP) =  -300.327680106     A.U. after   16 cycles
 SCF Done:  E(RB3LYP) =  -300.337914614     A.U. after   14 cycles
 SCF Done:  E(RB3LYP) =  -300.341638309     A.U. after   14 cycles
 SCF Done:  E(RB3LYP) =  -300.341085996     A.U. after   15 cycles
 SCF Done:  E(RB3LYP) =  -300.341996025     A.U. after   11 cycles
 SCF Done:  E(RB3LYP) =  -300.342280514     A.U. after   13 cycles
 SCF Done:  E(RB3LYP) =  -300.342428992     A.U. after   13 cycles
 SCF Done:  E(RB3LYP) =  -300.342565832     A.U. after   14 cycles
 SCF Done:  E(RB3LYP) =  -300.342633267     A.U. after   12 cycles
 SCF Done:  E(RB3LYP) =  -300.342698767     A.U. after   12 cycles
 SCF Done:  E(RB3LYP) =  -300.343559555     A.U. after   11 cycles
 SCF Done:  E(RB3LYP) =  -300.343561532     A.U. after   11 cycles
 SCF Done:  E(RB3LYP) =  -300.343561719     A.U. after    7 cycles
 Optimization completed.
    -- Stationary point found.
 Normal termination of Gaussian 09 at Fri Aug 26 10:32:39 2022.

 ----------------------------------------------------------
 #P Geom=AllCheck Guess=TCheck SCRF=Check B3LYP/GTBas3 Freq
 ----------------------------------------------------------

 Structure from the checkpoint file:  "G4.Frag_1117.chk"
 ---------
 Frag_1117
 ---------
 Charge =  0 Multiplicity = 1

 SCF Done:  E(RB3LYP) =  -300.343561719     A.U. after    1 cycles

  Exact polarizability:  46.965   1.022  35.105   1.414  -0.559  24.677
 Approx polarizability:  84.970  -0.130  47.945   3.381  -0.216  36.827

                      1                      2                      3
                      A                      A                      A
 Frequencies --    112.8141               182.5466               215.9986
 Red. masses --      1.1267                 3.2516                 1.2314
 Frc consts  --      0.0084                 0.0638                 0.0338
 IR Inten    --      0.2719                 1.1216                91.9228

                      4                      5                      6
                      A                      A                      A
 Frequencies --    349.0455               352.6189               441.9131
 Red. masses --      4.1678                 5.1561                 5.3371
 Frc consts  --      0.2992                 0.3777                 0.6141
 IR Inten    --     10.9340                 3.2102                 7.9706

                      7                      8                      9
                      A                      A                      A
 Frequencies --    681.9833               824.8476              1010.6717
 Red. masses --      7.4945                 5.2125                 2.4658
 Frc consts  --      2.0537                 2.0895                 1.4840
 IR Inten    --      6.7029                29.0657                69.1351

                     10                     11                     12
                      A                      A                      A
 Frequencies --   1134.7346              1215.3413              1268.6050
 Red. masses --      1.2878                 6.0300                 2.7771
 Frc consts  --      0.9770                 5.2477                 2.6333
 IR Inten    --      2.6847               197.8242                 8.0496

                     13                     14                     15
                      A                      A                      A
 Frequencies --   1406.9006              1436.1487              1482.8801
 Red. masses --      1.1722                 1.2434                 1.0487
 Frc consts  --      1.3670                 1.5110                 1.3587
 IR Inten    --      2.6289                25.8119                 9.0401

                     16                     17                     18
                      A                      A                      A
 Frequencies --   1499.9902              1584.3231              3047.5494
 Red. masses --      1.0647                12.6015                 1.0332
 Frc consts  --      1.4114                18.6364                 5.6537
 IR Inten    --      7.2093               137.9490                21.7290

                     19                     20                     21
                      A                      A                      A
 Frequencies --   3117.3550              3168.2577              3754.7612
 Red. masses --      1.1046                 1.1003                 1.0682
 Frc consts  --      6.3246                 6.5074                 8.8727
 IR Inten    --     14.5181                 0.3780                47.6401

 - Thermochemistry -
 -------------------
 Temperature   298.150 Kelvin.  Pressure   1.00000 Atm.
 Atom     1 has atomic number  6 and mass  12.00000

 Molecular mass:    76.02728 amu.
 Principal axes and moments of inertia in atomic units:
                           1         2         3
     Eigenvalues --   192.62026 388.23904 561.53436
           X            0.99988   0.01114   0.01093
           Y           -0.01094   0.99977  -0.01823
           Z           -0.01114   0.01811   0.99977
 This molecule is an asymmetric top.
 Rotational symmetry number  1.
 Rotational temperatures (Kelvin)      0.44966     0.22309     0.15424
 Rotational constants (GHZ):           9.36943     4.64853     3.21395
 Zero-point vibrational energy     169207.5 (Joules/Mol)
                                   40.44156 (Kcal/Mol)
 Warning -- explicit consideration of   6 degrees of freedom as
           vibrations may cause significant error
 Vibrational temperatures:    162.31   262.64   310.77   502.20   507.34
          (Kelvin)            635.81   981.22  1186.77  1454.13  1632.63
                             1748.60  1825.24  2024.21  2066.30  2133.53
                             2158.15  2279.48  4384.74  4485.17  4558.41
                             5402.26

 Zero-point correction=                           0.064448 (Hartree/Particle)
 Thermal correction to Energy=                    0.070411
 Thermal correction to Enthalpy=                  0.071356
 Thermal correction to Gibbs Free Energy=         0.035435
 Sum of electronic and zero-point Energies=           -300.279114
 Sum of electronic and thermal Energies=              -300.273150
 Sum of electronic and thermal Enthalpies=            -300.272206
 Sum of electronic and thermal Free Energies=         -300.308126

                     E (Thermal)             CV                S
                      KCal/Mol        Cal/Mol-Kelvin    Cal/Mol-Kelvin
 Total                   44.184             18.965             75.600
 Electronic               0.000              0.000              0.000
 Translational            0.889              2.981             38.901
 Rotational               0.889              2.981             25.244
 Vibrational             42.406             13.003             11.455
 Vibration     1          0.607              1.939              3.220
 Vibration     2          0.630              1.864              2.302
 Vibration     3          0.645              1.817              1.992
 Vibration     4          0.726              1.577              1.170
 Vibration     5          0.729              1.570              1.154
 Vibration     6          0.802              1.379              0.821

 Optimization completed.
    -- Stationary point found.
 Normal termination of Gaussian 09 at Fri Aug 26 10:32:56 2022.

 -----------------------------------------------------------------
 #P Geom=AllCheck Guess=TCheck SCRF=Check CCSD(T,E4T,FrzG4)/GTBas1
 -----------------------------------------------------------------

 Structure from the checkpoint file:  "G4.Frag_1117.chk"
 ---------
 Frag_1117
 ---------
 Charge =  0 Multiplicity = 1

 SCF Done:  E(RHF) =  -298.647649466     A.U. after   16 cycles
 E2 =    -0.8217304462D+00 EUMP2 =    -0.29946937991194D+03
 CCSD(T)
 CCSD(T)= -0.29952232560D+03
 45579\CCSD=-299.4926096\CCSD(T)=-299.5223256\RMSD=4.310e-09\PG=C01 [X(
 Normal termination of Gaussian 09 at Fri Aug 26 10:34:00 2022.

 ---------------------------------------------------------
 #P Geom=AllCheck Guess=TCheck SCRF=Check MP4=FrzG4/GTBas2
 ---------------------------------------------------------

 Structure from the checkpoint file:  "G4.Frag_1117.chk"
 ---------
 Frag_1117
 ---------
 Charge =  0 Multiplicity = 1

 SCF Done:  E(RHF) =  -298.657728032     A.U. after   15 cycles
 E2 =    -0.8345411486D+00 EUMP2 =    -0.29949226918025D+03
 Normal termination of Gaussian 09 at Fri Aug 26 10:34:14 2022.

 ---------------------------------------------------------
 #P Geom=AllCheck Guess=TCheck SCRF=Check MP4=FrzG4/GTBas3
 ---------------------------------------------------------

 Structure from the checkpoint file:  "G4.Frag_1117.chk"
 ---------
 Frag_1117
 ---------
 Charge =  0 Multiplicity = 1

 SCF Done:  E(RHF) =  -298.682562806     A.U. after   15 cycles
 E2 =    -0.9963598017D+00 EUMP2 =    -0.29967892260766D+03
 Normal termination of Gaussian 09 at Fri Aug 26 10:35:15 2022.

 -----------------------------------------------------------
 #P Geom=AllCheck Guess=TCheck SCRF=Check MP2=Full/GTLargeXP
 -----------------------------------------------------------

 Structure from the checkpoint file:  "G4.Frag_1117.chk"
 ---------
 Frag_1117
 ---------
 Charge =  0 Multiplicity = 1

 SCF Done:  E(RHF) =  -298.765617566     A.U. after   15 cycles
 E2 =    -0.1290775546D+01 EUMP2 =    -0.30005639311252D+03
 Normal termination of Gaussian 09 at Fri Aug 26 10:35:57 2022.
 SCF Done:  E(RHF) =  -298.790966502     A.U. after   10 cycles
 Normal termination of Gaussian 09 at Fri Aug 26 10:36:42 2022.

                         Standard orientation:
 ---------------------------------------------------------------------
 Center     Atomic      Atomic             Coordinates (Angstroms)
 Number     Number       Type             X           Y           Z
 ---------------------------------------------------------------------
      1          6           0        0.471601    1.387879   -0.014599
      2          7           0        0.335309   -0.049848    0.145044
      3          8           0        1.470986   -0.791191   -0.146352
      4          7           0       -0.803766   -0.738342   -0.032648
      5          8           0       -1.817423   -0.062847   -0.007643
      6          1           0       -0.538726    1.796894   -0.009943
      7          1           0        1.052571    1.806040    0.811128
      8          1           0        0.971842    1.608581   -0.962556
      9          1           0        1.735412   -1.189157    0.694147
 ---------------------------------------------------------------------

 SCF Done:  E(RHF) =  -298.796135535     A.U. after    8 cycles

 The electronic state is 1-A.
 Alpha  occ. eigenvalues --  -20.63426 -20.59371 -15.73921 -15.68315 -11.28115
 Alpha  occ. eigenvalues --   -1.53529  -1.45261  -1.20434  -1.03003  -0.84485
 Alpha  occ. eigenvalues --   -0.76722  -0.72744  -0.70804  -0.62561  -0.60160
 Alpha  occ. eigenvalues --   -0.59018  -0.58051  -0.54593  -0.42809  -0.40617
 Alpha virt. eigenvalues --    0.03896   0.04799   0.05569   0.06185   0.08491
 Alpha virt. eigenvalues --    0.08789   0.09574   0.10307   0.11801   0.12154
 Alpha virt. eigenvalues --    0.14473   0.15507   0.16053   0.16587   0.17592

 Mulliken charges:
               1
     1  C   -0.448008
     2  N    0.135992
     3  O   -0.455131
     4  N    0.133235
     5  O   -0.392785
     6  H    0.242745
     7  H    0.186776
     8  H    0.197194
     9  H    0.399982
 Sum of Mulliken charges =  -0.00000

 Dipole moment (field-independent basis, Debye):
    X=              2.9506    Y=              1.2644    Z=              1.3014  Tot=              3.4639
 Quadrupole moment (field-independent basis, Debye-Ang):
   XX=            -33.1808   YY=            -26.9575   ZZ=            -27.7225
   XY=             -1.2104   XZ=              2.7791   YZ=             -2.1725

 Normal termination of Gaussian 09 at Fri Aug 26 10:40:58 2022.
