 Gaussian 09, Revision E.01,
 Gaussian 09:  ES64L-G09RevE.01 30-Nov-2015

 -----
 #P G4
 -----

 --------
 Frag_475
 --------
 Symbolic Z-matrix:
 Charge =  0 Multiplicity = 1

 SCF Done:  E(RB3LYP) =  -268.397629848     A.U. after   14 cycles
 SCF Done:  E(RB3LYP) =  -268.411446144     A.U. after   12 cycles
 SCF Done:  E(RB3LYP) =  -268.411963724     A.U. after   11 cycles
 SCF Done:  E(RB3LYP) =  -268.411454749     A.U. after   12 cycles
 SCF Done:  E(RB3LYP) =  -268.412078395     A.U. after    8 cycles
 SCF Done:  E(RB3LYP) =  -268.412133827     A.U. after   10 cycles
 SCF Done:  E(RB3LYP) =  -268.412156430     A.U. after   10 cycles
 SCF Done:  E(RB3LYP) =  -268.412217920     A.U. after   11 cycles
 SCF Done:  E(RB3LYP) =  -268.412197476     A.U. after   12 cycles
 SCF Done:  E(RB3LYP) =  -268.412253550     A.U. after   10 cycles
 SCF Done:  E(RB3LYP) =  -268.412360898     A.U. after    8 cycles
 SCF Done:  E(RB3LYP) =  -268.412361445     A.U. after    8 cycles
 SCF Done:  E(RB3LYP) =  -268.412361530     A.U. after    7 cycles
 Optimization completed.
    -- Stationary point found.
 Normal termination of Gaussian 09 at Sun Aug 21 04:56:38 2022.

 ----------------------------------------------------------
 #P Geom=AllCheck Guess=TCheck SCRF=Check B3LYP/GTBas3 Freq
 ----------------------------------------------------------

 Structure from the checkpoint file:  "G4.Frag_475.chk"
 --------
 Frag_475
 --------
 Charge =  0 Multiplicity = 1

 SCF Done:  E(RB3LYP) =  -268.412361530     A.U. after    1 cycles

  Exact polarizability:  43.337  -2.700  40.763  -1.544   1.004  32.188
 Approx polarizability:  58.090  -7.560  63.066  -4.450   3.826  46.300

                      1                      2                      3
                      A                      A                      A
 Frequencies --     44.4195               213.8205               256.1787
 Red. masses --      2.4637                 1.1837                 2.9848
 Frc consts  --      0.0029                 0.0319                 0.1154
 IR Inten    --      5.9291                 1.4668                 5.1534

                      4                      5                      6
                      A                      A                      A
 Frequencies --    440.8585               494.6949               578.1332
 Red. masses --      2.4208                 1.1895                 4.5515
 Frc consts  --      0.2772                 0.1715                 0.8963
 IR Inten    --     12.5607                84.1751                 5.6214

                      7                      8                      9
                      A                      A                      A
 Frequencies --    707.5376               804.8875               822.9474
 Red. masses --      3.1710                 1.3156                 3.6759
 Frc consts  --      0.9353                 0.5022                 1.4667
 IR Inten    --      1.3522                 0.5155                16.0205

                     10                     11                     12
                      A                      A                      A
 Frequencies --    989.8478              1057.9130              1090.1522
 Red. masses --      2.1162                 1.9024                 1.7806
 Frc consts  --      1.2216                 1.2545                 1.2468
 IR Inten    --     17.7158                16.4738                 1.4559

                     13                     14                     15
                      A                      A                      A
 Frequencies --   1205.6729              1274.2851              1315.4301
 Red. masses --      1.7500                 1.2496                 1.6747
 Frc consts  --      1.4988                 1.1955                 1.7074
 IR Inten    --      0.6055                89.2449               187.3269

                     16                     17                     18
                      A                      A                      A
 Frequencies --   1345.0786              1419.6707              1479.5979
 Red. masses --      1.7487                 1.2168                 1.0621
 Frc consts  --      1.8640                 1.4450                 1.3699
 IR Inten    --     74.0999                 1.6484                 1.3499

                     19                     20                     21
                      A                      A                      A
 Frequencies --   1498.9510              1505.4928              1876.9485
 Red. masses --      1.0631                 1.0472                10.0904
 Frc consts  --      1.4073                 1.3984                20.9443
 IR Inten    --      7.8559                11.6835               249.0273

                     22                     23                     24
                      A                      A                      A
 Frequencies --   3032.4025              3037.9569              3097.9874
 Red. masses --      1.0686                 1.0379                 1.0960
 Frc consts  --      5.7893                 5.6439                 6.1976
 IR Inten    --     12.6704                19.7941                14.2753

                     25                     26                     27
                      A                      A                      A
 Frequencies --   3122.3441              3127.0416              3804.9724
 Red. masses --      1.1000                 1.0988                 1.0656
 Frc consts  --      6.3181                 6.3302                 9.0898
 IR Inten    --     17.1373                19.6374                27.9676

 - Thermochemistry -
 -------------------
 Temperature   298.150 Kelvin.  Pressure   1.00000 Atm.
 Atom     1 has atomic number  6 and mass  12.00000

 Molecular mass:    74.03678 amu.
 Principal axes and moments of inertia in atomic units:
                           1         2         3
     Eigenvalues --   207.16452 462.61019 590.24889
           X            0.99989   0.00886   0.01196
           Y           -0.00868   0.99985  -0.01522
           Z           -0.01209   0.01512   0.99981
 This molecule is an asymmetric top.
 Rotational symmetry number  1.
 Rotational temperatures (Kelvin)      0.41809     0.18723     0.14674
 Rotational constants (GHZ):           8.71163     3.90121     3.05759
 Zero-point vibrational energy     237131.1 (Joules/Mol)
                                   56.67569 (Kcal/Mol)
 Warning -- explicit consideration of   6 degrees of freedom as
           vibrations may cause significant error
 Vibrational temperatures:     63.91   307.64   368.58   634.30   711.75
          (Kelvin)            831.80  1017.99  1158.05  1184.04  1424.17
                             1522.10  1568.48  1734.69  1833.41  1892.61
                             1935.27  2042.59  2128.81  2156.65  2166.07
                             2700.51  4362.95  4370.94  4457.31  4492.35
                             4499.11  5474.50

 Zero-point correction=                           0.090318 (Hartree/Particle)
 Thermal correction to Energy=                    0.096111
 Thermal correction to Enthalpy=                  0.097055
 Thermal correction to Gibbs Free Energy=         0.060852
 Sum of electronic and zero-point Energies=           -268.322043
 Sum of electronic and thermal Energies=              -268.316251
 Sum of electronic and thermal Enthalpies=            -268.315306
 Sum of electronic and thermal Free Energies=         -268.351510

                     E (Thermal)             CV                S
                      KCal/Mol        Cal/Mol-Kelvin    Cal/Mol-Kelvin
 Total                   60.311             19.279             76.196
 Electronic               0.000              0.000              0.000
 Translational            0.889              2.981             38.822
 Rotational               0.889              2.981             25.540
 Vibrational             58.533             13.318             11.835
 Vibration     1          0.595              1.980              5.052
 Vibration     2          0.644              1.820              2.011
 Vibration     3          0.666              1.752              1.688
 Vibration     4          0.801              1.381              0.824
 Vibration     5          0.850              1.262              0.672
 Vibration     6          0.935              1.079              0.489

 Optimization completed.
    -- Stationary point found.
 Normal termination of Gaussian 09 at Sun Aug 21 04:57:52 2022.

 -----------------------------------------------------------------
 #P Geom=AllCheck Guess=TCheck SCRF=Check CCSD(T,E4T,FrzG4)/GTBas1
 -----------------------------------------------------------------

 Structure from the checkpoint file:  "G4.Frag_475.chk"
 --------
 Frag_475
 --------
 Charge =  0 Multiplicity = 1

 SCF Done:  E(RHF) =  -266.831233189     A.U. after   13 cycles
 E2 =    -0.7408459324D+00 EUMP2 =    -0.26757207912088D+03
 CCSD(T)
 CCSD(T)= -0.26762961460D+03
 794\MP4SDQ=-267.607775\CCSD=-267.6064967\CCSD(T)=-267.6296146\RMSD=6.5
 Normal termination of Gaussian 09 at Sun Aug 21 04:59:36 2022.

 ---------------------------------------------------------
 #P Geom=AllCheck Guess=TCheck SCRF=Check MP4=FrzG4/GTBas2
 ---------------------------------------------------------

 Structure from the checkpoint file:  "G4.Frag_475.chk"
 --------
 Frag_475
 --------
 Charge =  0 Multiplicity = 1

 SCF Done:  E(RHF) =  -266.838860493     A.U. after   12 cycles
 E2 =    -0.7515091921D+00 EUMP2 =    -0.26759036968473D+03
 Normal termination of Gaussian 09 at Sun Aug 21 05:01:30 2022.

 ---------------------------------------------------------
 #P Geom=AllCheck Guess=TCheck SCRF=Check MP4=FrzG4/GTBas3
 ---------------------------------------------------------

 Structure from the checkpoint file:  "G4.Frag_475.chk"
 --------
 Frag_475
 --------
 Charge =  0 Multiplicity = 1

 SCF Done:  E(RHF) =  -266.865466829     A.U. after   11 cycles
 E2 =    -0.9154676159D+00 EUMP2 =    -0.26778093444524D+03
 Normal termination of Gaussian 09 at Sun Aug 21 05:36:44 2022.

 -----------------------------------------------------------
 #P Geom=AllCheck Guess=TCheck SCRF=Check MP2=Full/GTLargeXP
 -----------------------------------------------------------

 Structure from the checkpoint file:  "G4.Frag_475.chk"
 --------
 Frag_475
 --------
 Charge =  0 Multiplicity = 1

 SCF Done:  E(RHF) =  -266.936988741     A.U. after   12 cycles
 E2 =    -0.1199236265D+01 EUMP2 =    -0.26813622500691D+03
 Normal termination of Gaussian 09 at Sun Aug 21 05:38:59 2022.
 SCF Done:  E(RHF) =  -266.958790481     A.U. after    9 cycles
 Normal termination of Gaussian 09 at Sun Aug 21 05:41:53 2022.

                         Standard orientation:
 ---------------------------------------------------------------------
 Center     Atomic      Atomic             Coordinates (Angstroms)
 Number     Number       Type             X           Y           Z
 ---------------------------------------------------------------------
      1          6           0       -1.857260    0.065284   -0.355408
      2          6           0       -0.731328   -0.497050    0.527985
      3          6           0        0.663685   -0.111911    0.054055
      4          8           0        1.507926   -0.891291   -0.285682
      5          8           0        0.925447    1.223736    0.028211
      6          1           0       -2.830492   -0.272299    0.010523
      7          1           0       -1.874628    1.160773   -0.362693
      8          1           0       -1.748162   -0.270774   -1.390427
      9          1           0       -0.857890   -0.148434    1.561339
     10          1           0       -0.765347   -1.587666    0.544174
     11          1           0        0.158955    1.720893    0.337056
 ---------------------------------------------------------------------

 SCF Done:  E(RHF) =  -266.963436055     A.U. after    8 cycles

 The electronic state is 1-A.
 Alpha  occ. eigenvalues --  -20.60969 -20.54192 -11.38316 -11.26117 -11.25036
 Alpha  occ. eigenvalues --   -1.45810  -1.36334  -1.07377  -0.91332  -0.82485
 Alpha  occ. eigenvalues --   -0.72023  -0.67515  -0.64724  -0.61790  -0.58724
 Alpha  occ. eigenvalues --   -0.56337  -0.53838  -0.52309  -0.47913  -0.44532
 Alpha virt. eigenvalues --    0.03022   0.03913   0.04496   0.05396   0.07297
 Alpha virt. eigenvalues --    0.07396   0.07625   0.07799   0.08465   0.10520
 Alpha virt. eigenvalues --    0.13282   0.13987   0.15507   0.15638   0.15984

 Mulliken charges:
               1
     1  C   -0.501676
     2  C   -0.336181
     3  C    0.540294
     4  O   -0.520544
     5  O   -0.501925
     6  H    0.179765
     7  H    0.150519
     8  H    0.185253
     9  H    0.203311
    10  H    0.222125
    11  H    0.379059
 Sum of Mulliken charges =  -0.00000

 Dipole moment (field-independent basis, Debye):
    X=             -4.4981    Y=              1.5402    Z=              1.4659  Tot=              4.9753
 Quadrupole moment (field-independent basis, Debye-Ang):
   XX=            -35.5135   YY=            -30.2345   ZZ=            -29.5632
   XY=              1.0993   XZ=              1.0781   YZ=              0.3403

 Normal termination of Gaussian 09 at Sun Aug 21 07:02:05 2022.
