 Gaussian 09, Revision E.01,
 Gaussian 09:  ES64L-G09RevE.01 30-Nov-2015

 -----
 #P G4
 -----

 --------
 Frag_688
 --------
 Symbolic Z-matrix:
 Charge =  0 Multiplicity = 1

 SCF Done:  E(RB3LYP) =  -227.397320048     A.U. after   14 cycles
 SCF Done:  E(RB3LYP) =  -227.412750857     A.U. after   12 cycles
 SCF Done:  E(RB3LYP) =  -227.413629876     A.U. after   11 cycles
 SCF Done:  E(RB3LYP) =  -227.413837497     A.U. after   10 cycles
 SCF Done:  E(RB3LYP) =  -227.414172014     A.U. after   12 cycles
 SCF Done:  E(RB3LYP) =  -227.414382858     A.U. after   10 cycles
 SCF Done:  E(RB3LYP) =  -227.414574609     A.U. after   11 cycles
 SCF Done:  E(RB3LYP) =  -227.414588970     A.U. after   10 cycles
 SCF Done:  E(RB3LYP) =  -227.414594591     A.U. after    9 cycles
 SCF Done:  E(RB3LYP) =  -227.414595065     A.U. after    7 cycles
 Optimization completed.
    -- Stationary point found.
 Normal termination of Gaussian 09 at Fri Aug 26 09:49:15 2022.

 ----------------------------------------------------------
 #P Geom=AllCheck Guess=TCheck SCRF=Check B3LYP/GTBas3 Freq
 ----------------------------------------------------------

 Structure from the checkpoint file:  "G4.Frag_688.chk"
 --------
 Frag_688
 --------
 Charge =  0 Multiplicity = 1

 SCF Done:  E(RB3LYP) =  -227.414595065     A.U. after    2 cycles

  Exact polarizability:  55.106   0.863  51.748   0.003   0.003  27.571
 Approx polarizability:  79.222   2.343  82.636   0.011   0.004  41.812

                      1                      2                      3
                      A                      A                      A
 Frequencies --    112.3294               143.0421               285.6271
 Red. masses --      2.2122                 1.0644                 3.5728
 Frc consts  --      0.0164                 0.0128                 0.1717
 IR Inten    --      1.3096                 0.4920                 4.8969

                      4                      5                      6
                      A                      A                      A
 Frequencies --    416.1993               469.3737               612.9452
 Red. masses --      2.9867                 2.2713                 3.2442
 Frc consts  --      0.3048                 0.2948                 0.7181
 IR Inten    --      3.9221                 5.2187                21.5893

                      7                      8                      9
                      A                      A                      A
 Frequencies --    785.1155               844.8208               938.3964
 Red. masses --      1.3279                 3.3386                 1.4960
 Frc consts  --      0.4823                 1.4039                 0.7762
 IR Inten    --      2.3699                12.6864                53.4317

                     10                     11                     12
                      A                      A                      A
 Frequencies --    979.5267              1077.9038              1091.9505
 Red. masses --      2.0455                 1.6618                 1.4783
 Frc consts  --      1.1563                 1.1376                 1.0385
 IR Inten    --      4.5199                14.0655                42.0370

                     13                     14                     15
                      A                      A                      A
 Frequencies --   1174.5173              1245.0639              1346.0856
 Red. masses --      1.0762                 1.2262                 1.6820
 Frc consts  --      0.8747                 1.1199                 1.7957
 IR Inten    --     40.6759                65.6925               120.3465

                     16                     17                     18
                      A                      A                      A
 Frequencies --   1402.6637              1439.3924              1470.1507
 Red. masses --      1.3257                 1.2808                 1.0453
 Frc consts  --      1.5368                 1.5634                 1.3312
 IR Inten    --     29.1425                14.5215                 6.6446

                     19                     20                     21
                      A                      A                      A
 Frequencies --   1478.8805              1690.7368              1742.6247
 Red. masses --      1.0761                 8.9303                 8.2495
 Frc consts  --      1.3867                15.0408                14.7600
 IR Inten    --     21.3066                26.1983                11.1911

                     22                     23                     24
                      A                      A                      A
 Frequencies --   3028.2866              3085.8431              3086.9291
 Red. masses --      1.0370                 1.0984                 1.0880
 Frc consts  --      5.6029                 6.1625                 6.1083
 IR Inten    --      3.8182                 8.2128                35.1780

                     25                     26                     27
                      A                      A                      A
 Frequencies --   3126.3469              3379.1420              3455.4463
 Red. masses --      1.1018                 1.0717                 1.0750
 Frc consts  --      6.3448                 7.2101                 7.5627
 IR Inten    --     14.6588                 2.5864                 0.0530

 - Thermochemistry -
 -------------------
 Temperature   298.150 Kelvin.  Pressure   1.00000 Atm.
 Atom     1 has atomic number  6 and mass  12.00000

 Molecular mass:    70.05310 amu.
 Principal axes and moments of inertia in atomic units:
                           1         2         3
     Eigenvalues --   182.39699 444.90985 616.18331
           X            0.99931   0.03715  -0.00001
           Y           -0.03715   0.99931   0.00004
           Z            0.00001  -0.00004   1.00000
 This molecule is an asymmetric top.
 Rotational symmetry number  1.
 Rotational temperatures (Kelvin)      0.47486     0.19468     0.14057
 Rotational constants (GHZ):           9.89458     4.05642     2.92890
 Zero-point vibrational energy     238710.9 (Joules/Mol)
                                   57.05327 (Kcal/Mol)
 Warning -- explicit consideration of   6 degrees of freedom as
           vibrations may cause significant error
 Vibrational temperatures:    161.62   205.81   410.95   598.82   675.32
          (Kelvin)            881.89  1129.60  1215.51  1350.14  1409.32
                             1550.86  1571.07  1689.87  1791.37  1936.71
                             2018.12  2070.96  2115.22  2127.78  2432.59
                             2507.25  4357.02  4439.83  4441.40  4498.11
                             4861.83  4971.61

 Zero-point correction=                           0.090920 (Hartree/Particle)
 Thermal correction to Energy=                    0.096612
 Thermal correction to Enthalpy=                  0.097556
 Thermal correction to Gibbs Free Energy=         0.062132
 Sum of electronic and zero-point Energies=           -227.323675
 Sum of electronic and thermal Energies=              -227.317983
 Sum of electronic and thermal Enthalpies=            -227.317039
 Sum of electronic and thermal Free Energies=         -227.352463

                     E (Thermal)             CV                S
                      KCal/Mol        Cal/Mol-Kelvin    Cal/Mol-Kelvin
 Total                   60.625             18.918             74.556
 Electronic               0.000              0.000              0.000
 Translational            0.889              2.981             38.657
 Rotational               0.889              2.981             25.417
 Vibrational             58.847             12.956             10.482
 Vibration     1          0.607              1.939              3.228
 Vibration     2          0.616              1.910              2.763
 Vibration     3          0.683              1.700              1.500
 Vibration     4          0.779              1.435              0.905
 Vibration     5          0.826              1.318              0.739
 Vibration     6          0.972              1.004              0.428

 Optimization completed.
    -- Stationary point found.
 Normal termination of Gaussian 09 at Fri Aug 26 09:49:35 2022.

 -----------------------------------------------------------------
 #P Geom=AllCheck Guess=TCheck SCRF=Check CCSD(T,E4T,FrzG4)/GTBas1
 -----------------------------------------------------------------

 Structure from the checkpoint file:  "G4.Frag_688.chk"
 --------
 Frag_688
 --------
 Charge =  0 Multiplicity = 1

 SCF Done:  E(RHF) =  -225.956315529     A.U. after   13 cycles
 E2 =    -0.7036257734D+00 EUMP2 =    -0.22665994130274D+03
 CCSD(T)
 CCSD(T)= -0.22672852375D+03
 316\MP4SDQ=-226.7013168\CCSD=-226.7015653\CCSD(T)=-226.7285238\RMSD=2.
 Normal termination of Gaussian 09 at Fri Aug 26 09:50:24 2022.

 ---------------------------------------------------------
 #P Geom=AllCheck Guess=TCheck SCRF=Check MP4=FrzG4/GTBas2
 ---------------------------------------------------------

 Structure from the checkpoint file:  "G4.Frag_688.chk"
 --------
 Frag_688
 --------
 Charge =  0 Multiplicity = 1

 SCF Done:  E(RHF) =  -225.963299838     A.U. after   13 cycles
 E2 =    -0.7121114484D+00 EUMP2 =    -0.22667541128644D+03
 Normal termination of Gaussian 09 at Fri Aug 26 09:50:37 2022.

 ---------------------------------------------------------
 #P Geom=AllCheck Guess=TCheck SCRF=Check MP4=FrzG4/GTBas3
 ---------------------------------------------------------

 Structure from the checkpoint file:  "G4.Frag_688.chk"
 --------
 Frag_688
 --------
 Charge =  0 Multiplicity = 1

 SCF Done:  E(RHF) =  -225.984561956     A.U. after   12 cycles
 E2 =    -0.8475310595D+00 EUMP2 =    -0.22683209301519D+03
 Normal termination of Gaussian 09 at Fri Aug 26 09:51:48 2022.

 -----------------------------------------------------------
 #P Geom=AllCheck Guess=TCheck SCRF=Check MP2=Full/GTLargeXP
 -----------------------------------------------------------

 Structure from the checkpoint file:  "G4.Frag_688.chk"
 --------
 Frag_688
 --------
 Charge =  0 Multiplicity = 1

 SCF Done:  E(RHF) =  -226.039626124     A.U. after   12 cycles
 E2 =    -0.1116064137D+01 EUMP2 =    -0.22715569026164D+03
 Normal termination of Gaussian 09 at Fri Aug 26 09:52:32 2022.
 SCF Done:  E(RHF) =  -226.056922945     A.U. after    8 cycles
 Normal termination of Gaussian 09 at Fri Aug 26 09:53:23 2022.

                         Standard orientation:
 ---------------------------------------------------------------------
 Center     Atomic      Atomic             Coordinates (Angstroms)
 Number     Number       Type             X           Y           Z
 ---------------------------------------------------------------------
      1          6           0       -1.695079   -0.652529    0.000214
      2          6           0       -0.414242    0.143332   -0.000154
      3          7           0       -0.306806    1.411591   -0.000187
      4          6           0        0.860250   -0.659212   -0.000364
      5          7           0        2.031659   -0.174871    0.000340
      6          1           0       -2.573672   -0.003309   -0.000460
      7          1           0       -1.740135   -1.307163   -0.878382
      8          1           0       -1.740300   -1.305962    0.879659
      9          1           0       -1.221903    1.866018    0.000386
     10          1           0        0.742795   -1.747301   -0.000799
     11          1           0        1.953667    0.851138    0.000347
 ---------------------------------------------------------------------

 SCF Done:  E(RHF) =  -226.060409583     A.U. after    8 cycles

 The electronic state is 1-A.
 Alpha  occ. eigenvalues --  -15.56477 -15.56127 -11.30563 -11.28393 -11.25279
 Alpha  occ. eigenvalues --   -1.25023  -1.19121  -1.01725  -0.88434  -0.77063
 Alpha  occ. eigenvalues --   -0.66669  -0.65229  -0.60670  -0.58873  -0.57637
 Alpha  occ. eigenvalues --   -0.48886  -0.45295  -0.42637  -0.40938
 Alpha virt. eigenvalues --    0.02992   0.04415   0.05295   0.05298   0.06993
 Alpha virt. eigenvalues --    0.07073   0.07375   0.08245   0.08656   0.08977
 Alpha virt. eigenvalues --    0.10023   0.12341   0.13656   0.13926   0.14822

 Mulliken charges:
               1
     1  C   -0.547816
     2  C    0.324352
     3  N   -0.623824
     4  C    0.045636
     5  N   -0.568725
     6  H    0.169531
     7  H    0.200734
     8  H    0.200756
     9  H    0.286581
    10  H    0.195564
    11  H    0.317212
 Sum of Mulliken charges =  -0.00000

 Dipole moment (field-independent basis, Debye):
    X=             -4.0001    Y=             -0.9773    Z=              0.0002  Tot=              4.1178
 Quadrupole moment (field-independent basis, Debye-Ang):
   XX=            -34.3486   YY=            -30.2794   ZZ=            -31.8149
   XY=              1.0542   XZ=             -0.0020   YZ=              0.0034

 Normal termination of Gaussian 09 at Fri Aug 26 09:58:44 2022.
