 Gaussian 09, Revision E.01,
 Gaussian 09:  ES64L-G09RevE.01 30-Nov-2015

 -----
 #P G4
 -----

 ---------
 Frag_1080
 ---------
 Symbolic Z-matrix:
 Charge =  0 Multiplicity = 1

 SCF Done:  E(RB3LYP) =  -324.955337547     A.U. after   12 cycles
 SCF Done:  E(RB3LYP) =  -324.961159338     A.U. after   11 cycles
 SCF Done:  E(RB3LYP) =  -324.961580974     A.U. after   10 cycles
 SCF Done:  E(RB3LYP) =  -324.961719236     A.U. after    9 cycles
 SCF Done:  E(RB3LYP) =  -324.961808294     A.U. after   10 cycles
 SCF Done:  E(RB3LYP) =  -324.961850030     A.U. after    9 cycles
 SCF Done:  E(RB3LYP) =  -324.961943258     A.U. after   10 cycles
 SCF Done:  E(RB3LYP) =  -324.962061342     A.U. after   10 cycles
 SCF Done:  E(RB3LYP) =  -324.962172147     A.U. after   11 cycles
 SCF Done:  E(RB3LYP) =  -324.962189085     A.U. after    8 cycles
 SCF Done:  E(RB3LYP) =  -324.963766187     A.U. after    9 cycles
 SCF Done:  E(RB3LYP) =  -324.963766521     A.U. after    7 cycles
 SCF Done:  E(RB3LYP) =  -324.963766720     A.U. after    7 cycles
 Optimization completed.
    -- Stationary point found.
 Normal termination of Gaussian 09 at Thu Aug 25 19:23:13 2022.

 ----------------------------------------------------------
 #P Geom=AllCheck Guess=TCheck SCRF=Check B3LYP/GTBas3 Freq
 ----------------------------------------------------------

 Structure from the checkpoint file:  "G4.Frag_1080.chk"
 ---------
 Frag_1080
 ---------
 Charge =  0 Multiplicity = 1

 SCF Done:  E(RB3LYP) =  -324.963766720     A.U. after    1 cycles

  Exact polarizability:  50.750  -0.375  47.833   0.298   0.273  47.894
 Approx polarizability:  64.212   1.067  67.413   1.469  -0.333  70.390

                      1                      2                      3
                      A                      A                      A
 Frequencies --    114.9805               165.5678               214.6866
 Red. masses --      1.8774                 1.1063                 1.1646
 Frc consts  --      0.0146                 0.0179                 0.0316
 IR Inten    --      2.3073                55.9560                 0.4891

                      4                      5                      6
                      A                      A                      A
 Frequencies --    242.2296               268.3783               312.4692
 Red. masses --      3.4041                 1.1373                 1.0777
 Frc consts  --      0.1177                 0.0483                 0.0620
 IR Inten    --     10.4965                18.3827               127.8795

                      7                      8                      9
                      A                      A                      A
 Frequencies --    363.0332               419.2815               496.6640
 Red. masses --      2.9379                 3.2429                 2.7929
 Frc consts  --      0.2281                 0.3359                 0.4059
 IR Inten    --      8.1837                13.3802                 7.2116

                     10                     11                     12
                      A                      A                      A
 Frequencies --    521.9038               578.7280               777.6056
 Red. masses --      3.0477                 3.9032                 3.7683
 Frc consts  --      0.4891                 0.7702                 1.3425
 IR Inten    --      7.0154                31.0200                 6.9000

                     13                     14                     15
                      A                      A                      A
 Frequencies --    799.9228               849.3666               968.6392
 Red. masses --      1.2628                 1.5995                 2.2477
 Frc consts  --      0.4761                 0.6799                 1.2426
 IR Inten    --      3.3920               119.2250                89.8778

                     16                     17                     18
                      A                      A                      A
 Frequencies --    978.0044              1038.4814              1048.2998
 Red. masses --      2.8484                 2.1757                 1.5106
 Frc consts  --      1.6052                 1.3824                 0.9781
 IR Inten    --     83.0442                40.8902                31.2315

                     19                     20                     21
                      A                      A                      A
 Frequencies --   1103.7275              1197.7339              1207.4782
 Red. masses --      1.9162                 1.4489                 1.6480
 Frc consts  --      1.3754                 1.2246                 1.4156
 IR Inten    --     47.4229                35.9968               128.4104

                     22                     23                     24
                      A                      A                      A
 Frequencies --   1282.0560              1365.1890              1386.7134
 Red. masses --      1.2023                 1.5473                 1.6035
 Frc consts  --      1.1644                 1.6991                 1.8167
 IR Inten    --     32.6633                 2.9166                59.8084

                     25                     26                     27
                      A                      A                      A
 Frequencies --   1409.1760              1431.4190              1481.0378
 Red. masses --      1.4606                 1.7846                 1.0768
 Frc consts  --      1.7089                 2.1544                 1.3916
 IR Inten    --     32.2865                78.0983                 0.8479

                     28                     29                     30
                      A                      A                      A
 Frequencies --   1490.4029              1512.1500              1644.1733
 Red. masses --      1.0416                 1.0625                 1.1119
 Frc consts  --      1.3632                 1.4314                 1.7710
 IR Inten    --      2.1439                 8.5722                35.8673

                     31                     32                     33
                      A                      A                      A
 Frequencies --   3002.7939              3049.2419              3057.9322
 Red. masses --      1.0658                 1.0364                 1.0949
 Frc consts  --      5.6619                 5.6778                 6.0324
 IR Inten    --     35.1664                25.4214                24.2391

                     34                     35                     36
                      A                      A                      A
 Frequencies --   3119.6199              3134.4319              3505.1406
 Red. masses --      1.1002                 1.1020                 1.0487
 Frc consts  --      6.3085                 6.3788                 7.5910
 IR Inten    --     23.5616                20.4028                 2.1252

                     37                     38                     39
                      A                      A                      A
 Frequencies --   3592.3788              3821.0597              3826.5978
 Red. masses --      1.0929                 1.0664                 1.0647
 Frc consts  --      8.3097                 9.1735                 9.1853
 IR Inten    --      2.0489                23.4430                33.2638

 - Thermochemistry -
 -------------------
 Temperature   298.150 Kelvin.  Pressure   1.00000 Atm.
 Atom     1 has atomic number  6 and mass  12.00000

 Molecular mass:    91.06333 amu.
 Principal axes and moments of inertia in atomic units:
                           1         2         3
     Eigenvalues --   370.44528 667.86025 682.69847
           X            0.99972  -0.02029  -0.01177
           Y            0.02241   0.97447   0.22342
           Z            0.00694  -0.22362   0.97465
 This molecule is an asymmetric top.
 Rotational symmetry number  1.
 Rotational temperatures (Kelvin)      0.23381     0.12969     0.12687
 Rotational constants (GHZ):           4.87182     2.70227     2.64354
 Zero-point vibrational energy     339612.0 (Joules/Mol)
                                   81.16922 (Kcal/Mol)
 Warning -- explicit consideration of  11 degrees of freedom as
           vibrations may cause significant error
 Vibrational temperatures:    165.43   238.21   308.89   348.51   386.14
          (Kelvin)            449.57   522.32   603.25   714.59   750.90
                              832.66  1118.80  1150.91  1222.05  1393.65
                             1407.13  1494.14  1508.27  1588.02  1723.27
                             1737.29  1844.59  1964.20  1995.17  2027.49
                             2059.49  2130.88  2144.35  2175.64  2365.60
                             4320.35  4387.17  4399.68  4488.43  4509.74
                             5043.11  5168.63  5497.65  5505.61

 Zero-point correction=                           0.129351 (Hartree/Particle)
 Thermal correction to Energy=                    0.137144
 Thermal correction to Enthalpy=                  0.138088
 Thermal correction to Gibbs Free Energy=         0.098415
 Sum of electronic and zero-point Energies=           -324.834415
 Sum of electronic and thermal Energies=              -324.826622
 Sum of electronic and thermal Enthalpies=            -324.825678
 Sum of electronic and thermal Free Energies=         -324.865352

                     E (Thermal)             CV                S
                      KCal/Mol        Cal/Mol-Kelvin    Cal/Mol-Kelvin
 Total                   86.059             28.205             83.501
 Electronic               0.000              0.000              0.000
 Translational            0.889              2.981             39.439
 Rotational               0.889              2.981             26.627
 Vibrational             84.282             22.244             17.435
 Vibration     1          0.608              1.937              3.183
 Vibration     2          0.624              1.885              2.485
 Vibration     3          0.645              1.819              2.003
 Vibration     4          0.658              1.776              1.786
 Vibration     5          0.673              1.731              1.607
 Vibration     6          0.701              1.650              1.349
 Vibration     7          0.737              1.548              1.109
 Vibration     8          0.782              1.428              0.894
 Vibration     9          0.852              1.257              0.667
 Vibration    10          0.877              1.201              0.606
 Vibration    11          0.935              1.077              0.488

 Optimization completed.
    -- Stationary point found.
 Normal termination of Gaussian 09 at Thu Aug 25 19:26:03 2022.

 -----------------------------------------------------------------
 #P Geom=AllCheck Guess=TCheck SCRF=Check CCSD(T,E4T,FrzG4)/GTBas1
 -----------------------------------------------------------------

 Structure from the checkpoint file:  "G4.Frag_1080.chk"
 ---------
 Frag_1080
 ---------
 Charge =  0 Multiplicity = 1

 SCF Done:  E(RHF) =  -323.006188603     A.U. after   12 cycles
 E2 =    -0.9177892029D+00 EUMP2 =    -0.32392397780561D+03
 CCSD(T)
 CCSD(T)= -0.32399918896D+03
 -323.9742139\CCSD(T)=-323.999189\RMSD=3.909e-09\PG=C01 [X(C3H9N1O2)]\\
 Normal termination of Gaussian 09 at Thu Aug 25 19:32:09 2022.

 ---------------------------------------------------------
 #P Geom=AllCheck Guess=TCheck SCRF=Check MP4=FrzG4/GTBas2
 ---------------------------------------------------------

 Structure from the checkpoint file:  "G4.Frag_1080.chk"
 ---------
 Frag_1080
 ---------
 Charge =  0 Multiplicity = 1

 SCF Done:  E(RHF) =  -323.017666738     A.U. after   11 cycles
 E2 =    -0.9344130733D+00 EUMP2 =    -0.32395207981133D+03
 Normal termination of Gaussian 09 at Thu Aug 25 19:41:21 2022.

 ---------------------------------------------------------
 #P Geom=AllCheck Guess=TCheck SCRF=Check MP4=FrzG4/GTBas3
 ---------------------------------------------------------

 Structure from the checkpoint file:  "G4.Frag_1080.chk"
 ---------
 Frag_1080
 ---------
 Charge =  0 Multiplicity = 1

 SCF Done:  E(RHF) =  -323.054673599     A.U. after   11 cycles
 E2 =    -0.1141431607D+01 EUMP2 =    -0.32419610520597D+03
 Normal termination of Gaussian 09 at Thu Aug 25 23:02:13 2022.

 -----------------------------------------------------------
 #P Geom=AllCheck Guess=TCheck SCRF=Check MP2=Full/GTLargeXP
 -----------------------------------------------------------

 Structure from the checkpoint file:  "G4.Frag_1080.chk"
 ---------
 Frag_1080
 ---------
 Charge =  0 Multiplicity = 1

 SCF Done:  E(RHF) =  -323.143137932     A.U. after   12 cycles
 E2 =    -0.1488725468D+01 EUMP2 =    -0.32463186340038D+03
 Normal termination of Gaussian 09 at Thu Aug 25 23:08:43 2022.
 SCF Done:  E(RHF) =  -323.169358344     A.U. after    8 cycles
 Normal termination of Gaussian 09 at Thu Aug 25 23:14:35 2022.

                         Standard orientation:
 ---------------------------------------------------------------------
 Center     Atomic      Atomic             Coordinates (Angstroms)
 Number     Number       Type             X           Y           Z
 ---------------------------------------------------------------------
      1          6           0       -2.126667   -0.049558    0.073875
      2          6           0       -0.875755    0.632457   -0.480347
      3          6           0        0.439861   -0.013735   -0.003867
      4          7           0        0.519486   -1.381773   -0.446329
      5          8           0        0.529868   -0.067907    1.393867
      6          8           0        1.551476    0.799042   -0.411221
      7          1           0       -2.184004   -1.087678   -0.261153
      8          1           0       -2.098110   -0.053957    1.166385
      9          1           0       -3.031553    0.473903   -0.249061
     10          1           0       -0.895056    0.624376   -1.580177
     11          1           0       -0.845685    1.685198   -0.175539
     12          1           0        1.392134   -1.777960   -0.110347
     13          1           0        0.527486   -1.422672   -1.460035
     14          1           0        0.870563    0.790094    1.668905
     15          1           0        1.352439    1.177038   -1.273816
 ---------------------------------------------------------------------

 SCF Done:  E(RHF) =  -323.175195612     A.U. after    8 cycles

 The electronic state is 1-A.
 Alpha  occ. eigenvalues --  -20.56544 -20.55862 -15.54415 -11.36844 -11.23160
 Alpha  occ. eigenvalues --  -11.20992  -1.42287  -1.33221  -1.17767  -1.03888
 Alpha  occ. eigenvalues --   -0.89078  -0.81580  -0.73490  -0.69557  -0.65744
 Alpha  occ. eigenvalues --   -0.61446  -0.59096  -0.58783  -0.56022  -0.52608
 Alpha  occ. eigenvalues --   -0.51476  -0.49773  -0.49101  -0.44403  -0.41709
 Alpha virt. eigenvalues --    0.03409   0.04268   0.04882   0.05011   0.06812
 Alpha virt. eigenvalues --    0.07179   0.07481   0.07932   0.08216   0.10299
 Alpha virt. eigenvalues --    0.11906   0.12283   0.12866   0.14192   0.14596

 Mulliken charges:
               1
     1  C   -0.524284
     2  C   -0.308482
     3  C    0.567595
     4  N   -0.705484
     5  O   -0.603640
     6  O   -0.607883
     7  H    0.182212
     8  H    0.184591
     9  H    0.159855
    10  H    0.146598
    11  H    0.177720
    12  H    0.303352
    13  H    0.278592
    14  H    0.384759
    15  H    0.364499
 Sum of Mulliken charges =  -0.00000

 Dipole moment (field-independent basis, Debye):
    X=             -0.1680    Y=              1.5117    Z=             -2.2890  Tot=              2.7483
 Quadrupole moment (field-independent basis, Debye-Ang):
   XX=            -39.8766   YY=            -37.1629   ZZ=            -34.3773
   XY=             -2.1246   XZ=             -0.6546   YZ=              2.0939

 Normal termination of Gaussian 09 at Fri Aug 26 02:10:31 2022.
