 Gaussian 09, Revision E.01,
 Gaussian 09:  ES64L-G09RevE.01 30-Nov-2015

 -----
 #P G4
 -----

 --------
 Frag_767
 --------
 Symbolic Z-matrix:
 Charge =  0 Multiplicity = 1

 SCF Done:  E(RB3LYP) =  -318.670357756     A.U. after   14 cycles
 SCF Done:  E(RB3LYP) =  -318.697972729     A.U. after   13 cycles
 SCF Done:  E(RB3LYP) =  -318.703338297     A.U. after   13 cycles
 SCF Done:  E(RB3LYP) =  -318.703705090     A.U. after   12 cycles
 SCF Done:  E(RB3LYP) =  -318.704013863     A.U. after   11 cycles
 SCF Done:  E(RB3LYP) =  -318.704192252     A.U. after   11 cycles
 SCF Done:  E(RB3LYP) =  -318.704306637     A.U. after   11 cycles
 SCF Done:  E(RB3LYP) =  -318.704344028     A.U. after   10 cycles
 SCF Done:  E(RB3LYP) =  -318.704346903     A.U. after    9 cycles
 SCF Done:  E(RB3LYP) =  -318.704350395     A.U. after    9 cycles
 Optimization completed.
    -- Stationary point found.
 Normal termination of Gaussian 09 at Fri Aug 26 08:48:58 2022.

 ----------------------------------------------------------
 #P Geom=AllCheck Guess=TCheck SCRF=Check B3LYP/GTBas3 Freq
 ----------------------------------------------------------

 Structure from the checkpoint file:  "G4.Frag_767.chk"
 --------
 Frag_767
 --------
 Charge =  0 Multiplicity = 1

 SCF Done:  E(RB3LYP) =  -318.704350395     A.U. after    1 cycles

  Exact polarizability:  47.493   2.288  59.669  -0.759   0.749  28.807
 Approx polarizability:  68.093   8.840 104.659  -0.394   0.461  44.099

                      1                      2                      3
                      A                      A                      A
 Frequencies --    109.8008               275.5365               329.2256
 Red. masses --      5.6128                 4.3812                 2.9755
 Frc consts  --      0.0399                 0.1960                 0.1900
 IR Inten    --      1.4987                23.2703                38.2150

                      4                      5                      6
                      A                      A                      A
 Frequencies --    412.7881               463.7363               495.6869
 Red. masses --      3.4135                 1.3069                 1.1400
 Frc consts  --      0.3427                 0.1656                 0.1650
 IR Inten    --     19.1600                79.6179               128.4646

                      7                      8                      9
                      A                      A                      A
 Frequencies --    553.2644               599.0290               648.7349
 Red. masses --      1.4528                 2.9513                 3.4775
 Frc consts  --      0.2620                 0.6240                 0.8623
 IR Inten    --     72.6584                 3.0249                59.7700

                     10                     11                     12
                      A                      A                      A
 Frequencies --    790.3979               794.4568               870.2551
 Red. masses --      6.4408                 5.7799                 1.1269
 Frc consts  --      2.3707                 2.1494                 0.5029
 IR Inten    --      2.7927                 6.5075                47.5512

                     13                     14                     15
                      A                      A                      A
 Frequencies --    913.4609              1090.3930              1125.1883
 Red. masses --      1.1213                 1.8862                 1.6043
 Frc consts  --      0.5513                 1.3213                 1.1967
 IR Inten    --     43.2044               195.2729                16.9032

                     16                     17                     18
                      A                      A                      A
 Frequencies --   1153.6571              1255.4518              1361.4403
 Red. masses --      1.3131                 1.3424                 2.1915
 Frc consts  --      1.0297                 1.2467                 2.3932
 IR Inten    --     48.6454               141.1953               216.1243

                     19                     20                     21
                      A                      A                      A
 Frequencies --   1456.2515              1614.8470              1703.2175
 Red. masses --      2.9469                 1.3239                 5.3516
 Frc consts  --      3.6821                 2.0341                 9.1470
 IR Inten    --     40.7738                32.2398               239.0324

                     22                     23                     24
                      A                      A                      A
 Frequencies --   1751.8575              3494.5044              3510.5781
 Red. masses --      7.2633                 1.0747                 1.0745
 Frc consts  --     13.1335                 7.7326                 7.8024
 IR Inten    --     83.7984                 2.7099                 5.9906

                     25                     26                     27
                      A                      A                      A
 Frequencies --   3577.2818              3697.5430              3791.6747
 Red. masses --      1.0458                 1.1011                 1.0652
 Frc consts  --      7.8851                 8.8697                 9.0232
 IR Inten    --     34.9880                35.2653                52.0327

 - Thermochemistry -
 -------------------
 Temperature   298.150 Kelvin.  Pressure   1.00000 Atm.
 Atom     1 has atomic number  7 and mass  14.00307

 Molecular mass:    87.04326 amu.
 Principal axes and moments of inertia in atomic units:
                           1         2         3
     Eigenvalues --   326.96537 523.24715 790.79595
           X            0.99839  -0.05593  -0.00991
           Y            0.05602   0.99839   0.00929
           Z            0.00937  -0.00983   0.99991
 This molecule is an asymmetric top.
 Rotational symmetry number  1.
 Rotational temperatures (Kelvin)      0.26490     0.16553     0.10953
 Rotational constants (GHZ):           5.51967     3.44912     2.28218
 Zero-point vibrational energy     226335.0 (Joules/Mol)
                                   54.09537 (Kcal/Mol)
 Warning -- explicit consideration of   8 degrees of freedom as
           vibrations may cause significant error
 Vibrational temperatures:    157.98   396.44   473.68   593.91   667.21
          (Kelvin)            713.18   796.02   861.87   933.38  1137.20
                             1143.04  1252.10  1314.26  1568.83  1618.89
                             1659.85  1806.31  1958.81  2095.22  2323.40
                             2450.55  2520.53  5027.81  5050.93  5146.90
                             5319.93  5455.37

 Zero-point correction=                           0.086206 (Hartree/Particle)
 Thermal correction to Energy=                    0.092228
 Thermal correction to Enthalpy=                  0.093172
 Thermal correction to Gibbs Free Energy=         0.056833
 Sum of electronic and zero-point Energies=           -318.618144
 Sum of electronic and thermal Energies=              -318.612123
 Sum of electronic and thermal Enthalpies=            -318.611178
 Sum of electronic and thermal Free Energies=         -318.647518

                     E (Thermal)             CV                S
                      KCal/Mol        Cal/Mol-Kelvin    Cal/Mol-Kelvin
 Total                   57.874             21.999             76.483
 Electronic               0.000              0.000              0.000
 Translational            0.889              2.981             39.304
 Rotational               0.889              2.981             26.406
 Vibrational             56.096             16.037             10.773
 Vibration     1          0.606              1.941              3.272
 Vibration     2          0.677              1.719              1.561
 Vibration     3          0.712              1.617              1.264
 Vibration     4          0.777              1.442              0.917
 Vibration     5          0.821              1.330              0.755
 Vibration     6          0.851              1.260              0.669
 Vibration     7          0.909              1.133              0.537
 Vibration     8          0.957              1.034              0.451

 Normal termination of Gaussian 09 at Fri Aug 26 08:49:24 2022.

 -----------------------------------------------------------------
 #P Geom=AllCheck Guess=TCheck SCRF=Check CCSD(T,E4T,FrzG4)/GTBas1
 -----------------------------------------------------------------

 Structure from the checkpoint file:  "G4.Frag_767.chk"
 --------
 Frag_767
 --------
 Charge =  0 Multiplicity = 1

 SCF Done:  E(RHF) =  -316.820477958     A.U. after   14 cycles
 E2 =    -0.9163487133D+00 EUMP2 =    -0.31773682667176D+03
 CCSD(T)
 CCSD(T)= -0.31780037893D+03
 04\MP4SDQ=-317.7693299\CCSD=-317.7682652\CCSD(T)=-317.8003789\RMSD=5.4
 Normal termination of Gaussian 09 at Fri Aug 26 08:51:02 2022.

 ---------------------------------------------------------
 #P Geom=AllCheck Guess=TCheck SCRF=Check MP4=FrzG4/GTBas2
 ---------------------------------------------------------

 Structure from the checkpoint file:  "G4.Frag_767.chk"
 --------
 Frag_767
 --------
 Charge =  0 Multiplicity = 1

 SCF Done:  E(RHF) =  -316.832310232     A.U. after   13 cycles
 E2 =    -0.9314539829D+00 EUMP2 =    -0.31776376421446D+03
 Normal termination of Gaussian 09 at Fri Aug 26 08:51:31 2022.

 ---------------------------------------------------------
 #P Geom=AllCheck Guess=TCheck SCRF=Check MP4=FrzG4/GTBas3
 ---------------------------------------------------------

 Structure from the checkpoint file:  "G4.Frag_767.chk"
 --------
 Frag_767
 --------
 Charge =  0 Multiplicity = 1

 SCF Done:  E(RHF) =  -316.868770002     A.U. after   13 cycles
 E2 =    -0.1102899357D+01 EUMP2 =    -0.31797166935874D+03
 Normal termination of Gaussian 09 at Fri Aug 26 08:53:56 2022.

 -----------------------------------------------------------
 #P Geom=AllCheck Guess=TCheck SCRF=Check MP2=Full/GTLargeXP
 -----------------------------------------------------------

 Structure from the checkpoint file:  "G4.Frag_767.chk"
 --------
 Frag_767
 --------
 Charge =  0 Multiplicity = 1

 SCF Done:  E(RHF) =  -316.955798469     A.U. after   13 cycles
 E2 =    -0.1442224769D+01 EUMP2 =    -0.31839802323851D+03
 Normal termination of Gaussian 09 at Fri Aug 26 08:55:30 2022.
 SCF Done:  E(RHF) =  -316.980347443     A.U. after    9 cycles
 Normal termination of Gaussian 09 at Fri Aug 26 08:56:48 2022.

                         Standard orientation:
 ---------------------------------------------------------------------
 Center     Atomic      Atomic             Coordinates (Angstroms)
 Number     Number       Type             X           Y           Z
 ---------------------------------------------------------------------
      1          7           0       -1.234800   -1.281192   -0.338355
      2          6           0       -0.719443   -0.148643   -0.035539
      3          7           0       -1.511772    0.932162    0.259449
      4          6           0        0.765092    0.154243   -0.025451
      5          7           0        1.310532    1.251789   -0.342928
      6          8           0        1.545947   -0.887152    0.338184
      7          1           0       -0.526014   -1.932439   -0.672732
      8          1           0       -2.496659    0.727642    0.344669
      9          1           0       -1.149379    1.620718    0.899684
     10          1           0        0.600718    1.915066   -0.649188
     11          1           0        0.982141   -1.586687    0.690868
 ---------------------------------------------------------------------

 SCF Done:  E(RHF) =  -316.985596493     A.U. after    8 cycles

 The electronic state is 1-A.
 Alpha  occ. eigenvalues --  -20.61352 -15.59827 -15.56022 -15.55993 -11.36514
 Alpha  occ. eigenvalues --  -11.35281  -1.44531  -1.29365  -1.21388  -1.17159
 Alpha  occ. eigenvalues --   -0.90617  -0.82932  -0.78633  -0.70478  -0.67592
 Alpha  occ. eigenvalues --   -0.65477  -0.63303  -0.58703  -0.54949  -0.50089
 Alpha  occ. eigenvalues --   -0.43060  -0.42981  -0.39907
 Alpha virt. eigenvalues --    0.03245   0.04421   0.05144   0.05291   0.07139
 Alpha virt. eigenvalues --    0.07504   0.07836   0.08794   0.09424   0.10487
 Alpha virt. eigenvalues --    0.11706   0.12701   0.13401   0.13906   0.14043

 Mulliken charges:
               1
     1  N   -0.686451
     2  C    0.423406
     3  N   -0.702382
     4  C    0.400685
     5  N   -0.596798
     6  O   -0.500713
     7  H    0.290651
     8  H    0.350174
     9  H    0.337160
    10  H    0.303615
    11  H    0.380653
 Sum of Mulliken charges =  -0.00000

 Dipole moment (field-independent basis, Debye):
    X=             -2.3600    Y=              0.3150    Z=              1.6011  Tot=              2.8692
 Quadrupole moment (field-independent basis, Debye-Ang):
   XX=            -44.1183   YY=            -32.0087   ZZ=            -34.9853
   XY=             -7.8326   XZ=             -1.8909   YZ=              0.8103

 Normal termination of Gaussian 09 at Fri Aug 26 09:02:23 2022.
