 Gaussian 09, Revision E.01,
 Gaussian 09:  ES64L-G09RevE.01 30-Nov-2015

 -----
 #P G4
 -----

 --------
 Frag_514
 --------
 Symbolic Z-matrix:
 Charge =  0 Multiplicity = 1

 SCF Done:  E(RB3LYP) =  -232.452769308     A.U. after   13 cycles
 SCF Done:  E(RB3LYP) =  -232.462328922     A.U. after   12 cycles
 SCF Done:  E(RB3LYP) =  -232.463148835     A.U. after   11 cycles
 SCF Done:  E(RB3LYP) =  -232.463706747     A.U. after   12 cycles
 SCF Done:  E(RB3LYP) =  -232.463840098     A.U. after   10 cycles
 SCF Done:  E(RB3LYP) =  -232.463876131     A.U. after   10 cycles
 SCF Done:  E(RB3LYP) =  -232.463880225     A.U. after    8 cycles
 SCF Done:  E(RB3LYP) =  -232.463881097     A.U. after    7 cycles
 SCF Done:  E(RB3LYP) =  -232.463881709     A.U. after    7 cycles
 SCF Done:  E(RB3LYP) =  -232.463881996     A.U. after    7 cycles
 SCF Done:  E(RB3LYP) =  -232.463882239     A.U. after    7 cycles
 SCF Done:  E(RB3LYP) =  -232.463882268     A.U. after    6 cycles
 Optimization completed.
    -- Stationary point found.
 Normal termination of Gaussian 09 at Tue Aug 23 21:58:26 2022.

 ----------------------------------------------------------
 #P Geom=AllCheck Guess=TCheck SCRF=Check B3LYP/GTBas3 Freq
 ----------------------------------------------------------

 Structure from the checkpoint file:  "G4.Frag_514.chk"
 --------
 Frag_514
 --------
 Charge =  0 Multiplicity = 1

 SCF Done:  E(RB3LYP) =  -232.463882268     A.U. after    1 cycles

  Exact polarizability:  57.967  -6.998  49.882   4.728  -1.769  36.085
 Approx polarizability:  75.989 -12.850  76.086   8.560  -4.310  52.076

                      1                      2                      3
                      A                      A                      A
 Frequencies --     90.3515               205.4519               227.4867
 Red. masses --      2.0281                 1.1763                 1.6759
 Frc consts  --      0.0098                 0.0293                 0.0511
 IR Inten    --      2.1771                10.1490                42.6117

                      4                      5                      6
                      A                      A                      A
 Frequencies --    270.6258               416.5713               471.2567
 Red. masses --      1.5674                 2.0435                 2.5198
 Frc consts  --      0.0676                 0.2089                 0.3297
 IR Inten    --     36.9294                 1.2901                 2.9563

                      7                      8                      9
                      A                      A                      A
 Frequencies --    627.1586               744.1072               793.5350
 Red. masses --      2.8431                 1.1145                 1.2866
 Frc consts  --      0.6589                 0.3636                 0.4773
 IR Inten    --      2.4692                 9.6703                 0.3174

                     10                     11                     12
                      A                      A                      A
 Frequencies --    807.2082               845.7887               973.6357
 Red. masses --      2.1664                 1.4248                 2.2926
 Frc consts  --      0.8317                 0.6005                 1.2805
 IR Inten    --      7.9659                47.8017                43.0254

                     13                     14                     15
                      A                      A                      A
 Frequencies --   1001.1135              1074.0424              1097.7704
 Red. masses --      1.8110                 1.8629                 1.5380
 Frc consts  --      1.0694                 1.2662                 1.0920
 IR Inten    --      3.2053                 5.3659                 1.9381

                     16                     17                     18
                      A                      A                      A
 Frequencies --   1236.5238              1279.1639              1331.8513
 Red. masses --      1.3711                 1.2282                 1.6253
 Frc consts  --      1.2352                 1.1841                 1.6986
 IR Inten    --     29.0772                29.5862                97.8721

                     19                     20                     21
                      A                      A                      A
 Frequencies --   1359.6827              1412.1257              1442.0631
 Red. masses --      2.0718                 1.2322                 1.1568
 Frc consts  --      2.2567                 1.4477                 1.4174
 IR Inten    --     63.3412                 1.8798                 6.7253

                     22                     23                     24
                      A                      A                      A
 Frequencies --   1480.3126              1495.4522              1506.5392
 Red. masses --      1.0672                 1.0460                 1.0734
 Frc consts  --      1.3778                 1.3782                 1.4354
 IR Inten    --      1.1074                 4.8805                 9.8749

                     25                     26                     27
                      A                      A                      A
 Frequencies --   1750.8616              2998.4664              3036.8879
 Red. masses --      5.3649                 1.0708                 1.0361
 Frc consts  --      9.6899                 5.6723                 5.6298
 IR Inten    --     77.1958                31.1333                23.2199

                     28                     29                     30
                      A                      A                      A
 Frequencies --   3086.9225              3107.3323              3118.6986
 Red. masses --      1.0921                 1.0977                 1.1029
 Frc consts  --      6.1314                 6.2445                 6.3203
 IR Inten    --      2.8932                41.0081                24.9644

                     31                     32                     33
                      A                      A                      A
 Frequencies --   3176.2933              3267.3318              3838.0420
 Red. masses --      1.0610                 1.1160                 1.0663
 Frc consts  --      6.3066                 7.0196                 9.2542
 IR Inten    --      0.3577                 6.2413                40.6572

 - Thermochemistry -
 -------------------
 Temperature   298.150 Kelvin.  Pressure   1.00000 Atm.
 Atom     1 has atomic number  6 and mass  12.00000

 Molecular mass:    72.05751 amu.
 Principal axes and moments of inertia in atomic units:
                           1         2         3
     Eigenvalues --   223.55997 472.41935 609.38476
           X            0.99924  -0.03901   0.00151
           Y            0.03902   0.99921  -0.00711
           Z           -0.00123   0.00717   0.99997
 This molecule is an asymmetric top.
 Rotational symmetry number  1.
 Rotational temperatures (Kelvin)      0.38743     0.18334     0.14213
 Rotational constants (GHZ):           8.07274     3.82021     2.96158
 Zero-point vibrational energy     296498.4 (Joules/Mol)
                                   70.86481 (Kcal/Mol)
 Warning -- explicit consideration of   6 degrees of freedom as
           vibrations may cause significant error
 Vibrational temperatures:    130.00   295.60   327.30   389.37   599.35
          (Kelvin)            678.03   902.34  1070.60  1141.72  1161.39
                             1216.90  1400.84  1440.38  1545.31  1579.44
                             1779.08  1840.43  1916.23  1956.28  2031.73
                             2074.80  2129.84  2151.62  2167.57  2519.10
                             4314.12  4369.40  4441.39  4470.75  4487.11
                             4569.97  4700.96  5522.08

 Zero-point correction=                           0.112930 (Hartree/Particle)
 Thermal correction to Energy=                    0.119255
 Thermal correction to Enthalpy=                  0.120200
 Thermal correction to Gibbs Free Energy=         0.083597
 Sum of electronic and zero-point Energies=           -232.350952
 Sum of electronic and thermal Energies=              -232.344627
 Sum of electronic and thermal Enthalpies=            -232.343683
 Sum of electronic and thermal Free Energies=         -232.380285

                     E (Thermal)             CV                S
                      KCal/Mol        Cal/Mol-Kelvin    Cal/Mol-Kelvin
 Total                   74.834             22.042             77.037
 Electronic               0.000              0.000              0.000
 Translational            0.889              2.981             38.741
 Rotational               0.889              2.981             25.668
 Vibrational             73.056             16.080             12.628
 Vibration     1          0.602              1.956              3.652
 Vibration     2          0.640              1.832              2.084
 Vibration     3          0.651              1.799              1.899
 Vibration     4          0.674              1.727              1.592
 Vibration     5          0.780              1.434              0.904
 Vibration     6          0.828              1.314              0.734

 Optimization completed.
    -- Stationary point found.
 Normal termination of Gaussian 09 at Tue Aug 23 22:00:04 2022.

 -----------------------------------------------------------------
 #P Geom=AllCheck Guess=TCheck SCRF=Check CCSD(T,E4T,FrzG4)/GTBas1
 -----------------------------------------------------------------

 Structure from the checkpoint file:  "G4.Frag_514.chk"
 --------
 Frag_514
 --------
 Charge =  0 Multiplicity = 1

 SCF Done:  E(RHF) =  -230.960882728     A.U. after   12 cycles
 E2 =    -0.6948199196D+00 EUMP2 =    -0.23165570264742D+03
 CCSD(T)
 CCSD(T)= -0.23172738836D+03
 MP4SDTQ=-231.7262174\MP4SDQ=-231.7039509\CCSD=-231.7046839\CCSD(T)=-23
 Normal termination of Gaussian 09 at Tue Aug 23 22:02:02 2022.

 ---------------------------------------------------------
 #P Geom=AllCheck Guess=TCheck SCRF=Check MP4=FrzG4/GTBas2
 ---------------------------------------------------------

 Structure from the checkpoint file:  "G4.Frag_514.chk"
 --------
 Frag_514
 --------
 Charge =  0 Multiplicity = 1

 SCF Done:  E(RHF) =  -230.968209373     A.U. after   12 cycles
 E2 =    -0.7039303463D+00 EUMP2 =    -0.23167213971901D+03
 Normal termination of Gaussian 09 at Tue Aug 23 22:04:17 2022.

 ---------------------------------------------------------
 #P Geom=AllCheck Guess=TCheck SCRF=Check MP4=FrzG4/GTBas3
 ---------------------------------------------------------

 Structure from the checkpoint file:  "G4.Frag_514.chk"
 --------
 Frag_514
 --------
 Charge =  0 Multiplicity = 1

 SCF Done:  E(RHF) =  -230.994173865     A.U. after   11 cycles
 E2 =    -0.8619076985D+00 EUMP2 =    -0.23185608156323D+03
 Normal termination of Gaussian 09 at Tue Aug 23 22:49:20 2022.

 -----------------------------------------------------------
 #P Geom=AllCheck Guess=TCheck SCRF=Check MP2=Full/GTLargeXP
 -----------------------------------------------------------

 Structure from the checkpoint file:  "G4.Frag_514.chk"
 --------
 Frag_514
 --------
 Charge =  0 Multiplicity = 1

 SCF Done:  E(RHF) =  -231.051979234     A.U. after   12 cycles
 E2 =    -0.1135694419D+01 EUMP2 =    -0.23218767365274D+03
 Normal termination of Gaussian 09 at Tue Aug 23 22:52:14 2022.
 SCF Done:  E(RHF) =  -231.071005663     A.U. after    8 cycles
 Normal termination of Gaussian 09 at Tue Aug 23 22:55:33 2022.

                         Standard orientation:
 ---------------------------------------------------------------------
 Center     Atomic      Atomic             Coordinates (Angstroms)
 Number     Number       Type             X           Y           Z
 ---------------------------------------------------------------------
      1          6           0       -1.601430    0.869937   -0.230258
      2          6           0       -0.618399    0.032265    0.095676
      3          8           0       -0.820599   -1.320332   -0.004173
      4          6           0        0.748946    0.457453    0.561480
      5          6           0        1.877352    0.054814   -0.404692
      6          1           0       -2.563987    0.502253   -0.562875
      7          1           0       -1.451893    1.939112   -0.171668
      8          1           0       -0.051642   -1.782331    0.341858
      9          1           0        0.751362    1.541545    0.701374
     10          1           0        0.942926    0.015909    1.550815
     11          1           0        1.914503   -1.028336   -0.564299
     12          1           0        1.733576    0.524820   -1.381853
     13          1           0        2.851137    0.362865   -0.013203
 ---------------------------------------------------------------------

 SCF Done:  E(RHF) =  -231.075045688     A.U. after    8 cycles

 The electronic state is 1-A.
 Alpha  occ. eigenvalues --  -20.58045 -11.29340 -11.24174 -11.22959 -11.19909
 Alpha  occ. eigenvalues --   -1.39739  -1.07250  -0.99615  -0.87163  -0.77555
 Alpha  occ. eigenvalues --   -0.69057  -0.64732  -0.60893  -0.58230  -0.55946
 Alpha  occ. eigenvalues --   -0.55727  -0.51978  -0.50130  -0.48761  -0.33468
 Alpha virt. eigenvalues --    0.03617   0.04214   0.04628   0.05112   0.06633
 Alpha virt. eigenvalues --    0.07269   0.07578   0.07812   0.08088   0.09973
 Alpha virt. eigenvalues --    0.10471   0.10910   0.11917   0.14565   0.15709

 Mulliken charges:
               1
     1  C   -0.487093
     2  C    0.232224
     3  O   -0.546290
     4  C   -0.321872
     5  C   -0.489470
     6  H    0.198909
     7  H    0.174941
     8  H    0.376497
     9  H    0.183372
    10  H    0.185596
    11  H    0.149994
    12  H    0.174669
    13  H    0.168524
 Sum of Mulliken charges =  -0.00000

 Dipole moment (field-independent basis, Debye):
    X=              2.2438    Y=              0.1431    Z=              0.7783  Tot=              2.3792
 Quadrupole moment (field-independent basis, Debye-Ang):
   XX=            -33.0833   YY=            -30.5154   ZZ=            -33.4817
   XY=             -2.1758   XZ=              1.0434   YZ=             -1.1955

 Normal termination of Gaussian 09 at Wed Aug 24 00:36:07 2022.
