 Gaussian 09, Revision E.01,
 Gaussian 09:  ES64L-G09RevE.01 30-Nov-2015

 -----
 #P G4
 -----

 --------
 Frag_437
 --------
 Symbolic Z-matrix:
 Charge =  0 Multiplicity = 1

 SCF Done:  E(RB3LYP) =  -311.018272511     A.U. after   13 cycles
 SCF Done:  E(RB3LYP) =  -311.066430794     A.U. after   12 cycles
 SCF Done:  E(RB3LYP) =  -311.059371317     A.U. after   12 cycles
 SCF Done:  E(RB3LYP) =  -311.087878585     A.U. after   10 cycles
 SCF Done:  E(RB3LYP) =  -311.090177976     A.U. after   10 cycles
 SCF Done:  E(RB3LYP) =  -311.090745785     A.U. after   11 cycles
 SCF Done:  E(RB3LYP) =  -311.091640452     A.U. after   11 cycles
 SCF Done:  E(RB3LYP) =  -311.092010260     A.U. after   11 cycles
 SCF Done:  E(RB3LYP) =  -311.092330265     A.U. after   10 cycles
 SCF Done:  E(RB3LYP) =  -311.092654989     A.U. after   10 cycles
 SCF Done:  E(RB3LYP) =  -311.093192927     A.U. after    7 cycles
 SCF Done:  E(RB3LYP) =  -311.093193336     A.U. after    8 cycles
 SCF Done:  E(RB3LYP) =  -311.093193387     A.U. after    7 cycles
 Optimization completed.
    -- Stationary point found.
 Normal termination of Gaussian 09 at Tue Aug 30 12:15:08 2022.

 ----------------------------------------------------------
 #P Geom=AllCheck Guess=TCheck SCRF=Check B3LYP/GTBas3 Freq
 ----------------------------------------------------------

 Structure from the checkpoint file:  "G4.Frag_437.chk"
 --------
 Frag_437
 --------
 Charge =  0 Multiplicity = 1

 SCF Done:  E(RB3LYP) =  -311.093193387     A.U. after    1 cycles

  Exact polarizability:  76.753   5.170  75.252   0.001   0.000  56.260
 Approx polarizability: 102.958   9.576 115.297   0.001   0.002  78.786

                      1                      2                      3
                      A                      A                      A
 Frequencies --     29.4823               179.6734               211.3852
 Red. masses --      2.4777                 1.1450                 1.4077
 Frc consts  --      0.0013                 0.0218                 0.0371
 IR Inten    --      0.9846                 1.1725                 0.0079

                      4                      5                      6
                      A                      A                      A
 Frequencies --    249.2551               267.2105               290.4142
 Red. masses --      1.0479                 1.0780                 1.4946
 Frc consts  --      0.0384                 0.0453                 0.0743
 IR Inten    --     99.5908                 0.3498                 0.1895

                      7                      8                      9
                      A                      A                      A
 Frequencies --    292.7119               341.3609               401.6133
 Red. masses --      2.7700                 2.2593                 3.0867
 Frc consts  --      0.1398                 0.1551                 0.2933
 IR Inten    --      1.2722                 0.1650                 2.8715

                     10                     11                     12
                      A                      A                      A
 Frequencies --    420.6994               465.6216               512.4251
 Red. masses --      3.4972                 2.4296                 2.8532
 Frc consts  --      0.3647                 0.3104                 0.4414
 IR Inten    --      3.7439                 0.1039                10.0169

                     13                     14                     15
                      A                      A                      A
 Frequencies --    572.1862               687.8282               753.9892
 Red. masses --      2.4288                 3.2150                 1.1129
 Frc consts  --      0.4685                 0.8962                 0.3728
 IR Inten    --      9.2757                 0.0260                 0.4593

                     16                     17                     18
                      A                      A                      A
 Frequencies --    875.5778               913.0858               949.6144
 Red. masses --      2.5602                 1.5231                 1.3389
 Frc consts  --      1.1564                 0.7482                 0.7114
 IR Inten    --     15.3658                 0.3288                31.7011

                     19                     20                     21
                      A                      A                      A
 Frequencies --    957.4029               972.2349              1015.0044
 Red. masses --      1.8134                 2.1343                 1.2796
 Frc consts  --      0.9794                 1.1886                 0.7767
 IR Inten    --      2.8155                10.2206                 0.0303

                     22                     23                     24
                      A                      A                      A
 Frequencies --   1025.8557              1078.7761              1134.5188
 Red. masses --      1.3265                 1.4947                 1.5177
 Frc consts  --      0.8225                 1.0249                 1.1509
 IR Inten    --      5.7417                 0.5150                69.4534

                     25                     26                     27
                      A                      A                      A
 Frequencies --   1189.2416              1205.3041              1275.8832
 Red. masses --      3.5192                 2.6839                 2.1761
 Frc consts  --      2.9325                 2.2973                 2.0871
 IR Inten    --     22.7578                20.2157                29.9428

                     28                     29                     30
                      A                      A                      A
 Frequencies --   1369.7841              1389.6471              1410.4981
 Red. masses --      1.7250                 1.2400                 1.2654
 Frc consts  --      1.9070                 1.4108                 1.4833
 IR Inten    --     23.9273                 6.7411                 4.3195

                     31                     32                     33
                      A                      A                      A
 Frequencies --   1418.1294              1447.6527              1475.2394
 Red. masses --      1.2381                 1.1904                 1.0466
 Frc consts  --      1.4670                 1.4699                 1.3421
 IR Inten    --      5.1524                 8.0939                 4.6380

                     34                     35                     36
                      A                      A                      A
 Frequencies --   1478.3510              1492.9857              1498.6044
 Red. masses --      1.0477                 1.0510                 1.0483
 Frc consts  --      1.3491                 1.3803                 1.3871
 IR Inten    --      0.2276                10.8580                 1.7759

                     37                     38                     39
                      A                      A                      A
 Frequencies --   1502.7530              1512.1760              1716.5859
 Red. masses --      1.0525                 1.1026                 5.6394
 Frc consts  --      1.4004                 1.4855                 9.7908
 IR Inten    --      4.7610                 7.6699                 8.2465

                     40                     41                     42
                      A                      A                      A
 Frequencies --   3027.3466              3028.2125              3033.9839
 Red. masses --      1.0392                 1.0379                 1.0395
 Frc consts  --      5.6115                 5.6078                 5.6377
 IR Inten    --     10.9880                17.9980                36.4828

                     43                     44                     45
                      A                      A                      A
 Frequencies --   3076.1119              3096.7279              3102.2470
 Red. masses --      1.0987                 1.0953                 1.0954
 Frc consts  --      6.1256                 6.1888                 6.2112
 IR Inten    --     19.9575                10.4608                53.6538

                     46                     47                     48
                      A                      A                      A
 Frequencies --   3116.8751              3125.8433              3129.0942
 Red. masses --      1.0991                 1.1026                 1.1022
 Frc consts  --      6.2912                 6.3473                 6.3583
 IR Inten    --     12.7401                 8.5829                32.5622

                     49                     50                     51
                      A                      A                      A
 Frequencies --   3154.5844              3256.8093              3820.5506
 Red. masses --      1.0643                 1.1104                 1.0661
 Frc consts  --      6.2405                 6.9391                 9.1685
 IR Inten    --     14.7866                 3.9550                12.0339

 - Thermochemistry -
 -------------------
 Temperature   298.150 Kelvin.  Pressure   1.00000 Atm.
 Atom     1 has atomic number  6 and mass  12.00000

 Molecular mass:   100.08882 amu.
 Principal axes and moments of inertia in atomic units:
                           1         2         3
     Eigenvalues --   561.74146 784.34718 943.98179
           X            0.99974   0.02260   0.00001
           Y           -0.02260   0.99974  -0.00003
           Z           -0.00001   0.00003   1.00000
 This molecule is an asymmetric top.
 Rotational symmetry number  1.
 Warning -- assumption of classical behavior for rotation
           may cause significant error
 Rotational temperatures (Kelvin)      0.15419     0.11043     0.09175
 Rotational constants (GHZ):           3.21276     2.30095     1.91184
 Zero-point vibrational energy     442314.1 (Joules/Mol)
                                  105.71562 (Kcal/Mol)
 Warning -- explicit consideration of  13 degrees of freedom as
           vibrations may cause significant error
 Vibrational temperatures:     42.42   258.51   304.14   358.62   384.46
          (Kelvin)            417.84   421.15   491.14   577.83   605.29
                              669.92   737.26   823.25   989.63  1084.82
                             1259.76  1313.73  1366.28  1377.49  1398.83
                             1460.36  1475.98  1552.12  1632.32  1711.05
                             1734.16  1835.71  1970.81  1999.39  2029.39
                             2040.37  2082.85  2122.54  2127.01  2148.07
                             2156.15  2162.12  2175.68  2469.78  4355.67
                             4356.92  4365.22  4425.83  4455.50  4463.44
                             4484.48  4497.39  4502.06  4538.74  4685.82
                             5496.91

 Zero-point correction=                           0.168469 (Hartree/Particle)
 Thermal correction to Energy=                    0.177420
 Thermal correction to Enthalpy=                  0.178365
 Thermal correction to Gibbs Free Energy=         0.135394
 Sum of electronic and zero-point Energies=           -310.924725
 Sum of electronic and thermal Energies=              -310.915773
 Sum of electronic and thermal Enthalpies=            -310.914829
 Sum of electronic and thermal Free Energies=         -310.957799

                     E (Thermal)             CV                S
                      KCal/Mol        Cal/Mol-Kelvin    Cal/Mol-Kelvin
 Total                  111.333             33.357             90.439
 Electronic               0.000              0.000              0.000
 Translational            0.889              2.981             39.721
 Rotational               0.889              2.981             27.522
 Vibrational            109.555             27.395             23.196
 Vibration     1          0.593              1.984              5.864
 Vibration     2          0.629              1.867              2.332
 Vibration     3          0.643              1.823              2.032
 Vibration     4          0.662              1.764              1.736
 Vibration     5          0.672              1.733              1.614
 Vibration     6          0.686              1.692              1.472
 Vibration     7          0.688              1.687              1.458
 Vibration     8          0.721              1.593              1.206
 Vibration     9          0.767              1.467              0.957
 Vibration    10          0.783              1.425              0.890
 Vibration    11          0.823              1.326              0.750
 Vibration    12          0.868              1.222              0.628
 Vibration    13          0.928              1.091              0.500

 Optimization completed.
    -- Stationary point found.
 Normal termination of Gaussian 09 at Tue Aug 30 12:16:07 2022.

 -----------------------------------------------------------------
 #P Geom=AllCheck Guess=TCheck SCRF=Check CCSD(T,E4T,FrzG4)/GTBas1
 -----------------------------------------------------------------

 Structure from the checkpoint file:  "G4.Frag_437.chk"
 --------
 Frag_437
 --------
 Charge =  0 Multiplicity = 1

 SCF Done:  E(RHF) =  -309.026365754     A.U. after   12 cycles
 E2 =    -0.9645613084D+00 EUMP2 =    -0.30999092706292D+03
 CCSD(T)
 CCSD(T)= -0.31009415692D+03
 =-310.0926115\MP4SDQ=-310.0603408\CCSD=-310.061439\CCSD(T)=-310.094156
 Normal termination of Gaussian 09 at Tue Aug 30 12:20:58 2022.

 ---------------------------------------------------------
 #P Geom=AllCheck Guess=TCheck SCRF=Check MP4=FrzG4/GTBas2
 ---------------------------------------------------------

 Structure from the checkpoint file:  "G4.Frag_437.chk"
 --------
 Frag_437
 --------
 Charge =  0 Multiplicity = 1

 SCF Done:  E(RHF) =  -309.035078844     A.U. after   12 cycles
 E2 =    -0.9772754040D+00 EUMP2 =    -0.31001235424786D+03
 Normal termination of Gaussian 09 at Tue Aug 30 12:22:37 2022.

 ---------------------------------------------------------
 #P Geom=AllCheck Guess=TCheck SCRF=Check MP4=FrzG4/GTBas3
 ---------------------------------------------------------

 Structure from the checkpoint file:  "G4.Frag_437.chk"
 --------
 Frag_437
 --------
 Charge =  0 Multiplicity = 1

 SCF Done:  E(RHF) =  -309.068007256     A.U. after   11 cycles
 E2 =    -0.1197048012D+01 EUMP2 =    -0.31026505526874D+03
 Normal termination of Gaussian 09 at Tue Aug 30 12:35:55 2022.

 -----------------------------------------------------------
 #P Geom=AllCheck Guess=TCheck SCRF=Check MP2=Full/GTLargeXP
 -----------------------------------------------------------

 Structure from the checkpoint file:  "G4.Frag_437.chk"
 --------
 Frag_437
 --------
 Charge =  0 Multiplicity = 1

 SCF Done:  E(RHF) =  -309.141017499     A.U. after   12 cycles
 E2 =    -0.1576549503D+01 EUMP2 =    -0.31071756700193D+03
 Normal termination of Gaussian 09 at Tue Aug 30 12:40:33 2022.
 SCF Done:  E(RHF) =  -309.165746147     A.U. after    8 cycles
 Normal termination of Gaussian 09 at Tue Aug 30 12:44:40 2022.

                         Standard orientation:
 ---------------------------------------------------------------------
 Center     Atomic      Atomic             Coordinates (Angstroms)
 Number     Number       Type             X           Y           Z
 ---------------------------------------------------------------------
      1          6           0        1.522256    1.354619    0.000062
      2          6           0        0.933433    0.160104    0.000008
      3          6           0        1.747685   -1.111675   -0.000057
      4          6           0       -0.587388    0.019920    0.000004
      5          6           0       -1.069209   -0.712554   -1.267575
      6          6           0       -1.069170   -0.713200    1.267245
      7          8           0       -1.128580    1.342681    0.000359
      8          1           0        0.949534    2.271834    0.000062
      9          1           0        2.604527    1.440274    0.000131
     10          1           0        2.815473   -0.880414   -0.000194
     11          1           0        1.541796   -1.733298    0.879088
     12          1           0        1.541611   -1.733343   -0.879142
     13          1           0       -0.692895   -1.737673   -1.321795
     14          1           0       -0.743938   -0.170150   -2.159096
     15          1           0       -2.164547   -0.765797   -1.274970
     16          1           0       -0.743742   -0.171350    2.159040
     17          1           0       -2.164517   -0.766288    1.274704
     18          1           0       -0.693016   -1.738407    1.320835
     19          1           0       -2.087293    1.259886    0.000330
 ---------------------------------------------------------------------

 SCF Done:  E(RHF) =  -309.170966205     A.U. after    8 cycles

 The electronic state is 1-A.
 Alpha  occ. eigenvalues --  -20.55033 -11.29270 -11.23042 -11.21991 -11.21881
 Alpha  occ. eigenvalues --  -11.21880 -11.20266  -1.36273  -1.09249  -1.01501
 Alpha  occ. eigenvalues --   -0.94185  -0.92894  -0.82981  -0.71007  -0.67324
 Alpha  occ. eigenvalues --   -0.64493  -0.61067  -0.58046  -0.57901  -0.57599
 Alpha  occ. eigenvalues --   -0.54605  -0.53352  -0.53065  -0.51032  -0.48677
 Alpha  occ. eigenvalues --   -0.45805  -0.44131  -0.34521
 Alpha virt. eigenvalues --    0.03106   0.03943   0.04302   0.04736   0.05988
 Alpha virt. eigenvalues --    0.06550   0.06574   0.06711   0.07423   0.08989
 Alpha virt. eigenvalues --    0.09603   0.09616   0.10043   0.10192   0.10609

 Mulliken charges:
               1
     1  C   -0.482003
     2  C    0.088221
     3  C   -0.608892
     4  C    0.482618
     5  C   -0.577267
     6  C   -0.577278
     7  O   -0.650865
     8  H    0.215900
     9  H    0.176529
    10  H    0.170721
    11  H    0.175097
    12  H    0.175091
    13  H    0.174704
    14  H    0.190048
    15  H    0.157229
    16  H    0.190051
    17  H    0.157230
    18  H    0.174708
    19  H    0.368157
 Sum of Mulliken charges =  -0.00000

 Dipole moment (field-independent basis, Debye):
    X=             -1.0138    Y=             -1.7560    Z=             -0.0004  Tot=              2.0276
 Quadrupole moment (field-independent basis, Debye-Ang):
   XX=            -40.5711   YY=            -47.2252   ZZ=            -47.1279
   XY=             -0.4970   XZ=              0.0001   YZ=             -0.0006

 Normal termination of Gaussian 09 at Tue Aug 30 12:59:11 2022.
