 Gaussian 09, Revision E.01,
 Gaussian 09:  ES64L-G09RevE.01 30-Nov-2015

 -----
 #P G4
 -----

 --------
 Frag_897
 --------
 Symbolic Z-matrix:
 Charge =  0 Multiplicity = 1

 SCF Done:  E(RB3LYP) =  -285.164918838     A.U. after   12 cycles
 SCF Done:  E(RB3LYP) =  -285.171532786     A.U. after   11 cycles
 SCF Done:  E(RB3LYP) =  -285.171821277     A.U. after   11 cycles
 SCF Done:  E(RB3LYP) =  -285.171908896     A.U. after    9 cycles
 SCF Done:  E(RB3LYP) =  -285.171933389     A.U. after    9 cycles
 SCF Done:  E(RB3LYP) =  -285.171939577     A.U. after    8 cycles
 SCF Done:  E(RB3LYP) =  -285.171940921     A.U. after    7 cycles
 SCF Done:  E(RB3LYP) =  -285.171941054     A.U. after    6 cycles
 Optimization completed.
    -- Stationary point found.
 Normal termination of Gaussian 09 at Fri Aug 26 09:03:57 2022.

 ----------------------------------------------------------
 #P Geom=AllCheck Guess=TCheck SCRF=Check B3LYP/GTBas3 Freq
 ----------------------------------------------------------

 Structure from the checkpoint file:  "G4.Frag_897.chk"
 --------
 Frag_897
 --------
 Charge =  0 Multiplicity = 1

 SCF Done:  E(RB3LYP) =  -285.171941054     A.U. after    1 cycles

  Exact polarizability:  61.550   0.889  56.903   0.251  -0.509  53.216
 Approx polarizability:  81.788   2.653  79.643  -0.736  -0.278  76.035

                      1                      2                      3
                      A                      A                      A
 Frequencies --    116.4715               203.3727               258.8661
 Red. masses --      2.5537                 1.0724                 1.9078
 Frc consts  --      0.0204                 0.0261                 0.0753
 IR Inten    --      1.3685                 5.1309                 3.1935

                      4                      5                      6
                      A                      A                      A
 Frequencies --    263.3948               282.4109               302.5773
 Red. masses --      1.1579                 1.0885                 1.4043
 Frc consts  --      0.0473                 0.0511                 0.0757
 IR Inten    --      8.3424                17.6281                23.4078

                      7                      8                      9
                      A                      A                      A
 Frequencies --    310.0200               387.6572               462.4648
 Red. masses --      2.2242                 2.4857                 2.3223
 Frc consts  --      0.1260                 0.2201                 0.2926
 IR Inten    --     12.2403                 7.3716                 8.9995

                     10                     11                     12
                      A                      A                      A
 Frequencies --    497.9197               567.1766               760.4730
 Red. masses --      2.8899                 2.8749                 2.6606
 Frc consts  --      0.4221                 0.5449                 0.9066
 IR Inten    --      6.7855                13.1041                48.8323

                     13                     14                     15
                      A                      A                      A
 Frequencies --    851.7197               900.3897               942.8181
 Red. masses --      1.4823                 2.2287                 1.7440
 Frc consts  --      0.6335                 1.0646                 0.9134
 IR Inten    --     70.7902                23.9646                70.2424

                     16                     17                     18
                      A                      A                      A
 Frequencies --    977.5778              1013.3143              1104.2430
 Red. masses --      1.4767                 1.8641                 1.7756
 Frc consts  --      0.8315                 1.1277                 1.2756
 IR Inten    --     12.8194                40.3768                28.7972

                     19                     20                     21
                      A                      A                      A
 Frequencies --   1146.1363              1163.9779              1211.6470
 Red. masses --      1.8170                 1.5259                 2.0711
 Frc consts  --      1.4063                 1.2180                 1.7914
 IR Inten    --     10.9034                23.5175                10.4515

                     22                     23                     24
                      A                      A                      A
 Frequencies --   1232.5361              1286.0583              1345.6148
 Red. masses --      2.1179                 1.4727                 1.4470
 Frc consts  --      1.8957                 1.4351                 1.5437
 IR Inten    --      2.3100                 6.4228                14.6151

                     25                     26                     27
                      A                      A                      A
 Frequencies --   1374.2416              1397.3975              1422.3562
 Red. masses --      1.4027                 1.2679                 1.3218
 Frc consts  --      1.5608                 1.4587                 1.5756
 IR Inten    --     15.4830                13.0432                27.6521

                     28                     29                     30
                      A                      A                      A
 Frequencies --   1438.9856              1482.5651              1495.8917
 Red. masses --      1.1848                 1.0545                 1.0570
 Frc consts  --      1.4454                 1.3656                 1.3936
 IR Inten    --      5.4187                 0.8749                11.3355

                     31                     32                     33
                      A                      A                      A
 Frequencies --   1496.4713              1515.4838              1636.6742
 Red. masses --      1.0504                 1.0575                 1.1017
 Frc consts  --      1.3860                 1.4310                 1.7388
 IR Inten    --      1.7891                 1.8730                35.8053

                     34                     35                     36
                      A                      A                      A
 Frequencies --   1667.6627              2921.6565              2950.9359
 Red. masses --      1.0850                 1.0824                 1.0600
 Frc consts  --      1.7778                 5.4440                 5.4387
 IR Inten    --     12.8190                82.4691                66.0575

                     37                     38                     39
                      A                      A                      A
 Frequencies --   3036.7944              3088.5168              3096.2471
 Red. masses --      1.0362                 1.0716                 1.1001
 Frc consts  --      5.6304                 6.0225                 6.2136
 IR Inten    --     15.5655                32.5770                27.3477

                     40                     41                     42
                      A                      A                      A
 Frequencies --   3124.9766              3143.8780              3358.0940
 Red. masses --      1.1010                 1.1029                 1.0565
 Frc consts  --      6.3350                 6.4226                 7.0195
 IR Inten    --     19.9830                10.3558                24.9310

                     43                     44                     45
                      A                      A                      A
 Frequencies --   3497.8469              3525.8846              3584.9546
 Red. masses --      1.0488                 1.0830                 1.0931
 Frc consts  --      7.5601                 7.9326                 8.2770
 IR Inten    --      0.3365                 0.2522                 0.4681

 - Thermochemistry -
 -------------------
 Temperature   298.150 Kelvin.  Pressure   1.00000 Atm.
 Atom     1 has atomic number  6 and mass  12.00000

 Molecular mass:    89.09530 amu.
 Principal axes and moments of inertia in atomic units:
                           1         2         3
     Eigenvalues --   391.64024 654.34057 739.45486
           X            0.99957  -0.02504   0.01530
           Y            0.02528   0.99956  -0.01553
           Z           -0.01490   0.01591   0.99976
 This molecule is an asymmetric top.
 Rotational symmetry number  1.
 Rotational temperatures (Kelvin)      0.22116     0.13237     0.11713
 Rotational constants (GHZ):           4.60816     2.75811     2.44064
 Zero-point vibrational energy     405811.3 (Joules/Mol)
                                   96.99123 (Kcal/Mol)
 Warning -- explicit consideration of  11 degrees of freedom as
           vibrations may cause significant error
 Vibrational temperatures:    167.58   292.61   372.45   378.97   406.33
          (Kelvin)            435.34   446.05   557.75   665.38   716.39
                              816.04  1094.15  1225.43  1295.46  1356.50
                             1406.51  1457.93  1588.76  1649.03  1674.70
                             1743.29  1773.34  1850.35  1936.04  1977.22
                             2010.54  2046.45  2070.38  2133.08  2152.25
                             2153.09  2180.44  2354.81  2399.39  4203.61
                             4245.73  4369.26  4443.68  4454.80  4496.14
                             4523.33  4831.54  5032.62  5072.96  5157.94

 Zero-point correction=                           0.154565 (Hartree/Particle)
 Thermal correction to Energy=                    0.162347
 Thermal correction to Enthalpy=                  0.163291
 Thermal correction to Gibbs Free Energy=         0.123767
 Sum of electronic and zero-point Energies=           -285.017376
 Sum of electronic and thermal Energies=              -285.009594
 Sum of electronic and thermal Enthalpies=            -285.008650
 Sum of electronic and thermal Free Energies=         -285.048174

                     E (Thermal)             CV                S
                      KCal/Mol        Cal/Mol-Kelvin    Cal/Mol-Kelvin
 Total                  101.874             28.650             83.186
 Electronic               0.000              0.000              0.000
 Translational            0.889              2.981             39.374
 Rotational               0.889              2.981             26.741
 Vibrational            100.097             22.688             17.071
 Vibration     1          0.608              1.936              3.158
 Vibration     2          0.639              1.835              2.102
 Vibration     3          0.668              1.748              1.669
 Vibration     4          0.670              1.740              1.639
 Vibration     5          0.681              1.706              1.519
 Vibration     6          0.694              1.669              1.403
 Vibration     7          0.699              1.655              1.362
 Vibration     8          0.756              1.497              1.009
 Vibration     9          0.820              1.333              0.759
 Vibration    10          0.853              1.255              0.663
 Vibration    11          0.923              1.102              0.510

 Optimization completed.
    -- Stationary point found.
 Normal termination of Gaussian 09 at Fri Aug 26 09:04:39 2022.

 -----------------------------------------------------------------
 #P Geom=AllCheck Guess=TCheck SCRF=Check CCSD(T,E4T,FrzG4)/GTBas1
 -----------------------------------------------------------------

 Structure from the checkpoint file:  "G4.Frag_897.chk"
 --------
 Frag_897
 --------
 Charge =  0 Multiplicity = 1

 SCF Done:  E(RHF) =  -283.289686055     A.U. after   12 cycles
 E2 =    -0.8899876437D+00 EUMP2 =    -0.28417967369822D+03
 CCSD(T)
 CCSD(T)= -0.28426928409D+03
 906\CCSD=-284.2424026\CCSD(T)=-284.2692841\RMSD=3.534e-09\PG=C01 [X(C3
 Normal termination of Gaussian 09 at Fri Aug 26 09:07:12 2022.

 ---------------------------------------------------------
 #P Geom=AllCheck Guess=TCheck SCRF=Check MP4=FrzG4/GTBas2
 ---------------------------------------------------------

 Structure from the checkpoint file:  "G4.Frag_897.chk"
 --------
 Frag_897
 --------
 Charge =  0 Multiplicity = 1

 SCF Done:  E(RHF) =  -283.299267014     A.U. after   12 cycles
 E2 =    -0.9046202822D+00 EUMP2 =    -0.28420388729617D+03
 Normal termination of Gaussian 09 at Fri Aug 26 09:08:06 2022.

 ---------------------------------------------------------
 #P Geom=AllCheck Guess=TCheck SCRF=Check MP4=FrzG4/GTBas3
 ---------------------------------------------------------

 Structure from the checkpoint file:  "G4.Frag_897.chk"
 --------
 Frag_897
 --------
 Charge =  0 Multiplicity = 1

 SCF Done:  E(RHF) =  -283.331442313     A.U. after   11 cycles
 E2 =    -0.1100407607D+01 EUMP2 =    -0.28443184992053D+03
 Normal termination of Gaussian 09 at Fri Aug 26 09:13:12 2022.

 -----------------------------------------------------------
 #P Geom=AllCheck Guess=TCheck SCRF=Check MP2=Full/GTLargeXP
 -----------------------------------------------------------

 Structure from the checkpoint file:  "G4.Frag_897.chk"
 --------
 Frag_897
 --------
 Charge =  0 Multiplicity = 1

 SCF Done:  E(RHF) =  -283.402273040     A.U. after   11 cycles
 E2 =    -0.1435765651D+01 EUMP2 =    -0.28483803869115D+03
 Normal termination of Gaussian 09 at Fri Aug 26 09:15:26 2022.
 SCF Done:  E(RHF) =  -283.424082047     A.U. after    8 cycles
 Normal termination of Gaussian 09 at Fri Aug 26 09:18:10 2022.

                         Standard orientation:
 ---------------------------------------------------------------------
 Center     Atomic      Atomic             Coordinates (Angstroms)
 Number     Number       Type             X           Y           Z
 ---------------------------------------------------------------------
      1          6           0       -1.092665    1.121596    0.798251
      2          6           0       -0.666244    0.242883   -0.388116
      3          7           0       -1.568931   -0.899527   -0.483755
      4          7           0        0.704880   -0.290294   -0.335473
      5          6           0        1.032173   -1.046705    0.864932
      6          7           0        1.716651    0.682571   -0.569184
      7          1           0       -2.068029    1.579979    0.602473
      8          1           0       -0.381977    1.937627    0.964870
      9          1           0       -1.172543    0.530009    1.713646
     10          1           0       -0.671778    0.876375   -1.293530
     11          1           0       -1.356733   -1.422401   -1.327924
     12          1           0       -2.531730   -0.585501   -0.547192
     13          1           0        1.976646   -1.570147    0.700773
     14          1           0        1.147994   -0.416170    1.764074
     15          1           0        0.236601   -1.771343    1.047130
     16          1           0        1.552939    1.526318   -0.010427
     17          1           0        1.660827    0.959358   -1.545412
 ---------------------------------------------------------------------

 SCF Done:  E(RHF) =  -283.428933213     A.U. after    8 cycles

 The electronic state is 1-A.
 Alpha  occ. eigenvalues --  -15.56624 -15.56561 -15.54004 -11.28459 -11.22710
 Alpha  occ. eigenvalues --  -11.21787  -1.28645  -1.18054  -1.04646  -0.98685
 Alpha  occ. eigenvalues --   -0.89606  -0.77954  -0.68144  -0.67684  -0.66022
 Alpha  occ. eigenvalues --   -0.61504  -0.58739  -0.55012  -0.54009  -0.52250
 Alpha  occ. eigenvalues --   -0.52034  -0.50513  -0.41578  -0.39741  -0.35754
 Alpha virt. eigenvalues --    0.03378   0.04116   0.04709   0.04992   0.06888
 Alpha virt. eigenvalues --    0.07219   0.07311   0.07543   0.08012   0.09728
 Alpha virt. eigenvalues --    0.11113   0.11275   0.11926   0.12383   0.13042

 Mulliken charges:
               1
     1  C   -0.558508
     2  C    0.119044
     3  N   -0.730946
     4  N   -0.001915
     5  C   -0.492464
     6  N   -0.686942
     7  H    0.162084
     8  H    0.156532
     9  H    0.186706
    10  H    0.149664
    11  H    0.301734
    12  H    0.288894
    13  H    0.185791
    14  H    0.136567
    15  H    0.207931
    16  H    0.277449
    17  H    0.298378
 Sum of Mulliken charges =  -0.00000

 Dipole moment (field-independent basis, Debye):
    X=             -1.7229    Y=              1.7399    Z=             -0.6897  Tot=              2.5439
 Quadrupole moment (field-independent basis, Debye-Ang):
   XX=            -41.4125   YY=            -38.5294   ZZ=            -37.1785
   XY=              0.2262   XZ=              2.2247   YZ=             -0.1317

 Normal termination of Gaussian 09 at Fri Aug 26 09:27:20 2022.
