 Gaussian 09, Revision E.01,
 Gaussian 09:  ES64L-G09RevE.01 30-Nov-2015

 -----
 #P G4
 -----

 --------
 Frag_927
 --------
 Symbolic Z-matrix:
 Charge =  0 Multiplicity = 1

 SCF Done:  E(RB3LYP) =  -283.978754891     A.U. after   13 cycles
 SCF Done:  E(RB3LYP) =  -283.988676737     A.U. after   12 cycles
 SCF Done:  E(RB3LYP) =  -283.990132616     A.U. after   11 cycles
 SCF Done:  E(RB3LYP) =  -283.990959783     A.U. after   12 cycles
 SCF Done:  E(RB3LYP) =  -283.991879692     A.U. after   13 cycles
 SCF Done:  E(RB3LYP) =  -283.991551498     A.U. after   14 cycles
 SCF Done:  E(RB3LYP) =  -283.992735164     A.U. after   12 cycles
 SCF Done:  E(RB3LYP) =  -283.993428745     A.U. after   11 cycles
 SCF Done:  E(RB3LYP) =  -283.993916165     A.U. after   11 cycles
 SCF Done:  E(RB3LYP) =  -283.994042652     A.U. after   11 cycles
 SCF Done:  E(RB3LYP) =  -283.995614089     A.U. after    7 cycles
 SCF Done:  E(RB3LYP) =  -283.995614190     A.U. after    7 cycles
 SCF Done:  E(RB3LYP) =  -283.995614224     A.U. after    7 cycles
 Optimization completed.
    -- Stationary point found.
 Normal termination of Gaussian 09 at Fri Aug 26 05:10:55 2022.

 ----------------------------------------------------------
 #P Geom=AllCheck Guess=TCheck SCRF=Check B3LYP/GTBas3 Freq
 ----------------------------------------------------------

 Structure from the checkpoint file:  "G4.Frag_927.chk"
 --------
 Frag_927
 --------
 Charge =  0 Multiplicity = 1

 SCF Done:  E(RB3LYP) =  -283.995614224     A.U. after    1 cycles

  Exact polarizability:  58.073  -1.179  57.398   1.380  -3.839  47.074
 Approx polarizability:  73.951  -2.713  87.077   2.744  -9.652  72.338

                      1                      2                      3
                      A                      A                      A
 Frequencies --     62.6186               141.8658               220.4686
 Red. masses --      3.3855                 1.0773                 1.1387
 Frc consts  --      0.0078                 0.0128                 0.0326
 IR Inten    --      2.7415                 0.0502                35.9640

                      4                      5                      6
                      A                      A                      A
 Frequencies --    257.2024               284.8477               333.4682
 Red. masses --      2.9218                 1.7084                 1.4682
 Frc consts  --      0.1139                 0.0817                 0.0962
 IR Inten    --      4.9298                31.4558                16.9344

                      7                      8                      9
                      A                      A                      A
 Frequencies --    378.8422               481.5393               575.0263
 Red. masses --      2.8291                 2.4647                 3.2249
 Frc consts  --      0.2392                 0.3367                 0.6283
 IR Inten    --     13.9502                26.9840                 3.5911

                     10                     11                     12
                      A                      A                      A
 Frequencies --    619.8256               776.1508               875.0612
 Red. masses --      2.6077                 2.6094                 1.6817
 Frc consts  --      0.5903                 0.9261                 0.7587
 IR Inten    --      5.9773                12.0042                53.5901

                     13                     14                     15
                      A                      A                      A
 Frequencies --    910.0982               942.0799               969.0275
 Red. masses --      1.4686                 1.5671                 2.1039
 Frc consts  --      0.7167                 0.8195                 1.1640
 IR Inten    --     97.6134               185.3398                 2.5935

                     16                     17                     18
                      A                      A                      A
 Frequencies --   1049.4339              1075.9152              1093.6860
 Red. masses --      1.4661                 1.5012                 1.5410
 Frc consts  --      0.9513                 1.0239                 1.0861
 IR Inten    --     54.8726                16.1374                48.3260

                     19                     20                     21
                      A                      A                      A
 Frequencies --   1150.7170              1167.4099              1257.8976
 Red. masses --      2.0036                 1.4181                 1.5634
 Frc consts  --      1.5632                 1.1387                 1.4575
 IR Inten    --     24.2367                25.2664                26.8237

                     22                     23                     24
                      A                      A                      A
 Frequencies --   1353.3081              1394.4087              1404.3728
 Red. masses --      1.5435                 1.3217                 1.3187
 Frc consts  --      1.6655                 1.5142                 1.5324
 IR Inten    --     27.3235                30.3670                14.0914

                     25                     26                     27
                      A                      A                      A
 Frequencies --   1427.8755              1468.9122              1486.3105
 Red. masses --      1.4013                 1.0537                 1.0685
 Frc consts  --      1.6833                 1.3395                 1.3908
 IR Inten    --      6.1538                 7.1445                20.0973

                     28                     29                     30
                      A                      A                      A
 Frequencies --   1661.5659              1671.1047              1735.5027
 Red. masses --      1.0943                 1.0958                 7.8804
 Frc consts  --      1.7799                 1.8030                13.9846
 IR Inten    --     29.5651                19.0871                49.9246

                     31                     32                     33
                      A                      A                      A
 Frequencies --   3022.3961              3031.7550              3096.7780
 Red. masses --      1.0782                 1.0433                 1.0956
 Frc consts  --      5.8030                 5.6499                 6.1902
 IR Inten    --     19.5800                20.8547                14.1456

                     34                     35                     36
                      A                      A                      A
 Frequencies --   3127.4089              3434.7380              3460.1293
 Red. masses --      1.1027                 1.0745                 1.0501
 Frc consts  --      6.3547                 7.4684                 7.4075
 IR Inten    --     11.2934                 4.1511                 3.6039

                     37                     38                     39
                      A                      A                      A
 Frequencies --   3472.3486              3533.6232              3550.2852
 Red. masses --      1.0497                 1.0894                 1.0909
 Frc consts  --      7.4567                 8.0143                 8.1012
 IR Inten    --      0.2050                 4.3573                 1.1691

 - Thermochemistry -
 -------------------
 Temperature   298.150 Kelvin.  Pressure   1.00000 Atm.
 Atom     1 has atomic number  6 and mass  12.00000

 Molecular mass:    87.07965 amu.
 Principal axes and moments of inertia in atomic units:
                           1         2         3
     Eigenvalues --   372.75166 601.60908 810.83395
           X            0.99940   0.03316  -0.00982
           Y           -0.03318   0.99945  -0.00206
           Z            0.00974   0.00239   0.99995
 This molecule is an asymmetric top.
 Rotational symmetry number  1.
 Rotational temperatures (Kelvin)      0.23236     0.14397     0.10682
 Rotational constants (GHZ):           4.84167     2.99986     2.22578
 Zero-point vibrational energy     346653.9 (Joules/Mol)
                                   82.85227 (Kcal/Mol)
 Warning -- explicit consideration of  10 degrees of freedom as
           vibrations may cause significant error
 Vibrational temperatures:     90.09   204.11   317.20   370.06   409.83
          (Kelvin)            479.79   545.07   692.83   827.33   891.79
                             1116.71  1259.02  1309.43  1355.44  1394.21
                             1509.90  1548.00  1573.57  1655.62  1679.64
                             1809.83  1947.11  2006.24  2020.58  2054.39
                             2113.43  2138.47  2390.62  2404.34  2497.00
                             4348.55  4362.01  4455.57  4499.64  4941.82
                             4978.35  4995.93  5084.09  5108.06

 Zero-point correction=                           0.132033 (Hartree/Particle)
 Thermal correction to Energy=                    0.139518
 Thermal correction to Enthalpy=                  0.140463
 Thermal correction to Gibbs Free Energy=         0.100838
 Sum of electronic and zero-point Energies=           -283.863581
 Sum of electronic and thermal Energies=              -283.856096
 Sum of electronic and thermal Enthalpies=            -283.855152
 Sum of electronic and thermal Free Energies=         -283.894776

                     E (Thermal)             CV                S
                      KCal/Mol        Cal/Mol-Kelvin    Cal/Mol-Kelvin
 Total                   87.549             26.427             83.397
 Electronic               0.000              0.000              0.000
 Translational            0.889              2.981             39.306
 Rotational               0.889              2.981             26.700
 Vibrational             85.772             20.465             17.392
 Vibration     1          0.597              1.972              4.373
 Vibration     2          0.615              1.911              2.779
 Vibration     3          0.647              1.810              1.955
 Vibration     4          0.667              1.751              1.681
 Vibration     5          0.683              1.702              1.504
 Vibration     6          0.715              1.609              1.243
 Vibration     7          0.749              1.515              1.044
 Vibration     8          0.838              1.291              0.706
 Vibration     9          0.931              1.085              0.495
 Vibration    10          0.980              0.990              0.417

 Optimization completed.
    -- Stationary point found.
 Normal termination of Gaussian 09 at Fri Aug 26 05:11:31 2022.

 -----------------------------------------------------------------
 #P Geom=AllCheck Guess=TCheck SCRF=Check CCSD(T,E4T,FrzG4)/GTBas1
 -----------------------------------------------------------------

 Structure from the checkpoint file:  "G4.Frag_927.chk"
 --------
 Frag_927
 --------
 Charge =  0 Multiplicity = 1

 SCF Done:  E(RHF) =  -282.162011645     A.U. after   13 cycles
 E2 =    -0.8782928321D+00 EUMP2 =    -0.28304030447748D+03
 CCSD(T)
 CCSD(T)= -0.28312350557D+03
 194\CCSD(T)=-283.1235056\RMSD=4.618e-09\PG=C01 [X(C3H9N3)]\\@
 Normal termination of Gaussian 09 at Fri Aug 26 05:13:42 2022.

 ---------------------------------------------------------
 #P Geom=AllCheck Guess=TCheck SCRF=Check MP4=FrzG4/GTBas2
 ---------------------------------------------------------

 Structure from the checkpoint file:  "G4.Frag_927.chk"
 --------
 Frag_927
 --------
 Charge =  0 Multiplicity = 1

 SCF Done:  E(RHF) =  -282.172606814     A.U. after   13 cycles
 E2 =    -0.8919541024D+00 EUMP2 =    -0.28306456091612D+03
 Normal termination of Gaussian 09 at Fri Aug 26 05:14:24 2022.

 ---------------------------------------------------------
 #P Geom=AllCheck Guess=TCheck SCRF=Check MP4=FrzG4/GTBas3
 ---------------------------------------------------------

 Structure from the checkpoint file:  "G4.Frag_927.chk"
 --------
 Frag_927
 --------
 Charge =  0 Multiplicity = 1

 SCF Done:  E(RHF) =  -282.203229105     A.U. after   11 cycles
 E2 =    -0.1072454209D+01 EUMP2 =    -0.28327568331387D+03
 Normal termination of Gaussian 09 at Fri Aug 26 05:18:26 2022.

 -----------------------------------------------------------
 #P Geom=AllCheck Guess=TCheck SCRF=Check MP2=Full/GTLargeXP
 -----------------------------------------------------------

 Structure from the checkpoint file:  "G4.Frag_927.chk"
 --------
 Frag_927
 --------
 Charge =  0 Multiplicity = 1

 SCF Done:  E(RHF) =  -282.275159224     A.U. after   12 cycles
 E2 =    -0.1403739165D+01 EUMP2 =    -0.28367889838931D+03
 Normal termination of Gaussian 09 at Fri Aug 26 05:20:28 2022.
 SCF Done:  E(RHF) =  -282.296808564     A.U. after    8 cycles
 Normal termination of Gaussian 09 at Fri Aug 26 05:22:32 2022.

                         Standard orientation:
 ---------------------------------------------------------------------
 Center     Atomic      Atomic             Coordinates (Angstroms)
 Number     Number       Type             X           Y           Z
 ---------------------------------------------------------------------
      1          6           0        1.858264    0.689482   -0.361330
      2          6           0        0.729288   -0.248864   -0.015475
      3          7           0        0.837632   -1.378312    0.558658
      4          6           0       -0.684131    0.245838   -0.360788
      5          7           0       -1.711825   -0.790381   -0.374438
      6          7           0       -0.974927    1.331682    0.579717
      7          1           0        1.650070    1.683700    0.044001
      8          1           0        2.816500    0.328581    0.022156
      9          1           0        1.939190    0.799227   -1.449821
     10          1           0        1.814034   -1.588466    0.778707
     11          1           0       -0.654211    0.696358   -1.361854
     12          1           0       -1.487990   -1.451455    0.369119
     13          1           0       -1.629340   -1.332072   -1.231926
     14          1           0       -1.916914    1.663393    0.388239
     15          1           0       -1.008025    0.941081    1.519373
 ---------------------------------------------------------------------

 SCF Done:  E(RHF) =  -282.301450533     A.U. after    8 cycles

 The electronic state is 1-A.
 Alpha  occ. eigenvalues --  -15.54689 -15.54327 -15.53438 -11.28975 -11.28737
 Alpha  occ. eigenvalues --  -11.23323  -1.24584  -1.18974  -1.12520  -0.99647
 Alpha  occ. eigenvalues --   -0.88988  -0.75925  -0.67785  -0.65710  -0.62559
 Alpha  occ. eigenvalues --   -0.61801  -0.59875  -0.57177  -0.54907  -0.51240
 Alpha  occ. eigenvalues --   -0.43686  -0.42709  -0.41245  -0.39651
 Alpha virt. eigenvalues --    0.03230   0.04412   0.05056   0.05284   0.07005
 Alpha virt. eigenvalues --    0.07182   0.07434   0.08147   0.08265   0.10075
 Alpha virt. eigenvalues --    0.11571   0.11841   0.12403   0.13100   0.13363

 Mulliken charges:
               1
     1  C   -0.567225
     2  C    0.301304
     3  N   -0.648153
     4  C    0.122876
     5  N   -0.678656
     6  N   -0.702209
     7  H    0.228525
     8  H    0.162325
     9  H    0.181772
    10  H    0.277653
    11  H    0.153538
    12  H    0.305580
    13  H    0.275431
    14  H    0.301116
    15  H    0.286122
 Sum of Mulliken charges =  -0.00000

 Dipole moment (field-independent basis, Debye):
    X=              1.5493    Y=              0.4923    Z=             -0.8580  Tot=              1.8381
 Quadrupole moment (field-independent basis, Debye-Ang):
   XX=            -37.0177   YY=            -41.7068   ZZ=            -35.3215
   XY=             -1.2890   XZ=             -0.3536   YZ=              0.5246

 Normal termination of Gaussian 09 at Fri Aug 26 05:30:13 2022.
