 Gaussian 09, Revision E.01,
 Gaussian 09:  ES64L-G09RevE.01 30-Nov-2015

 -----
 #P G4
 -----

 --------
 Frag_892
 --------
 Symbolic Z-matrix:
 Charge =  0 Multiplicity = 1

 SCF Done:  E(RB3LYP) =  -248.484251868     A.U. after   13 cycles
 SCF Done:  E(RB3LYP) =  -248.489066463     A.U. after   12 cycles
 SCF Done:  E(RB3LYP) =  -248.490314921     A.U. after   13 cycles
 SCF Done:  E(RB3LYP) =  -248.491926388     A.U. after   15 cycles
 SCF Done:  E(RB3LYP) =  -248.493146218     A.U. after   11 cycles
 SCF Done:  E(RB3LYP) =  -248.494421786     A.U. after   12 cycles
 SCF Done:  E(RB3LYP) =  -248.494848666     A.U. after   13 cycles
 SCF Done:  E(RB3LYP) =  -248.495003642     A.U. after   11 cycles
 SCF Done:  E(RB3LYP) =  -248.495044412     A.U. after   10 cycles
 SCF Done:  E(RB3LYP) =  -248.495054675     A.U. after    9 cycles
 SCF Done:  E(RB3LYP) =  -248.495061989     A.U. after    8 cycles
 SCF Done:  E(RB3LYP) =  -248.495062651     A.U. after    7 cycles
 SCF Done:  E(RB3LYP) =  -248.495062727     A.U. after    6 cycles
 Optimization completed.
    -- Stationary point found.
 Normal termination of Gaussian 09 at Wed Aug 24 09:52:04 2022.

 ----------------------------------------------------------
 #P Geom=AllCheck Guess=TCheck SCRF=Check B3LYP/GTBas3 Freq
 ----------------------------------------------------------

 Structure from the checkpoint file:  "G4.Frag_892.chk"
 --------
 Frag_892
 --------
 Charge =  0 Multiplicity = 1

 SCF Done:  E(RB3LYP) =  -248.495062727     A.U. after    1 cycles

  Exact polarizability:  57.502   0.303  38.474  -1.903  -1.016  38.844
 Approx polarizability:  78.928   3.497  52.817  -6.616  -2.663  59.003

                      1                      2                      3
                      A                      A                      A
 Frequencies --     89.0471               212.2525               250.6032
 Red. masses --      2.9896                 1.1000                 1.0489
 Frc consts  --      0.0140                 0.0292                 0.0388
 IR Inten    --      6.0809                31.5145                66.8570

                      4                      5                      6
                      A                      A                      A
 Frequencies --    356.9254               379.9978               419.9890
 Red. masses --      2.6341                 2.4384                 2.5778
 Frc consts  --      0.1977                 0.2075                 0.2679
 IR Inten    --      1.4992                 3.0486                18.9319

                      7                      8                      9
                      A                      A                      A
 Frequencies --    582.6836               751.2432               842.6109
 Red. masses --      3.6981                 1.3539                 2.1301
 Frc consts  --      0.7398                 0.4502                 0.8911
 IR Inten    --      3.5183                 1.9349                 8.0729

                     10                     11                     12
                      A                      A                      A
 Frequencies --    946.0262              1048.8960              1073.6170
 Red. masses --      2.0529                 2.2283                 1.3658
 Frc consts  --      1.0825                 1.4444                 0.9275
 IR Inten    --     20.7893                59.8945                10.9352

                     13                     14                     15
                      A                      A                      A
 Frequencies --   1110.2986              1164.0890              1230.2745
 Red. masses --      1.6870                 2.5465                 1.7115
 Frc consts  --      1.2253                 2.0331                 1.5262
 IR Inten    --      9.6578                64.7122                27.9147

                     16                     17                     18
                      A                      A                      A
 Frequencies --   1284.4380              1380.8234              1393.0028
 Red. masses --      1.1667                 1.1846                 1.2326
 Frc consts  --      1.1341                 1.3307                 1.4092
 IR Inten    --     72.3106                33.6535                 5.2415

                     19                     20                     21
                      A                      A                      A
 Frequencies --   1435.5458              1481.2743              1489.4711
 Red. masses --      1.5563                 1.0517                 1.0612
 Frc consts  --      1.8896                 1.3596                 1.3871
 IR Inten    --     33.5914                 1.3342                 5.6978

                     22                     23                     24
                      A                      A                      A
 Frequencies --   1497.7194              1736.8085              2889.6860
 Red. masses --      1.1424                 6.4512                 1.0814
 Frc consts  --      1.5098                11.4655                 5.3201
 IR Inten    --     17.1353                26.7840                77.9709

                     25                     26                     27
                      A                      A                      A
 Frequencies --   2991.4767              3051.9509              3130.9433
 Red. masses --      1.0657                 1.0339                 1.1024
 Frc consts  --      5.6188                 5.6737                 6.3673
 IR Inten    --     49.8888                11.1807                17.8959

                     28                     29                     30
                      A                      A                      A
 Frequencies --   3133.6503              3138.5775              3816.3870
 Red. masses --      1.1031                 1.1026                 1.0660
 Frc consts  --      6.3819                 6.3995                 9.1478
 IR Inten    --     28.6030                15.0114                20.5091

 - Thermochemistry -
 -------------------
 Temperature   298.150 Kelvin.  Pressure   1.00000 Atm.
 Atom     1 has atomic number  6 and mass  12.00000

 Molecular mass:    73.05276 amu.
 Principal axes and moments of inertia in atomic units:
                           1         2         3
     Eigenvalues --   213.99782 448.40617 592.43878
           X            0.99855  -0.05202  -0.01384
           Y            0.05207   0.99864   0.00354
           Z            0.01364  -0.00425   0.99990
 This molecule is an asymmetric top.
 Rotational symmetry number  1.
 Rotational temperatures (Kelvin)      0.40474     0.19316     0.14620
 Rotational constants (GHZ):           8.43346     4.02479     3.04629
 Zero-point vibrational energy     265034.5 (Joules/Mol)
                                   63.34477 (Kcal/Mol)
 Warning -- explicit consideration of   7 degrees of freedom as
           vibrations may cause significant error
 Vibrational temperatures:    128.12   305.38   360.56   513.54   546.73
          (Kelvin)            604.27   838.35  1080.87  1212.33  1361.12
                             1509.13  1544.69  1597.47  1674.86  1770.09
                             1848.02  1986.69  2004.22  2065.43  2131.22
                             2143.01  2154.88  2498.88  4157.61  4304.06
                             4391.07  4504.72  4508.62  4515.71  5490.92

 Zero-point correction=                           0.100946 (Hartree/Particle)
 Thermal correction to Energy=                    0.107079
 Thermal correction to Enthalpy=                  0.108023
 Thermal correction to Gibbs Free Energy=         0.071789
 Sum of electronic and zero-point Energies=           -248.394116
 Sum of electronic and thermal Energies=              -248.387984
 Sum of electronic and thermal Enthalpies=            -248.387040
 Sum of electronic and thermal Free Energies=         -248.423274

                     E (Thermal)             CV                S
                      KCal/Mol        Cal/Mol-Kelvin    Cal/Mol-Kelvin
 Total                   67.193             20.883             76.262
 Electronic               0.000              0.000              0.000
 Translational            0.889              2.981             38.782
 Rotational               0.889              2.981             25.545
 Vibrational             65.416             14.922             11.935
 Vibration     1          0.602              1.957              3.681
 Vibration     2          0.643              1.822              2.024
 Vibration     3          0.663              1.762              1.726
 Vibration     4          0.732              1.561              1.135
 Vibration     5          0.750              1.513              1.039
 Vibration     6          0.783              1.427              0.892
 Vibration     7          0.940              1.069              0.480

 Optimization completed.
    -- Stationary point found.
 Normal termination of Gaussian 09 at Wed Aug 24 09:53:32 2022.

 -----------------------------------------------------------------
 #P Geom=AllCheck Guess=TCheck SCRF=Check CCSD(T,E4T,FrzG4)/GTBas1
 -----------------------------------------------------------------

 Structure from the checkpoint file:  "G4.Frag_892.chk"
 --------
 Frag_892
 --------
 Charge =  0 Multiplicity = 1

 SCF Done:  E(RHF) =  -246.953295678     A.U. after   13 cycles
 E2 =    -0.7271321588D+00 EUMP2 =    -0.24768042783641D+03
 CCSD(T)
 CCSD(T)= -0.24774735675D+03
 247.7237003\CCSD(T)=-247.7473567\RMSD=6.343e-09\PG=C01 [X(C3H7N1O1)]\\
 Normal termination of Gaussian 09 at Wed Aug 24 09:55:34 2022.

 ---------------------------------------------------------
 #P Geom=AllCheck Guess=TCheck SCRF=Check MP4=FrzG4/GTBas2
 ---------------------------------------------------------

 Structure from the checkpoint file:  "G4.Frag_892.chk"
 --------
 Frag_892
 --------
 Charge =  0 Multiplicity = 1

 SCF Done:  E(RHF) =  -246.961920220     A.U. after   13 cycles
 E2 =    -0.7383311550D+00 EUMP2 =    -0.24770025137465D+03
 Normal termination of Gaussian 09 at Wed Aug 24 09:57:37 2022.

 ---------------------------------------------------------
 #P Geom=AllCheck Guess=TCheck SCRF=Check MP4=FrzG4/GTBas3
 ---------------------------------------------------------

 Structure from the checkpoint file:  "G4.Frag_892.chk"
 --------
 Frag_892
 --------
 Charge =  0 Multiplicity = 1

 SCF Done:  E(RHF) =  -246.985623280     A.U. after   12 cycles
 E2 =    -0.8930987212D+00 EUMP2 =    -0.24787872200147D+03
 Normal termination of Gaussian 09 at Wed Aug 24 10:37:09 2022.

 -----------------------------------------------------------
 #P Geom=AllCheck Guess=TCheck SCRF=Check MP2=Full/GTLargeXP
 -----------------------------------------------------------

 Structure from the checkpoint file:  "G4.Frag_892.chk"
 --------
 Frag_892
 --------
 Charge =  0 Multiplicity = 1

 SCF Done:  E(RHF) =  -247.050510922     A.U. after   12 cycles
 E2 =    -0.1172086453D+01 EUMP2 =    -0.24822259737528D+03
 Normal termination of Gaussian 09 at Wed Aug 24 10:39:44 2022.
 SCF Done:  E(RHF) =  -247.070190676     A.U. after    9 cycles
 Normal termination of Gaussian 09 at Wed Aug 24 10:43:01 2022.

                         Standard orientation:
 ---------------------------------------------------------------------
 Center     Atomic      Atomic             Coordinates (Angstroms)
 Number     Number       Type             X           Y           Z
 ---------------------------------------------------------------------
      1          6           0       -1.969774   -0.107058    0.121587
      2          7           0       -0.881362    0.063255   -0.498198
      3          6           0        0.348584    0.061293    0.288352
      4          6           0        1.179772   -1.165851   -0.059513
      5          8           0        1.119378    1.195236   -0.040155
      6          1           0       -2.909195   -0.120096   -0.433020
      7          1           0       -2.037218   -0.250194    1.210857
      8          1           0        0.111669    0.058974    1.371489
      9          1           0        1.356843   -1.193566   -1.137263
     10          1           0        0.660891   -2.079408    0.242099
     11          1           0        2.140884   -1.113643    0.458523
     12          1           0        0.539144    1.962955   -0.006608
 ---------------------------------------------------------------------

 SCF Done:  E(RHF) =  -247.074392200     A.U. after    8 cycles

 The electronic state is 1-A.
 Alpha  occ. eigenvalues --  -20.55689 -15.56965 -11.31338 -11.28666 -11.21367
 Alpha  occ. eigenvalues --   -1.37514  -1.23070  -1.01119  -0.87650  -0.79569
 Alpha  occ. eigenvalues --   -0.71358  -0.68001  -0.62747  -0.59734  -0.54091
 Alpha  occ. eigenvalues --   -0.53425  -0.50779  -0.48048  -0.43554  -0.41256
 Alpha virt. eigenvalues --    0.03522   0.04305   0.04509   0.05327   0.06404
 Alpha virt. eigenvalues --    0.07007   0.07461   0.08023   0.09234   0.10234
 Alpha virt. eigenvalues --    0.13082   0.13576   0.14102   0.14694   0.15952

 Mulliken charges:
               1
     1  C   -0.208732
     2  N   -0.354680
     3  C    0.238430
     4  C   -0.516048
     5  O   -0.564923
     6  H    0.214362
     7  H    0.172938
     8  H    0.120482
     9  H    0.188756
    10  H    0.163743
    11  H    0.181689
    12  H    0.363985
 Sum of Mulliken charges =  -0.00000

 Dipole moment (field-independent basis, Debye):
    X=             -2.1602    Y=             -0.3857    Z=              1.9923  Tot=              2.9639
 Quadrupole moment (field-independent basis, Debye-Ang):
   XX=            -29.7737   YY=            -29.3279   ZZ=            -32.7313
   XY=             -1.8749   XZ=             -1.4036   YZ=              0.3521

 Normal termination of Gaussian 09 at Wed Aug 24 12:13:11 2022.
