 Gaussian 09, Revision E.01,
 Gaussian 09:  ES64L-G09RevE.01 30-Nov-2015

 -----
 #P G4
 -----

 --------
 Frag_637
 --------
 Symbolic Z-matrix:
 Charge =  0 Multiplicity = 1

 SCF Done:  E(RB3LYP) =  -308.469376624     A.U. after   13 cycles
 SCF Done:  E(RB3LYP) =  -308.475650143     A.U. after   11 cycles
 SCF Done:  E(RB3LYP) =  -308.475819987     A.U. after   11 cycles
 SCF Done:  E(RB3LYP) =  -308.476083586     A.U. after   11 cycles
 SCF Done:  E(RB3LYP) =  -308.476172728     A.U. after   10 cycles
 SCF Done:  E(RB3LYP) =  -308.476181755     A.U. after    9 cycles
 SCF Done:  E(RB3LYP) =  -308.476183202     A.U. after    7 cycles
 SCF Done:  E(RB3LYP) =  -308.476183598     A.U. after    7 cycles
 SCF Done:  E(RB3LYP) =  -308.476183633     A.U. after    6 cycles
 Optimization completed.
    -- Stationary point found.
 Normal termination of Gaussian 09 at Tue Aug 23 06:35:11 2022.

 ----------------------------------------------------------
 #P Geom=AllCheck Guess=TCheck SCRF=Check B3LYP/GTBas3 Freq
 ----------------------------------------------------------

 Structure from the checkpoint file:  "G4.Frag_637.chk"
 --------
 Frag_637
 --------
 Charge =  0 Multiplicity = 1

 SCF Done:  E(RB3LYP) =  -308.476183633     A.U. after    1 cycles

  Exact polarizability:  77.396   0.292  70.286   0.234   0.340  65.534
 Approx polarizability: 102.882   1.848  97.578  -0.035   1.559  95.807

                      1                      2                      3
                      A                      A                      A
 Frequencies --    104.4045               204.9168               209.8977
 Red. masses --      2.4722                 1.0629                 1.1377
 Frc consts  --      0.0159                 0.0263                 0.0295
 IR Inten    --      0.6191                 3.2015                 0.7110

                      4                      5                      6
                      A                      A                      A
 Frequencies --    262.0606               266.2818               283.1891
 Red. masses --      1.0478                 2.1672                 1.1778
 Frc consts  --      0.0424                 0.0905                 0.0557
 IR Inten    --      1.1016                 0.9421                19.7434

                      7                      8                      9
                      A                      A                      A
 Frequencies --    295.7317               333.5661               362.5100
 Red. masses --      1.2532                 1.7504                 2.2093
 Frc consts  --      0.0646                 0.1148                 0.1711
 IR Inten    --      6.4775                 7.6982                 1.5216

                     10                     11                     12
                      A                      A                      A
 Frequencies --    386.2828               419.7320               477.9609
 Red. masses --      2.6786                 2.0995                 2.1920
 Frc consts  --      0.2355                 0.2179                 0.2950
 IR Inten    --      0.8057                 3.2781                 0.5874

                     13                     14                     15
                      A                      A                      A
 Frequencies --    498.4817               511.9231               698.6911
 Red. masses --      2.8352                 2.9728                 3.4997
 Frc consts  --      0.4151                 0.4590                 1.0066
 IR Inten    --     10.8782                11.0489                 4.3075

                     16                     17                     18
                      A                      A                      A
 Frequencies --    831.0377               898.6115               912.6555
 Red. masses --      2.6186                 1.6482                 1.4097
 Frc consts  --      1.0655                 0.7842                 0.6918
 IR Inten    --     31.0917                70.6718                24.7792

                     19                     20                     21
                      A                      A                      A
 Frequencies --    956.9196               998.2368              1012.7753
 Red. masses --      1.6004                 2.2703                 1.3373
 Frc consts  --      0.8635                 1.3329                 0.8082
 IR Inten    --      4.6372                44.0946                13.2042

                     22                     23                     24
                      A                      A                      A
 Frequencies --   1069.2804              1079.9528              1124.4187
 Red. masses --      1.5371                 1.4884                 1.2423
 Frc consts  --      1.0354                 1.0228                 0.9254
 IR Inten    --      6.6904                 9.2594                 7.5874

                     25                     26                     27
                      A                      A                      A
 Frequencies --   1182.6242              1189.6922              1241.9626
 Red. masses --      1.8424                 1.9612                 2.6151
 Frc consts  --      1.5182                 1.6354                 2.3766
 IR Inten    --     13.9624                 0.8931                50.7141

                     28                     29                     30
                      A                      A                      A
 Frequencies --   1280.5831              1289.1494              1334.6397
 Red. masses --      3.6474                 2.0531                 1.9747
 Frc consts  --      3.5241                 2.0104                 2.0725
 IR Inten    --     44.9132                15.3201                26.9658

                     31                     32                     33
                      A                      A                      A
 Frequencies --   1391.0233              1409.2905              1433.5405
 Red. masses --      1.2815                 1.2481                 1.1473
 Frc consts  --      1.4609                 1.4605                 1.3891
 IR Inten    --     13.5123                11.8333                 1.6257

                     34                     35                     36
                      A                      A                      A
 Frequencies --   1468.5087              1478.7112              1480.9397
 Red. masses --      1.1599                 1.0503                 1.0508
 Frc consts  --      1.4737                 1.3531                 1.3579
 IR Inten    --      4.2086                 4.1433                 2.8347

                     37                     38                     39
                      A                      A                      A
 Frequencies --   1491.4545              1494.9380              1508.4080
 Red. masses --      1.0517                 1.0495                 1.0552
 Frc consts  --      1.3783                 1.3819                 1.4146
 IR Inten    --      7.3358                 0.9145                 8.9877

                     40                     41                     42
                      A                      A                      A
 Frequencies --   1510.8691              1514.3171              1522.5621
 Red. masses --      1.0515                 1.0640                 1.0602
 Frc consts  --      1.4142                 1.4375                 1.4481
 IR Inten    --      1.8505                 4.1642                 4.0252

                     43                     44                     45
                      A                      A                      A
 Frequencies --   1633.5953              2921.8711              2939.3790
 Red. masses --      1.1026                 1.0621                 1.0612
 Frc consts  --      1.7336                 5.3423                 5.4020
 IR Inten    --     30.3239                56.5268                96.5816

                     46                     47                     48
                      A                      A                      A
 Frequencies --   3031.6821              3041.2603              3055.6277
 Red. masses --      1.0351                 1.0380                 1.0780
 Frc consts  --      5.6055                 5.6565                 5.9303
 IR Inten    --     15.9728                18.8818                38.9183

                     49                     50                     51
                      A                      A                      A
 Frequencies --   3066.2525              3099.4040              3106.2612
 Red. masses --      1.0723                 1.1000                 1.0999
 Frc consts  --      5.9398                 6.2259                 6.2529
 IR Inten    --     44.0396                 0.3267                56.5529

                     52                     53                     54
                      A                      A                      A
 Frequencies --   3108.9545              3124.4747              3133.2725
 Red. masses --      1.1023                 1.0968                 1.1007
 Frc consts  --      6.2773                 6.3084                 6.3666
 IR Inten    --     24.9974                22.9722                22.9077

                     55                     56                     57
                      A                      A                      A
 Frequencies --   3149.6540              3480.1700              3568.1655
 Red. masses --      1.0948                 1.0489                 1.0922
 Frc consts  --      6.3989                 7.4850                 8.1931
 IR Inten    --      6.7928                 0.4640                 0.0784

 - Thermochemistry -
 -------------------
 Temperature   298.150 Kelvin.  Pressure   1.00000 Atm.
 Atom     1 has atomic number  6 and mass  12.00000

 Molecular mass:   102.11570 amu.
 Principal axes and moments of inertia in atomic units:
                           1         2         3
     Eigenvalues --   573.38812 777.98279 935.06927
           X            0.99959  -0.02766   0.00709
           Y            0.02781   0.99935  -0.02284
           Z           -0.00646   0.02303   0.99971
 This molecule is an asymmetric top.
 Rotational symmetry number  1.
 Warning -- assumption of classical behavior for rotation
           may cause significant error
 Rotational temperatures (Kelvin)      0.15106     0.11133     0.09263
 Rotational constants (GHZ):           3.14750     2.31977     1.93006
 Zero-point vibrational energy     507711.6 (Joules/Mol)
                                  121.34599 (Kcal/Mol)
 Warning -- explicit consideration of  14 degrees of freedom as
           vibrations may cause significant error
 Vibrational temperatures:    150.21   294.83   302.00   377.05   383.12
          (Kelvin)            407.45   425.49   479.93   521.57   555.77
                              603.90   687.68   717.20   736.54  1005.26
                             1195.68  1292.90  1313.11  1376.79  1436.24
                             1457.16  1538.45  1553.81  1617.79  1701.53
                             1711.70  1786.90  1842.47  1854.80  1920.25
                             2001.37  2027.65  2062.54  2112.85  2127.53
                             2130.74  2145.87  2150.88  2170.26  2173.80
                             2178.76  2190.62  2350.38  4203.92  4229.11
                             4361.91  4375.69  4396.36  4411.65  4459.35
                             4469.21  4473.09  4495.42  4508.07  4531.64
                             5007.18  5133.79

 Zero-point correction=                           0.193377 (Hartree/Particle)
 Thermal correction to Energy=                    0.202492
 Thermal correction to Enthalpy=                  0.203437
 Thermal correction to Gibbs Free Energy=         0.161186
 Sum of electronic and zero-point Energies=           -308.282806
 Sum of electronic and thermal Energies=              -308.273691
 Sum of electronic and thermal Enthalpies=            -308.272747
 Sum of electronic and thermal Free Energies=         -308.314997

                     E (Thermal)             CV                S
                      KCal/Mol        Cal/Mol-Kelvin    Cal/Mol-Kelvin
 Total                  127.066             34.830             88.924
 Electronic               0.000              0.000              0.000
 Translational            0.889              2.981             39.780
 Rotational               0.889              2.981             27.525
 Vibrational            125.288             28.868             21.618
 Vibration     1          0.605              1.946              3.370
 Vibration     2          0.640              1.833              2.089
 Vibration     3          0.642              1.826              2.045
 Vibration     4          0.669              1.742              1.648
 Vibration     5          0.672              1.735              1.620
 Vibration     6          0.682              1.705              1.514
 Vibration     7          0.690              1.682              1.441
 Vibration     8          0.715              1.608              1.243
 Vibration     9          0.736              1.549              1.111
 Vibration    10          0.755              1.499              1.014
 Vibration    11          0.782              1.427              0.893
 Vibration    12          0.834              1.299              0.716
 Vibration    13          0.854              1.253              0.662
 Vibration    14          0.867              1.224              0.629

 Optimization completed.
    -- Stationary point found.
 Normal termination of Gaussian 09 at Tue Aug 23 06:44:39 2022.

 -----------------------------------------------------------------
 #P Geom=AllCheck Guess=TCheck SCRF=Check CCSD(T,E4T,FrzG4)/GTBas1
 -----------------------------------------------------------------

 Structure from the checkpoint file:  "G4.Frag_637.chk"
 --------
 Frag_637
 --------
 Charge =  0 Multiplicity = 1

 SCF Done:  E(RHF) =  -306.358646009     A.U. after   12 cycles
 E2 =    -0.9953577198D+00 EUMP2 =    -0.30735400372838D+03
 CCSD(T)
 CCSD(T)= -0.30746294869D+03
 Normal termination of Gaussian 09 at Tue Aug 23 07:08:22 2022.

 ---------------------------------------------------------
 #P Geom=AllCheck Guess=TCheck SCRF=Check MP4=FrzG4/GTBas2
 ---------------------------------------------------------

 Structure from the checkpoint file:  "G4.Frag_637.chk"
 --------
 Frag_637
 --------
 Charge =  0 Multiplicity = 1

 SCF Done:  E(RHF) =  -306.365910918     A.U. after   12 cycles
 E2 =    -0.1009699330D+01 EUMP2 =    -0.30737561024743D+03
 Normal termination of Gaussian 09 at Tue Aug 23 07:39:22 2022.

 ---------------------------------------------------------
 #P Geom=AllCheck Guess=TCheck SCRF=Check MP4=FrzG4/GTBas3
 ---------------------------------------------------------

 Structure from the checkpoint file:  "G4.Frag_637.chk"
 --------
 Frag_637
 --------
 Charge =  0 Multiplicity = 1

 SCF Done:  E(RHF) =  -306.400873831     A.U. after   10 cycles
 E2 =    -0.1238421193D+01 EUMP2 =    -0.30763929502376D+03
 Normal termination of Gaussian 09 at Tue Aug 23 15:26:38 2022.

 -----------------------------------------------------------
 #P Geom=AllCheck Guess=TCheck SCRF=Check MP2=Full/GTLargeXP
 -----------------------------------------------------------

 Structure from the checkpoint file:  "G4.Frag_637.chk"
 --------
 Frag_637
 --------
 Charge =  0 Multiplicity = 1

 SCF Done:  E(RHF) =  -306.470104404     A.U. after   11 cycles
 E2 =    -0.1620644069D+01 EUMP2 =    -0.30809074847346D+03
 Normal termination of Gaussian 09 at Tue Aug 23 15:44:27 2022.
 SCF Done:  E(RHF) =  -306.493744233     A.U. after    9 cycles
 Normal termination of Gaussian 09 at Tue Aug 23 15:59:06 2022.

                         Standard orientation:
 ---------------------------------------------------------------------
 Center     Atomic      Atomic             Coordinates (Angstroms)
 Number     Number       Type             X           Y           Z
 ---------------------------------------------------------------------
      1          6           0        1.590132   -1.153994   -0.074633
      2          7           0        0.819793    0.044458   -0.393589
      3          6           0        1.534306    1.237421    0.029618
      4          6           0       -0.607629   -0.028721   -0.016884
      5          6           0       -1.312755    1.289629   -0.397347
      6          6           0       -0.844727   -0.324052    1.479834
      7          7           0       -1.153636   -1.162225   -0.782862
      8          1           0        1.861267   -1.232451    0.994151
      9          1           0        2.523978   -1.140345   -0.647649
     10          1           0        1.018301   -2.038068   -0.354745
     11          1           0        2.551793    1.193451   -0.372273
     12          1           0        1.624816    1.344114    1.127709
     13          1           0        1.068252    2.142841   -0.362929
     14          1           0       -2.395148    1.150209   -0.317565
     15          1           0       -1.044193    2.126602    0.253721
     16          1           0       -1.075827    1.562665   -1.430805
     17          1           0       -0.372386    0.435897    2.109242
     18          1           0       -0.444671   -1.303340    1.750444
     19          1           0       -1.915701   -0.321760    1.710384
     20          1           0       -1.077687   -0.947369   -1.773946
     21          1           0       -2.141853   -1.269774   -0.574105
 ---------------------------------------------------------------------

 SCF Done:  E(RHF) =  -306.498889699     A.U. after    8 cycles

 The electronic state is 1-A.
 Alpha  occ. eigenvalues --  -15.53678 -15.53137 -11.28800 -11.23668 -11.22617
 Alpha  occ. eigenvalues --  -11.21205 -11.20890  -1.24040  -1.14834  -1.00553
 Alpha  occ. eigenvalues --   -0.94855  -0.92403  -0.86840  -0.73867  -0.67038
 Alpha  occ. eigenvalues --   -0.63940  -0.62648  -0.60798  -0.58333  -0.55449
 Alpha  occ. eigenvalues --   -0.54635  -0.53292  -0.52153  -0.50958  -0.49767
 Alpha  occ. eigenvalues --   -0.49120  -0.47950  -0.38959  -0.34507
 Alpha virt. eigenvalues --    0.03145   0.04126   0.04192   0.04677   0.05986
 Alpha virt. eigenvalues --    0.06648   0.06750   0.06929   0.07282   0.09163
 Alpha virt. eigenvalues --    0.09367   0.09591   0.10035   0.10405   0.10817

 Mulliken charges:
               1
     1  C   -0.549208
     2  N   -0.001148
     3  C   -0.529608
     4  C    0.446423
     5  C   -0.613740
     6  C   -0.600630
     7  N   -0.778597
     8  H    0.134771
     9  H    0.164307
    10  H    0.217598
    11  H    0.170874
    12  H    0.138760
    13  H    0.170445
    14  H    0.171379
    15  H    0.175864
    16  H    0.184484
    17  H    0.169429
    18  H    0.182050
    19  H    0.162899
    20  H    0.295638
    21  H    0.288010
 Sum of Mulliken charges =  -0.00000

 Dipole moment (field-independent basis, Debye):
    X=             -0.8010    Y=              0.9735    Z=              0.3440  Tot=              1.3068
 Quadrupole moment (field-independent basis, Debye-Ang):
   XX=            -43.7451   YY=            -49.0502   ZZ=            -47.0073
   XY=              0.4034   XZ=              1.0898   YZ=             -0.1006

 Normal termination of Gaussian 09 at Tue Aug 23 22:24:38 2022.
