 Gaussian 09, Revision E.01,
 Gaussian 09:  ES64L-G09RevE.01 30-Nov-2015

 -----
 #P G4
 -----

 ---------
 Frag_1120
 ---------
 Symbolic Z-matrix:
 Charge =  0 Multiplicity = 1

 SCF Done:  E(RB3LYP) =  -225.098011281     A.U. after   14 cycles
 SCF Done:  E(RB3LYP) =  -225.141782793     A.U. after   13 cycles
 SCF Done:  E(RB3LYP) =  -225.152316552     A.U. after   14 cycles
 SCF Done:  E(RB3LYP) =  -225.168388129     A.U. after   13 cycles
 SCF Done:  E(RB3LYP) =  -225.168906723     A.U. after   14 cycles
 SCF Done:  E(RB3LYP) =  -225.169528442     A.U. after   13 cycles
 SCF Done:  E(RB3LYP) =  -225.170294077     A.U. after   13 cycles
 SCF Done:  E(RB3LYP) =  -225.129817302     A.U. after   14 cycles
 SCF Done:  E(RB3LYP) =  -225.170299509     A.U. after    8 cycles
 SCF Done:  E(RB3LYP) =  -225.172147686     A.U. after   15 cycles
 SCF Done:  E(RB3LYP) =  -225.172469934     A.U. after    9 cycles
 SCF Done:  E(RB3LYP) =  -225.172480702     A.U. after    9 cycles
 SCF Done:  E(RB3LYP) =  -225.172481996     A.U. after    8 cycles
 Optimization completed.
    -- Stationary point found.
 Normal termination of Gaussian 09 at Tue Aug 30 10:32:17 2022.

 ----------------------------------------------------------
 #P Geom=AllCheck Guess=TCheck SCRF=Check B3LYP/GTBas3 Freq
 ----------------------------------------------------------

 Structure from the checkpoint file:  "G4.Frag_1120.chk"
 ---------
 Frag_1120
 ---------
 Charge =  0 Multiplicity = 1

 SCF Done:  E(RB3LYP) =  -225.172481996     A.U. after    1 cycles

  Exact polarizability:  49.998  -3.460  25.644  -0.001   0.001  20.918
 Approx polarizability:  71.579  -8.724  40.262   0.001   0.001  29.872

                      1                      2                      3
                      A                      A                      A
 Frequencies --    202.0191               320.0037               366.1950
 Red. masses --      1.3502                 4.1828                 3.2416
 Frc consts  --      0.0325                 0.2524                 0.2561
 IR Inten    --      7.1699                 1.1244                11.5163

                      4                      5                      6
                      A                      A                      A
 Frequencies --    503.1639               621.3168              1005.0869
 Red. masses --      1.1563                 6.1714                 4.1641
 Frc consts  --      0.1725                 1.4037                 2.4785
 IR Inten    --     92.4328                40.3919               122.1446

                      7                      8                      9
                      A                      A                      A
 Frequencies --   1028.1042              1115.0356              1174.5979
 Red. masses --      3.7762                 1.3485                 1.8969
 Frc consts  --      2.3517                 0.9878                 1.5419
 IR Inten    --     34.1063                 0.0551                15.8503

                     10                     11                     12
                      A                      A                      A
 Frequencies --   1378.3718              1427.8223              1477.1078
 Red. masses --      1.3309                 1.1808                 1.0440
 Frc consts  --      1.4898                 1.4184                 1.3421
 IR Inten    --    137.8763                 4.2509                 5.5813

                     13                     14                     15
                      A                      A                      A
 Frequencies --   1485.2265              1697.7114              3028.3626
 Red. masses --      1.0560                 6.4424                 1.0314
 Frc consts  --      1.3724                10.9402                 5.5730
 IR Inten    --     12.2995                32.3589                26.1565

                     16                     17                     18
                      A                      A                      A
 Frequencies --   3106.8422              3114.6880              3792.2799
 Red. masses --      1.1016                 1.1051                 1.0667
 Frc consts  --      6.2650                 6.3167                 9.0382
 IR Inten    --     11.7565                16.4821                73.0766

 - Thermochemistry -
 -------------------
 Temperature   298.150 Kelvin.  Pressure   1.00000 Atm.
 Atom     1 has atomic number  6 and mass  12.00000

 Molecular mass:    60.03236 amu.
 Principal axes and moments of inertia in atomic units:
                           1         2         3
     Eigenvalues --    33.98825 390.77001 413.55929
           X            0.99998  -0.00563  -0.00002
           Y            0.00563   0.99998   0.00007
           Z            0.00002  -0.00007   1.00000
 This molecule is an asymmetric top.
 Rotational symmetry number  1.
 Rotational temperatures (Kelvin)      2.54835     0.22165     0.20944
 Rotational constants (GHZ):          53.09897     4.61842     4.36392
 Zero-point vibrational energy     160562.4 (Joules/Mol)
                                   38.37533 (Kcal/Mol)
 Warning -- explicit consideration of   4 degrees of freedom as
           vibrations may cause significant error
 Vibrational temperatures:    290.66   460.41   526.87   723.94   893.94
          (Kelvin)           1446.09  1479.21  1604.29  1689.98  1983.17
                             2054.32  2125.23  2136.91  2442.63  4357.13
                             4470.05  4481.34  5456.24

 Zero-point correction=                           0.061155 (Hartree/Particle)
 Thermal correction to Energy=                    0.065794
 Thermal correction to Enthalpy=                  0.066738
 Thermal correction to Gibbs Free Energy=         0.034737
 Sum of electronic and zero-point Energies=           -225.111327
 Sum of electronic and thermal Energies=              -225.106688
 Sum of electronic and thermal Enthalpies=            -225.105744
 Sum of electronic and thermal Free Energies=         -225.137745

                     E (Thermal)             CV                S
                      KCal/Mol        Cal/Mol-Kelvin    Cal/Mol-Kelvin
 Total                   41.286             14.822             67.351
 Electronic               0.000              0.000              0.000
 Translational            0.889              2.981             38.197
 Rotational               0.889              2.981             23.223
 Vibrational             39.509              8.860              5.931
 Vibration     1          0.639              1.837              2.115
 Vibration     2          0.706              1.635              1.310
 Vibration     3          0.739              1.542              1.096
 Vibration     4          0.858              1.243              0.650

 Optimization completed.
    -- Stationary point found.
 Normal termination of Gaussian 09 at Tue Aug 30 10:32:29 2022.

 -----------------------------------------------------------------
 #P Geom=AllCheck Guess=TCheck SCRF=Check CCSD(T,E4T,FrzG4)/GTBas1
 -----------------------------------------------------------------

 Structure from the checkpoint file:  "G4.Frag_1120.chk"
 ---------
 Frag_1120
 ---------
 Charge =  0 Multiplicity = 1

 SCF Done:  E(RHF) =  -223.854347222     A.U. after   13 cycles
 E2 =    -0.6378970471D+00 EUMP2 =    -0.22449224426936D+03
 CCSD(T)
 CCSD(T)= -0.22454096333D+03
 -224.5421318\MP4SDQ=-224.5189941\CCSD=-224.518762\CCSD(T)=-224.5409633
 Normal termination of Gaussian 09 at Tue Aug 30 10:32:48 2022.

 ---------------------------------------------------------
 #P Geom=AllCheck Guess=TCheck SCRF=Check MP4=FrzG4/GTBas2
 ---------------------------------------------------------

 Structure from the checkpoint file:  "G4.Frag_1120.chk"
 ---------
 Frag_1120
 ---------
 Charge =  0 Multiplicity = 1

 SCF Done:  E(RHF) =  -223.863196006     A.U. after   13 cycles
 E2 =    -0.6484920148D+00 EUMP2 =    -0.22451168802039D+03
 Normal termination of Gaussian 09 at Tue Aug 30 10:32:55 2022.

 ---------------------------------------------------------
 #P Geom=AllCheck Guess=TCheck SCRF=Check MP4=FrzG4/GTBas3
 ---------------------------------------------------------

 Structure from the checkpoint file:  "G4.Frag_1120.chk"
 ---------
 Frag_1120
 ---------
 Charge =  0 Multiplicity = 1

 SCF Done:  E(RHF) =  -223.882619667     A.U. after   12 cycles
 E2 =    -0.7709566992D+00 EUMP2 =    -0.22465357636605D+03
 Normal termination of Gaussian 09 at Tue Aug 30 10:33:19 2022.

 -----------------------------------------------------------
 #P Geom=AllCheck Guess=TCheck SCRF=Check MP2=Full/GTLargeXP
 -----------------------------------------------------------

 Structure from the checkpoint file:  "G4.Frag_1120.chk"
 ---------
 Frag_1120
 ---------
 Charge =  0 Multiplicity = 1

 SCF Done:  E(RHF) =  -223.944585486     A.U. after   12 cycles
 E2 =    -0.1002532282D+01 EUMP2 =    -0.22494711776752D+03
 Normal termination of Gaussian 09 at Tue Aug 30 10:33:35 2022.
 SCF Done:  E(RHF) =  -223.963662306     A.U. after    9 cycles
 Normal termination of Gaussian 09 at Tue Aug 30 10:33:56 2022.

                         Standard orientation:
 ---------------------------------------------------------------------
 Center     Atomic      Atomic             Coordinates (Angstroms)
 Number     Number       Type             X           Y           Z
 ---------------------------------------------------------------------
      1          6           0        1.737957    0.088634   -0.000037
      2          7           0        0.387722   -0.469042    0.000147
      3          7           0       -0.464248    0.413459   -0.000034
      4          8           0       -1.731913   -0.168932   -0.000123
      5          1           0        1.744561    1.183532    0.000834
      6          1           0        2.264007   -0.291051    0.881451
      7          1           0        2.263152   -0.289601   -0.882544
      8          1           0       -2.308484    0.605857    0.000677
 ---------------------------------------------------------------------

 SCF Done:  E(RHF) =  -223.967489245     A.U. after    8 cycles

 The electronic state is 1-A.
 Alpha  occ. eigenvalues --  -20.60928 -15.69369 -15.62486 -11.26511  -1.47628
 Alpha  occ. eigenvalues --   -1.30586  -1.01155  -0.82006  -0.73375  -0.67736
 Alpha  occ. eigenvalues --   -0.64571  -0.59216  -0.57991  -0.53799  -0.43941
 Alpha  occ. eigenvalues --   -0.42277
 Alpha virt. eigenvalues --    0.04717   0.05163   0.05668   0.05906   0.08414
 Alpha virt. eigenvalues --    0.09021   0.10562   0.11803   0.12318   0.15116
 Alpha virt. eigenvalues --    0.15307   0.15572   0.16430   0.18484   0.20043

 Mulliken charges:
               1
     1  C   -0.402947
     2  N   -0.113314
     3  N   -0.015913
     4  O   -0.429923
     5  H    0.186214
     6  H    0.192786
     7  H    0.192798
     8  H    0.390300
 Sum of Mulliken charges =  -0.00000

 Dipole moment (field-independent basis, Debye):
    X=              0.9083    Y=              1.8032    Z=              0.0011  Tot=              2.0191
 Quadrupole moment (field-independent basis, Debye-Ang):
   XX=            -17.7125   YY=            -25.7359   ZZ=            -23.9452
   XY=             -3.3168   XZ=             -0.0041   YZ=              0.0015

 Normal termination of Gaussian 09 at Tue Aug 30 10:35:55 2022.
