 Gaussian 09, Revision E.01,
 Gaussian 09:  ES64L-G09RevE.01 30-Nov-2015

 -----
 #P G4
 -----

 --------
 Frag_446
 --------
 Symbolic Z-matrix:
 Charge =  0 Multiplicity = 1

 SCF Done:  E(RB3LYP) =  -272.994738854     A.U. after   12 cycles
 SCF Done:  E(RB3LYP) =  -272.998362740     A.U. after   11 cycles
 SCF Done:  E(RB3LYP) =  -272.998643331     A.U. after   10 cycles
 SCF Done:  E(RB3LYP) =  -272.998722930     A.U. after    9 cycles
 SCF Done:  E(RB3LYP) =  -272.998763381     A.U. after   10 cycles
 SCF Done:  E(RB3LYP) =  -272.998802310     A.U. after   10 cycles
 SCF Done:  E(RB3LYP) =  -272.998814049     A.U. after    8 cycles
 SCF Done:  E(RB3LYP) =  -272.998818959     A.U. after    9 cycles
 SCF Done:  E(RB3LYP) =  -272.998819491     A.U. after    7 cycles
 SCF Done:  E(RB3LYP) =  -272.998819700     A.U. after    7 cycles
 Optimization completed.
    -- Stationary point found.
 Normal termination of Gaussian 09 at Fri Aug 26 14:39:26 2022.

 ----------------------------------------------------------
 #P Geom=AllCheck Guess=TCheck SCRF=Check B3LYP/GTBas3 Freq
 ----------------------------------------------------------

 Structure from the checkpoint file:  "G4.Frag_446.chk"
 --------
 Frag_446
 --------
 Charge =  0 Multiplicity = 1

 SCF Done:  E(RB3LYP) =  -272.998819700     A.U. after    1 cycles

  Exact polarizability:  65.849   0.000  57.654   0.224   0.001  56.598
 Approx polarizability:  85.609   0.000  78.392  -0.773   0.001  80.841

                      1                      2                      3
                      A                      A                      A
 Frequencies --     67.6547               178.8433               224.0392
 Red. masses --      1.8229                 1.0436                 1.0862
 Frc consts  --      0.0049                 0.0197                 0.0321
 IR Inten    --      2.5906                 0.6341                 0.9953

                      4                      5                      6
                      A                      A                      A
 Frequencies --    251.9355               275.2327               282.5338
 Red. masses --      1.2145                 1.1863                 1.8162
 Frc consts  --      0.0454                 0.0529                 0.0854
 IR Inten    --      0.2375                 1.2833                 0.4822

                      7                      8                      9
                      A                      A                      A
 Frequencies --    334.7986               360.3218               407.3814
 Red. masses --      2.3964                 2.3389                 2.2296
 Frc consts  --      0.1583                 0.1789                 0.2180
 IR Inten    --      1.3112                 0.6594                 0.5593

                     10                     11                     12
                      A                      A                      A
 Frequencies --    454.5146               506.4392               726.5209
 Red. masses --      2.7530                 2.6588                 3.8002
 Frc consts  --      0.3351                 0.4018                 1.1818
 IR Inten    --      5.0511                 1.5028                 3.7863

                     13                     14                     15
                      A                      A                      A
 Frequencies --    860.1829               906.8270               917.3581
 Red. masses --      2.5349                 1.6752                 1.6439
 Frc consts  --      1.1051                 0.8116                 0.8151
 IR Inten    --     18.2424                 0.0632                 0.0805

                     16                     17                     18
                      A                      A                      A
 Frequencies --    953.2104              1034.7920              1041.8963
 Red. masses --      1.2016                 1.4249                 1.4313
 Frc consts  --      0.6433                 0.8990                 0.9154
 IR Inten    --      0.0292                 2.5605                 3.0268

                     19                     20                     21
                      A                      A                      A
 Frequencies --   1124.2618              1181.3398              1207.4373
 Red. masses --      6.1352                 1.2853                 1.5573
 Frc consts  --      4.5689                 1.0568                 1.3377
 IR Inten    --    100.5472                 1.4738                 3.6142

                     22                     23                     24
                      A                      A                      A
 Frequencies --   1231.3341              1251.4883              1285.4231
 Red. masses --      2.3092                 2.6938                 2.6344
 Frc consts  --      2.0628                 2.4858                 2.5647
 IR Inten    --     96.2919                21.3580                15.6889

                     25                     26                     27
                      A                      A                      A
 Frequencies --   1390.9049              1393.4504              1419.6633
 Red. masses --      1.2682                 1.2958                 1.2348
 Frc consts  --      1.4455                 1.4824                 1.4663
 IR Inten    --     11.9371                10.7576                 7.9445

                     28                     29                     30
                      A                      A                      A
 Frequencies --   1468.2050              1475.8374              1484.3109
 Red. masses --      1.0494                 1.1149                 1.0472
 Frc consts  --      1.3328                 1.4307                 1.3593
 IR Inten    --      0.0008                 0.3625                 0.0031

                     31                     32                     33
                      A                      A                      A
 Frequencies --   1486.5103              1490.1029              1500.7165
 Red. masses --      1.0517                 1.0553                 1.0684
 Frc consts  --      1.3692                 1.3806                 1.4177
 IR Inten    --      0.3698                 3.6801                 2.0841

                     34                     35                     36
                      A                      A                      A
 Frequencies --   1506.1765              1512.9452              1522.5507
 Red. masses --      1.0520                 1.0497                 1.0703
 Frc consts  --      1.4061                 1.4156                 1.4618
 IR Inten    --      0.4386                 5.4869                 9.1625

                     37                     38                     39
                      A                      A                      A
 Frequencies --   2987.5219              3031.6903              3038.4768
 Red. masses --      1.0358                 1.0732                 1.0342
 Frc consts  --      5.4467                 5.8116                 5.6257
 IR Inten    --     49.7339                 8.2973                23.0404

                     40                     41                     42
                      A                      A                      A
 Frequencies --   3040.1729              3045.7454              3102.5304
 Red. masses --      1.0620                 1.0354                 1.0967
 Frc consts  --      5.7832                 5.6589                 6.2195
 IR Inten    --     68.3791                 3.5969                35.2454

                     43                     44                     45
                      A                      A                      A
 Frequencies --   3106.0459              3110.6171              3112.7734
 Red. masses --      1.1010                 1.1012                 1.1030
 Frc consts  --      6.2584                 6.2778                 6.2966
 IR Inten    --      0.3013                18.6723                 2.7058

                     46                     47                     48
                      A                      A                      A
 Frequencies --   3114.5576              3119.2727              3121.2773
 Red. masses --      1.1015                 1.1018                 1.1015
 Frc consts  --      6.2953                 6.3165                 6.3228
 IR Inten    --     35.7877                33.9101                52.8465

 - Thermochemistry -
 -------------------
 Temperature   298.150 Kelvin.  Pressure   1.00000 Atm.
 Atom     1 has atomic number  6 and mass  12.00000

 Molecular mass:    88.08882 amu.
 Principal axes and moments of inertia in atomic units:
                           1         2         3
     Eigenvalues --   413.95268 663.51440 664.39706
           X            0.99940   0.03455   0.00002
           Y            0.00000  -0.00057   1.00000
           Z           -0.03455   0.99940   0.00057
 This molecule is an asymmetric top.
 Rotational symmetry number  1.
 Rotational temperatures (Kelvin)      0.20924     0.13054     0.13036
 Rotational constants (GHZ):           4.35978     2.71997     2.71636
 Zero-point vibrational energy     428549.1 (Joules/Mol)
                                  102.42570 (Kcal/Mol)
 Warning -- explicit consideration of  11 degrees of freedom as
           vibrations may cause significant error
 Vibrational temperatures:     97.34   257.32   322.34   362.48   396.00
          (Kelvin)            406.50   481.70   518.42   586.13   653.94
                              728.65  1045.30  1237.61  1304.72  1319.87
                             1371.46  1488.83  1499.05  1617.56  1699.68
                             1737.23  1771.61  1800.61  1849.43  2001.20
                             2004.86  2042.58  2112.42  2123.40  2135.59
                             2138.75  2143.92  2159.19  2167.05  2176.79
                             2190.61  4298.37  4361.92  4371.68  4374.13
                             4382.14  4463.84  4468.90  4475.48  4478.58
                             4481.15  4487.93  4490.82

 Zero-point correction=                           0.163226 (Hartree/Particle)
 Thermal correction to Energy=                    0.171405
 Thermal correction to Enthalpy=                  0.172349
 Thermal correction to Gibbs Free Energy=         0.131759
 Sum of electronic and zero-point Energies=           -272.835594
 Sum of electronic and thermal Energies=              -272.827415
 Sum of electronic and thermal Enthalpies=            -272.826471
 Sum of electronic and thermal Free Energies=         -272.867061

                     E (Thermal)             CV                S
                      KCal/Mol        Cal/Mol-Kelvin    Cal/Mol-Kelvin
 Total                  107.558             29.597             85.429
 Electronic               0.000              0.000              0.000
 Translational            0.889              2.981             39.340
 Rotational               0.889              2.981             26.703
 Vibrational            105.781             23.636             19.385
 Vibration     1          0.598              1.970              4.220
 Vibration     2          0.629              1.868              2.340
 Vibration     3          0.649              1.804              1.926
 Vibration     4          0.664              1.760              1.717
 Vibration     5          0.677              1.719              1.563
 Vibration     6          0.682              1.706              1.518
 Vibration     7          0.716              1.606              1.237
 Vibration     8          0.735              1.554              1.121
 Vibration     9          0.772              1.454              0.936
 Vibration    10          0.813              1.351              0.782
 Vibration    11          0.862              1.236              0.642

 Optimization completed.
    -- Stationary point found.
 Normal termination of Gaussian 09 at Fri Aug 26 14:40:10 2022.

 -----------------------------------------------------------------
 #P Geom=AllCheck Guess=TCheck SCRF=Check CCSD(T,E4T,FrzG4)/GTBas1
 -----------------------------------------------------------------

 Structure from the checkpoint file:  "G4.Frag_446.chk"
 --------
 Frag_446
 --------
 Charge =  0 Multiplicity = 1

 SCF Done:  E(RHF) =  -271.174157857     A.U. after   11 cycles
 E2 =    -0.8404038946D+00 EUMP2 =    -0.27201456175123D+03
 CCSD(T)
 CCSD(T)= -0.27210772295D+03
 0816864\CCSD(T)=-272.107723\RMSD=5.555e-09\PG=C01 [X(C5H12O1)]\\@
 Normal termination of Gaussian 09 at Fri Aug 26 14:43:00 2022.

 ---------------------------------------------------------
 #P Geom=AllCheck Guess=TCheck SCRF=Check MP4=FrzG4/GTBas2
 ---------------------------------------------------------

 Structure from the checkpoint file:  "G4.Frag_446.chk"
 --------
 Frag_446
 --------
 Charge =  0 Multiplicity = 1

 SCF Done:  E(RHF) =  -271.179639967     A.U. after   11 cycles
 E2 =    -0.8511326368D+00 EUMP2 =    -0.27203077260354D+03
 Normal termination of Gaussian 09 at Fri Aug 26 14:43:53 2022.

 ---------------------------------------------------------
 #P Geom=AllCheck Guess=TCheck SCRF=Check MP4=FrzG4/GTBas3
 ---------------------------------------------------------

 Structure from the checkpoint file:  "G4.Frag_446.chk"
 --------
 Frag_446
 --------
 Charge =  0 Multiplicity = 1

 SCF Done:  E(RHF) =  -271.208167018     A.U. after   10 cycles
 E2 =    -0.1054731978D+01 EUMP2 =    -0.27226289899687D+03
 Normal termination of Gaussian 09 at Fri Aug 26 14:49:29 2022.

 -----------------------------------------------------------
 #P Geom=AllCheck Guess=TCheck SCRF=Check MP2=Full/GTLargeXP
 -----------------------------------------------------------

 Structure from the checkpoint file:  "G4.Frag_446.chk"
 --------
 Frag_446
 --------
 Charge =  0 Multiplicity = 1

 SCF Done:  E(RHF) =  -271.271299028     A.U. after   10 cycles
 E2 =    -0.1383452008D+01 EUMP2 =    -0.27265475103656D+03
 Normal termination of Gaussian 09 at Fri Aug 26 14:52:00 2022.
 SCF Done:  E(RHF) =  -271.292901888     A.U. after    8 cycles
 Normal termination of Gaussian 09 at Fri Aug 26 14:55:01 2022.

                         Standard orientation:
 ---------------------------------------------------------------------
 Center     Atomic      Atomic             Coordinates (Angstroms)
 Number     Number       Type             X           Y           Z
 ---------------------------------------------------------------------
      1          6           0        2.035482   -0.000069   -0.145024
      2          8           0        0.788682    0.000071   -0.799753
      3          6           0       -0.397379    0.000006    0.010338
      4          6           0       -0.474207   -1.264993    0.880512
      5          6           0       -1.530440   -0.001156   -1.021208
      6          6           0       -0.475088    1.266169    0.878793
      7          1           0        2.191005    0.890919    0.480019
      8          1           0        2.795756   -0.000639   -0.930970
      9          1           0        2.190407   -0.890632    0.480745
     10          1           0        0.295529   -1.275931    1.657676
     11          1           0       -0.353389   -2.159291    0.261744
     12          1           0       -1.445355   -1.322309    1.381617
     13          1           0       -2.507481   -0.000955   -0.529113
     14          1           0       -1.459691   -0.886973   -1.658602
     15          1           0       -1.460120    0.883625   -1.660084
     16          1           0       -0.355567    2.159667    0.258636
     17          1           0       -1.445947    1.323209    1.380491
     18          1           0        0.295189    1.279002    1.655400
 ---------------------------------------------------------------------

 SCF Done:  E(RHF) =  -271.297616858     A.U. after    7 cycles

 The electronic state is 1-A.
 Alpha  occ. eigenvalues --  -20.54252 -11.28391 -11.26322 -11.21252 -11.21249
 Alpha  occ. eigenvalues --  -11.20648  -1.36324  -1.06957  -0.94267  -0.93743
 Alpha  occ. eigenvalues --   -0.90749  -0.75023  -0.65258  -0.64067  -0.63347
 Alpha  occ. eigenvalues --   -0.59114  -0.57268  -0.55129  -0.53196  -0.52215
 Alpha  occ. eigenvalues --   -0.51362  -0.48684  -0.48567  -0.44415  -0.41139
 Alpha virt. eigenvalues --    0.03360   0.03991   0.04271   0.04632   0.06427
 Alpha virt. eigenvalues --    0.06806   0.07076   0.07399   0.07453   0.09436
 Alpha virt. eigenvalues --    0.09822   0.09849   0.10019   0.12082   0.12439

 Mulliken charges:
               1
     1  C   -0.364467
     2  O   -0.346722
     3  C    0.411814
     4  C   -0.584783
     5  C   -0.564855
     6  C   -0.584692
     7  H    0.153585
     8  H    0.179045
     9  H    0.153591
    10  H    0.167007
    11  H    0.176198
    12  H    0.174901
    13  H    0.165284
    14  H    0.173011
    15  H    0.173064
    16  H    0.176190
    17  H    0.174856
    18  H    0.166973
 Sum of Mulliken charges =  -0.00000

 Dipole moment (field-independent basis, Debye):
    X=             -0.0546    Y=             -0.0005    Z=              1.3736  Tot=              1.3747
 Quadrupole moment (field-independent basis, Debye-Ang):
   XX=            -37.6824   YY=            -40.1213   ZZ=            -41.8484
   XY=             -0.0004   XZ=              0.7477   YZ=             -0.0002

 Normal termination of Gaussian 09 at Fri Aug 26 15:04:08 2022.
