 Gaussian 09, Revision E.01,
 Gaussian 09:  ES64L-G09RevE.01 30-Nov-2015

 -----
 #P G4
 -----

 --------
 Frag_858
 --------
 Symbolic Z-matrix:
 Charge =  0 Multiplicity = 1

 SCF Done:  E(RB3LYP) =  -364.202888004     A.U. after   12 cycles
 SCF Done:  E(RB3LYP) =  -364.211288427     A.U. after   11 cycles
 SCF Done:  E(RB3LYP) =  -364.212264186     A.U. after   11 cycles
 SCF Done:  E(RB3LYP) =  -364.212489561     A.U. after   10 cycles
 SCF Done:  E(RB3LYP) =  -364.212533230     A.U. after   10 cycles
 SCF Done:  E(RB3LYP) =  -364.212550506     A.U. after    9 cycles
 SCF Done:  E(RB3LYP) =  -364.212568559     A.U. after    9 cycles
 SCF Done:  E(RB3LYP) =  -364.212602182     A.U. after   10 cycles
 SCF Done:  E(RB3LYP) =  -364.212647437     A.U. after   11 cycles
 SCF Done:  E(RB3LYP) =  -364.212671216     A.U. after   10 cycles
 SCF Done:  E(RB3LYP) =  -364.213631088     A.U. after    9 cycles
 SCF Done:  E(RB3LYP) =  -364.213633310     A.U. after    8 cycles
 SCF Done:  E(RB3LYP) =  -364.213633598     A.U. after    7 cycles
 Optimization completed.
    -- Stationary point found.
 Normal termination of Gaussian 09 at Fri Aug 26 04:24:47 2022.

 ----------------------------------------------------------
 #P Geom=AllCheck Guess=TCheck SCRF=Check B3LYP/GTBas3 Freq
 ----------------------------------------------------------

 Structure from the checkpoint file:  "G4.Frag_858.chk"
 --------
 Frag_858
 --------
 Charge =  0 Multiplicity = 1

 SCF Done:  E(RB3LYP) =  -364.213633598     A.U. after    1 cycles

  Exact polarizability:  64.046   1.303  63.022   0.668  -1.818  55.063
 Approx polarizability:  83.838  -2.788  91.063  -0.867  -0.019  79.741

                      1                      2                      3
                      A                      A                      A
 Frequencies --     95.5382               211.8500               244.9655
 Red. masses --      2.7883                 1.0395                 1.1228
 Frc consts  --      0.0150                 0.0275                 0.0397
 IR Inten    --      1.4625                 0.8166                 9.1768

                      4                      5                      6
                      A                      A                      A
 Frequencies --    252.1186               276.2940               291.6031
 Red. masses --      1.2210                 3.0009                 2.1433
 Frc consts  --      0.0457                 0.1350                 0.1074
 IR Inten    --      7.7110                15.2141                18.4987

                      7                      8                      9
                      A                      A                      A
 Frequencies --    311.2597               343.5178               360.3374
 Red. masses --      1.6313                 1.0734                 2.3735
 Frc consts  --      0.0931                 0.0746                 0.1816
 IR Inten    --     10.0662               126.5931                 1.4897

                     10                     11                     12
                      A                      A                      A
 Frequencies --    394.0239               415.5667               487.0115
 Red. masses --      1.7563                 3.2295                 2.7959
 Frc consts  --      0.1607                 0.3286                 0.3907
 IR Inten    --      6.8849                 9.0352                 2.4420

                     13                     14                     15
                      A                      A                      A
 Frequencies --    512.7815               537.8479               712.2138
 Red. masses --      3.7149                 3.0491                 3.9876
 Frc consts  --      0.5755                 0.5197                 1.1918
 IR Inten    --      2.5315                 7.6234                 6.8337

                     16                     17                     18
                      A                      A                      A
 Frequencies --    850.9081               916.6560               927.0803
 Red. masses --      3.1360                 2.6525                 1.6588
 Frc consts  --      1.3378                 1.3131                 0.8400
 IR Inten    --     26.5508                 4.3081                 0.8094

                     19                     20                     21
                      A                      A                      A
 Frequencies --    989.2333              1001.1481              1095.6087
 Red. masses --      2.1696                 1.3057                 2.6915
 Frc consts  --      1.2509                 0.7711                 1.9035
 IR Inten    --     41.0144                 6.0933                61.8432

                     22                     23                     24
                      A                      A                      A
 Frequencies --   1131.3640              1154.2890              1184.9301
 Red. masses --      1.7264                 1.5181                 1.7583
 Frc consts  --      1.3020                 1.1918                 1.4545
 IR Inten    --     16.3383                 9.4350                19.8132

                     25                     26                     27
                      A                      A                      A
 Frequencies --   1231.4467              1256.9743              1358.1341
 Red. masses --      2.7044                 3.4438                 1.1884
 Frc consts  --      2.4163                 3.2058                 1.2915
 IR Inten    --     63.1353                46.9954                56.6236

                     28                     29                     30
                      A                      A                      A
 Frequencies --   1368.4791              1399.9411              1412.5838
 Red. masses --      1.2943                 1.3952                 1.4685
 Frc consts  --      1.4281                 1.6111                 1.7265
 IR Inten    --     11.3562                40.8607                23.6360

                     31                     32                     33
                      A                      A                      A
 Frequencies --   1430.0589              1476.9258              1486.4299
 Red. masses --      1.1818                 1.0513                 1.0521
 Frc consts  --      1.4240                 1.3511                 1.3696
 IR Inten    --      0.2610                 0.5735                 3.9399

                     34                     35                     36
                      A                      A                      A
 Frequencies --   1492.5202              1494.5787              1507.1817
 Red. masses --      1.0550                 1.0608                 1.0548
 Frc consts  --      1.3846                 1.3961                 1.4117
 IR Inten    --      3.0870                 8.8010                 2.4016

                     37                     38                     39
                      A                      A                      A
 Frequencies --   1515.4565              2989.6171              3039.4083
 Red. masses --      1.0594                 1.0516                 1.0395
 Frc consts  --      1.4335                 5.5380                 5.6581
 IR Inten    --      0.4677                45.7760                23.3707

                     40                     41                     42
                      A                      A                      A
 Frequencies --   3056.2350              3093.1954              3106.0244
 Red. masses --      1.0349                 1.0814                 1.0971
 Frc consts  --      5.6951                 6.0961                 6.2358
 IR Inten    --      9.7860                30.9675                22.4996

                     43                     44                     45
                      A                      A                      A
 Frequencies --   3131.8479              3136.3418              3142.2082
 Red. masses --      1.1021                 1.1013                 1.1011
 Frc consts  --      6.3693                 6.3828                 6.4057
 IR Inten    --     17.9990                14.0810                 2.3842

                     46                     47                     48
                      A                      A                      A
 Frequencies --   3146.3495              3804.7746              3823.7629
 Red. masses --      1.1011                 1.0683                 1.0662
 Frc consts  --      6.4221                 9.1115                 9.1852
 IR Inten    --     22.9915                39.2417                16.3591

 - Thermochemistry -
 -------------------
 Temperature   298.150 Kelvin.  Pressure   1.00000 Atm.
 Atom     1 has atomic number  6 and mass  12.00000

 Molecular mass:   105.07898 amu.
 Principal axes and moments of inertia in atomic units:
                           1         2         3
     Eigenvalues --   555.53263 759.78332 904.56550
           X            0.99130   0.13069   0.01553
           Y           -0.12875   0.98744  -0.09157
           Z           -0.02730   0.08878   0.99568
 This molecule is an asymmetric top.
 Rotational symmetry number  1.
 Warning -- assumption of classical behavior for rotation
           may cause significant error
 Rotational temperatures (Kelvin)      0.15591     0.11400     0.09575
 Rotational constants (GHZ):           3.24867     2.37534     1.99515
 Zero-point vibrational energy     410310.9 (Joules/Mol)
                                   98.06665 (Kcal/Mol)
 Warning -- explicit consideration of  14 degrees of freedom as
           vibrations may cause significant error
 Vibrational temperatures:    137.46   304.80   352.45   362.74   397.52
          (Kelvin)            419.55   447.83   494.24   518.44   566.91
                              597.91   700.70   737.78   773.84  1024.72
                             1224.27  1318.86  1333.86  1423.28  1440.43
                             1576.33  1627.78  1660.76  1704.85  1771.77
                             1808.50  1954.05  1968.93  2014.20  2032.39
                             2057.53  2124.96  2138.64  2147.40  2150.36
                             2168.50  2180.40  4301.39  4373.03  4397.23
                             4450.41  4468.87  4506.03  4512.49  4520.93
                             4526.89  5474.22  5501.54

 Zero-point correction=                           0.156279 (Hartree/Particle)
 Thermal correction to Energy=                    0.165166
 Thermal correction to Enthalpy=                  0.166110
 Thermal correction to Gibbs Free Energy=         0.124211
 Sum of electronic and zero-point Energies=           -364.057354
 Sum of electronic and thermal Energies=              -364.048468
 Sum of electronic and thermal Enthalpies=            -364.047524
 Sum of electronic and thermal Free Energies=         -364.089423

                     E (Thermal)             CV                S
                      KCal/Mol        Cal/Mol-Kelvin    Cal/Mol-Kelvin
 Total                  103.643             33.484             88.184
 Electronic               0.000              0.000              0.000
 Translational            0.889              2.981             39.866
 Rotational               0.889              2.981             27.437
 Vibrational            101.866             27.522             20.881
 Vibration     1          0.603              1.952              3.543
 Vibration     2          0.643              1.823              2.028
 Vibration     3          0.660              1.771              1.767
 Vibration     4          0.664              1.759              1.716
 Vibration     5          0.678              1.717              1.557
 Vibration     6          0.687              1.689              1.465
 Vibration     7          0.700              1.652              1.356
 Vibration     8          0.722              1.588              1.196
 Vibration     9          0.735              1.554              1.121
 Vibration    10          0.761              1.483              0.985
 Vibration    11          0.779              1.436              0.907
 Vibration    12          0.843              1.279              0.691
 Vibration    13          0.868              1.222              0.627
 Vibration    14          0.893              1.166              0.570

 Normal termination of Gaussian 09 at Fri Aug 26 04:25:42 2022.

 -----------------------------------------------------------------
 #P Geom=AllCheck Guess=TCheck SCRF=Check CCSD(T,E4T,FrzG4)/GTBas1
 -----------------------------------------------------------------

 Structure from the checkpoint file:  "G4.Frag_858.chk"
 --------
 Frag_858
 --------
 Charge =  0 Multiplicity = 1

 SCF Done:  E(RHF) =  -361.967660229     A.U. after   13 cycles
 E2 =    -0.1055864564D+01 EUMP2 =    -0.36302352479313D+03
 CCSD(T)
 CCSD(T)= -0.36311796012D+03
 862151\CCSD(T)=-363.1179601\RMSD=2.593e-09\PG=C01 [X(C4H11N1O2)]\\@
 Normal termination of Gaussian 09 at Fri Aug 26 04:30:43 2022.

 ---------------------------------------------------------
 #P Geom=AllCheck Guess=TCheck SCRF=Check MP4=FrzG4/GTBas2
 ---------------------------------------------------------

 Structure from the checkpoint file:  "G4.Frag_858.chk"
 --------
 Frag_858
 --------
 Charge =  0 Multiplicity = 1

 SCF Done:  E(RHF) =  -361.978093476     A.U. after   12 cycles
 E2 =    -0.1073747591D+01 EUMP2 =    -0.36305184106722D+03
 Normal termination of Gaussian 09 at Fri Aug 26 04:32:11 2022.

 ---------------------------------------------------------
 #P Geom=AllCheck Guess=TCheck SCRF=Check MP4=FrzG4/GTBas3
 ---------------------------------------------------------

 Structure from the checkpoint file:  "G4.Frag_858.chk"
 --------
 Frag_858
 --------
 Charge =  0 Multiplicity = 1

 SCF Done:  E(RHF) =  -362.016258578     A.U. after   12 cycles
 E2 =    -0.1311427899D+01 EUMP2 =    -0.36332768647674D+03
 Normal termination of Gaussian 09 at Fri Aug 26 04:44:55 2022.

 -----------------------------------------------------------
 #P Geom=AllCheck Guess=TCheck SCRF=Check MP2=Full/GTLargeXP
 -----------------------------------------------------------

 Structure from the checkpoint file:  "G4.Frag_858.chk"
 --------
 Frag_858
 --------
 Charge =  0 Multiplicity = 1

 SCF Done:  E(RHF) =  -362.110305923     A.U. after   12 cycles
 E2 =    -0.1711063891D+01 EUMP2 =    -0.36382136981415D+03
 Normal termination of Gaussian 09 at Fri Aug 26 04:49:21 2022.
 SCF Done:  E(RHF) =  -362.139295136     A.U. after    9 cycles
 Normal termination of Gaussian 09 at Fri Aug 26 04:53:34 2022.

                         Standard orientation:
 ---------------------------------------------------------------------
 Center     Atomic      Atomic             Coordinates (Angstroms)
 Number     Number       Type             X           Y           Z
 ---------------------------------------------------------------------
      1          6           0       -1.729933   -0.931243   -0.145282
      2          7           0       -0.800781    0.142634   -0.473397
      3          8           0       -1.279518    1.316510    0.219324
      4          6           0        0.608465   -0.084176   -0.029353
      5          6           0        0.762475   -0.167033    1.495634
      6          6           0        1.461797    1.035676   -0.621798
      7          8           0        1.042729   -1.285089   -0.644363
      8          1           0       -2.708235   -0.674440   -0.558408
      9          1           0       -1.850711   -1.103917    0.935266
     10          1           0       -1.384131   -1.846518   -0.629695
     11          1           0       -1.458339    1.927541   -0.503454
     12          1           0        0.372805    0.735046    1.970294
     13          1           0        1.818196   -0.280325    1.756526
     14          1           0        0.216544   -1.024848    1.904780
     15          1           0        2.509842    0.890714   -0.348201
     16          1           0        1.375294    1.015445   -1.710767
     17          1           0        1.129162    2.007494   -0.253031
     18          1           0        0.862542   -2.015346   -0.044418
 ---------------------------------------------------------------------

 SCF Done:  E(RHF) =  -362.145687944     A.U. after    7 cycles

 The electronic state is 1-A.
 Alpha  occ. eigenvalues --  -20.58167 -20.56057 -15.60331 -11.31790 -11.24461
 Alpha  occ. eigenvalues --  -11.21855 -11.20779  -1.40587  -1.37042  -1.13348
 Alpha  occ. eigenvalues --   -1.03110  -0.94728  -0.89406  -0.77942  -0.69939
 Alpha  occ. eigenvalues --   -0.69403  -0.65209  -0.63760  -0.59709  -0.56860
 Alpha  occ. eigenvalues --   -0.56021  -0.54138  -0.53740  -0.52404  -0.51408
 Alpha  occ. eigenvalues --   -0.50588  -0.48466  -0.44470  -0.38018
 Alpha virt. eigenvalues --    0.03319   0.03958   0.04421   0.05159   0.06340
 Alpha virt. eigenvalues --    0.06680   0.07059   0.07392   0.07603   0.09432
 Alpha virt. eigenvalues --    0.09869   0.10435   0.10609   0.11227   0.13020

 Mulliken charges:
               1
     1  C   -0.496842
     2  N   -0.003083
     3  O   -0.590033
     4  C    0.526016
     5  C   -0.606640
     6  C   -0.590535
     7  O   -0.624942
     8  H    0.170422
     9  H    0.158826
    10  H    0.187913
    11  H    0.405478
    12  H    0.212249
    13  H    0.181939
    14  H    0.160702
    15  H    0.167339
    16  H    0.191561
    17  H    0.180599
    18  H    0.369030
 Sum of Mulliken charges =  -0.00000

 Dipole moment (field-independent basis, Debye):
    X=             -0.4011    Y=             -0.2845    Z=              0.9757  Tot=              1.0927
 Quadrupole moment (field-independent basis, Debye-Ang):
   XX=            -44.7343   YY=            -39.5648   ZZ=            -46.6599
   XY=              1.0760   XZ=              3.4736   YZ=             -4.5526

 Normal termination of Gaussian 09 at Fri Aug 26 05:05:39 2022.
