 Gaussian 09, Revision E.01,
 Gaussian 09:  ES64L-G09RevE.01 30-Nov-2015

 -----
 #P G4
 -----

 ---------
 Frag_1142
 ---------
 Symbolic Z-matrix:
 Charge =  0 Multiplicity = 1

 SCF Done:  E(RB3LYP) =  -319.860446066     A.U. after   14 cycles
 SCF Done:  E(RB3LYP) =  -319.873758076     A.U. after   12 cycles
 SCF Done:  E(RB3LYP) =  -319.876334509     A.U. after   12 cycles
 SCF Done:  E(RB3LYP) =  -319.878625226     A.U. after   13 cycles
 SCF Done:  E(RB3LYP) =  -319.879468703     A.U. after   11 cycles
 SCF Done:  E(RB3LYP) =  -319.880015706     A.U. after   10 cycles
 SCF Done:  E(RB3LYP) =  -319.880092495     A.U. after   10 cycles
 SCF Done:  E(RB3LYP) =  -319.880108916     A.U. after    9 cycles
 SCF Done:  E(RB3LYP) =  -319.880125362     A.U. after    9 cycles
 SCF Done:  E(RB3LYP) =  -319.880149805     A.U. after   10 cycles
 SCF Done:  E(RB3LYP) =  -319.880570596     A.U. after    9 cycles
 SCF Done:  E(RB3LYP) =  -319.880571767     A.U. after    8 cycles
 SCF Done:  E(RB3LYP) =  -319.880572041     A.U. after    7 cycles
 Optimization completed.
    -- Stationary point found.
 Normal termination of Gaussian 09 at Sun Aug 21 01:53:54 2022.

 ----------------------------------------------------------
 #P Geom=AllCheck Guess=TCheck SCRF=Check B3LYP/GTBas3 Freq
 ----------------------------------------------------------

 Structure from the checkpoint file:  "G4.Frag_1142.chk"
 ---------
 Frag_1142
 ---------
 Charge =  0 Multiplicity = 1

 SCF Done:  E(RB3LYP) =  -319.880572041     A.U. after    1 cycles

  Exact polarizability:  55.178   0.902  53.557  -1.071   0.060  35.458
 Approx polarizability:  72.722   7.151  81.362  -2.637  -1.533  53.688

                      1                      2                      3
                      A                      A                      A
 Frequencies --    117.3794               134.0224               159.1865
 Red. masses --      1.2462                 2.3932                 1.7550
 Frc consts  --      0.0101                 0.0253                 0.0262
 IR Inten    --      0.8522                 3.5584                10.0288

                      4                      5                      6
                      A                      A                      A
 Frequencies --    231.0747               297.2860               346.1374
 Red. masses --      1.4647                 3.2851                 1.1611
 Frc consts  --      0.0461                 0.1711                 0.0820
 IR Inten    --     59.3331                12.9494                11.6286

                      7                      8                      9
                      A                      A                      A
 Frequencies --    419.0535               497.2423               599.8365
 Red. masses --      3.5812                 3.1767                 3.3662
 Frc consts  --      0.3705                 0.4628                 0.7136
 IR Inten    --     22.8901                 6.5456                 8.5514

                     10                     11                     12
                      A                      A                      A
 Frequencies --    613.3680               747.5559               950.0067
 Red. masses --      3.9928                 4.8116                 1.7420
 Frc consts  --      0.8851                 1.5843                 0.9263
 IR Inten    --      4.8682                13.2232               145.5871

                     13                     14                     15
                      A                      A                      A
 Frequencies --    965.6669              1016.4134              1056.3640
 Red. masses --      2.7138                 1.5890                 1.7708
 Frc consts  --      1.4910                 0.9672                 1.1643
 IR Inten    --     33.9119                32.0258                 9.3786

                     16                     17                     18
                      A                      A                      A
 Frequencies --   1128.0826              1286.1408              1318.2722
 Red. masses --      1.9520                 3.0414                 1.2171
 Frc consts  --      1.4636                 2.9642                 1.2461
 IR Inten    --     19.2894                97.5426                22.6186

                     19                     20                     21
                      A                      A                      A
 Frequencies --   1344.0418              1389.7323              1422.8969
 Red. masses --      1.2640                 1.2886                 2.6807
 Frc consts  --      1.3453                 1.4663                 3.1977
 IR Inten    --      5.6237                14.3335                87.3668

                     22                     23                     24
                      A                      A                      A
 Frequencies --   1463.3537              1474.8448              1693.5151
 Red. masses --      1.1234                 1.0522                 1.0916
 Frc consts  --      1.4174                 1.3484                 1.8445
 IR Inten    --      7.3967                 6.1996                33.2542

                     25                     26                     27
                      A                      A                      A
 Frequencies --   1707.9343              1765.1430              3061.0423
 Red. masses --      1.1018                 8.8280                 1.0361
 Frc consts  --      1.8937                16.2059                 5.7197
 IR Inten    --     21.3440               221.7040                 3.3634

                     28                     29                     30
                      A                      A                      A
 Frequencies --   3128.6259              3163.2218              3427.4180
 Red. masses --      1.0975                 1.1046                 1.0477
 Frc consts  --      6.3292                 6.5118                 7.2511
 IR Inten    --      6.9758                10.4983                 8.8683

                     31                     32                     33
                      A                      A                      A
 Frequencies --   3438.2631              3490.9034              3517.5694
 Red. masses --      1.0491                 1.0926                 1.0922
 Frc consts  --      7.3070                 7.8448                 7.9625
 IR Inten    --      2.8068                 7.3330                 0.9600

 - Thermochemistry -
 -------------------
 Temperature   298.150 Kelvin.  Pressure   1.00000 Atm.
 Atom     1 has atomic number  6 and mass  12.00000

 Molecular mass:    89.05891 amu.
 Principal axes and moments of inertia in atomic units:
                           1         2         3
     Eigenvalues --   360.83851 502.42621 830.78810
           X            0.99258  -0.12154  -0.00365
           Y            0.12156   0.99257   0.00485
           Z            0.00304  -0.00526   0.99998
 This molecule is an asymmetric top.
 Rotational symmetry number  1.
 Rotational temperatures (Kelvin)      0.24003     0.17239     0.10426
 Rotational constants (GHZ):           5.00152     3.59205     2.17232
 Zero-point vibrational energy     283345.1 (Joules/Mol)
                                   67.72109 (Kcal/Mol)
 Warning -- explicit consideration of  10 degrees of freedom as
           vibrations may cause significant error
 Vibrational temperatures:    168.88   192.83   229.03   332.46   427.73
          (Kelvin)            498.01   602.92   715.42   863.03   882.50
                             1075.56  1366.85  1389.38  1462.39  1519.87
                             1623.06  1850.47  1896.70  1933.77  1999.51
                             2047.23  2105.44  2121.97  2436.59  2457.33
                             2539.64  4404.15  4501.39  4551.17  4931.28
                             4946.89  5022.63  5060.99

 Zero-point correction=                           0.107920 (Hartree/Particle)
 Thermal correction to Energy=                    0.115218
 Thermal correction to Enthalpy=                  0.116162
 Thermal correction to Gibbs Free Energy=         0.077085
 Sum of electronic and zero-point Energies=           -319.772652
 Sum of electronic and thermal Energies=              -319.765354
 Sum of electronic and thermal Enthalpies=            -319.764410
 Sum of electronic and thermal Free Energies=         -319.803487

                     E (Thermal)             CV                S
                      KCal/Mol        Cal/Mol-Kelvin    Cal/Mol-Kelvin
 Total                   72.301             24.912             82.246
 Electronic               0.000              0.000              0.000
 Translational            0.889              2.981             39.373
 Rotational               0.889              2.981             26.513
 Vibrational             70.523             18.950             16.360
 Vibration     1          0.608              1.935              3.143
 Vibration     2          0.613              1.919              2.888
 Vibration     3          0.621              1.892              2.559
 Vibration     4          0.653              1.793              1.871
 Vibration     5          0.691              1.679              1.432
 Vibration     6          0.724              1.583              1.184
 Vibration     7          0.782              1.429              0.895
 Vibration     8          0.853              1.256              0.665
 Vibration     9          0.958              1.032              0.450
 Vibration    10          0.973              1.004              0.427

 Optimization completed.
    -- Stationary point found.
 Normal termination of Gaussian 09 at Sun Aug 21 01:56:02 2022.

 -----------------------------------------------------------------
 #P Geom=AllCheck Guess=TCheck SCRF=Check CCSD(T,E4T,FrzG4)/GTBas1
 -----------------------------------------------------------------

 Structure from the checkpoint file:  "G4.Frag_1142.chk"
 ---------
 Frag_1142
 ---------
 Charge =  0 Multiplicity = 1

 SCF Done:  E(RHF) =  -317.958792961     A.U. after   14 cycles
 E2 =    -0.9234963710D+00 EUMP2 =    -0.31888228933179D+03
 CCSD(T)
 CCSD(T)= -0.31895367295D+03
 MP4SDTQ=-318.9567103\MP4SDQ=-318.9248083\CCSD=-318.9237239\CCSD(T)=-31
 Normal termination of Gaussian 09 at Sun Aug 21 02:01:34 2022.

 ---------------------------------------------------------
 #P Geom=AllCheck Guess=TCheck SCRF=Check MP4=FrzG4/GTBas2
 ---------------------------------------------------------

 Structure from the checkpoint file:  "G4.Frag_1142.chk"
 ---------
 Frag_1142
 ---------
 Charge =  0 Multiplicity = 1

 SCF Done:  E(RHF) =  -317.969539807     A.U. after   13 cycles
 E2 =    -0.9381205638D+00 EUMP2 =    -0.31890766037047D+03
 Normal termination of Gaussian 09 at Sun Aug 21 02:06:53 2022.

 ---------------------------------------------------------
 #P Geom=AllCheck Guess=TCheck SCRF=Check MP4=FrzG4/GTBas3
 ---------------------------------------------------------

 Structure from the checkpoint file:  "G4.Frag_1142.chk"
 ---------
 Frag_1142
 ---------
 Charge =  0 Multiplicity = 1

 SCF Done:  E(RHF) =  -317.999436346     A.U. after   12 cycles
 E2 =    -0.1126048680D+01 EUMP2 =    -0.31912548502622D+03
 Normal termination of Gaussian 09 at Sun Aug 21 04:22:23 2022.

 -----------------------------------------------------------
 #P Geom=AllCheck Guess=TCheck SCRF=Check MP2=Full/GTLargeXP
 -----------------------------------------------------------

 Structure from the checkpoint file:  "G4.Frag_1142.chk"
 ---------
 Frag_1142
 ---------
 Charge =  0 Multiplicity = 1

 SCF Done:  E(RHF) =  -318.084296074     A.U. after   12 cycles
 E2 =    -0.1467264883D+01 EUMP2 =    -0.31955156095673D+03
 Normal termination of Gaussian 09 at Sun Aug 21 04:27:33 2022.
 SCF Done:  E(RHF) =  -318.109235257     A.U. after   10 cycles
 Normal termination of Gaussian 09 at Sun Aug 21 04:33:20 2022.

                         Standard orientation:
 ---------------------------------------------------------------------
 Center     Atomic      Atomic             Coordinates (Angstroms)
 Number     Number       Type             X           Y           Z
 ---------------------------------------------------------------------
      1          6           0       -1.755338    0.792136   -0.026417
      2          6           0       -0.699952   -0.293319   -0.031239
      3          8           0       -0.959438   -1.481059    0.062833
      4          7           0        0.611668    0.121341   -0.166549
      5          7           0        0.940401    1.460695    0.085042
      6          7           0        1.638038   -0.833678    0.059687
      7          1           0       -1.702289    1.372916    0.898845
      8          1           0       -1.615538    1.495811   -0.849083
      9          1           0       -2.729941    0.309064   -0.097618
     10          1           0        1.597175    1.762810   -0.630434
     11          1           0        1.442922    1.503252    0.972015
     12          1           0        1.181528   -1.606372    0.548516
     13          1           0        1.902639   -1.220425   -0.846229
 ---------------------------------------------------------------------

 SCF Done:  E(RHF) =  -318.114501342     A.U. after    8 cycles

 The electronic state is 1-A.
 Alpha  occ. eigenvalues --  -20.52387 -15.63493 -15.59822 -15.58905 -11.35320
 Alpha  occ. eigenvalues --  -11.23148  -1.40384  -1.33104  -1.17233  -1.05036
 Alpha  occ. eigenvalues --   -0.97031  -0.77420  -0.72591  -0.69226  -0.68590
 Alpha  occ. eigenvalues --   -0.64675  -0.59689  -0.59143  -0.56170  -0.51420
 Alpha  occ. eigenvalues --   -0.47792  -0.45505  -0.42767  -0.38571
 Alpha virt. eigenvalues --    0.03882   0.04273   0.05338   0.05522   0.07475
 Alpha virt. eigenvalues --    0.07654   0.07822   0.08418   0.08917   0.10394
 Alpha virt. eigenvalues --    0.11240   0.11626   0.13363   0.14516   0.15415

 Mulliken charges:
               1
     1  C   -0.501210
     2  C    0.485912
     3  O   -0.631557
     4  N    0.000707
     5  N   -0.598386
     6  N   -0.613667
     7  H    0.191891
     8  H    0.199662
     9  H    0.218129
    10  H    0.309376
    11  H    0.306768
    12  H    0.329039
    13  H    0.303336
 Sum of Mulliken charges =  -0.00000

 Dipole moment (field-independent basis, Debye):
    X=              1.5913    Y=              2.4334    Z=             -0.4608  Tot=              2.9438
 Quadrupole moment (field-independent basis, Debye-Ang):
   XX=            -35.5586   YY=            -38.9100   ZZ=            -33.9586
   XY=             -2.7205   XZ=             -1.6489   YZ=              0.6779

 Normal termination of Gaussian 09 at Sun Aug 21 06:57:55 2022.
