 Gaussian 09, Revision E.01,
 Gaussian 09:  ES64L-G09RevE.01 30-Nov-2015

 -----
 #P G4
 -----

 --------
 Frag_567
 --------
 Symbolic Z-matrix:
 Charge =  0 Multiplicity = 1

 SCF Done:  E(RB3LYP) =  -318.704994254     A.U. after   15 cycles
 SCF Done:  E(RB3LYP) =  -318.728031299     A.U. after   13 cycles
 SCF Done:  E(RB3LYP) =  -318.731553058     A.U. after   13 cycles
 SCF Done:  E(RB3LYP) =  -318.732308800     A.U. after   12 cycles
 SCF Done:  E(RB3LYP) =  -318.733556141     A.U. after   13 cycles
 SCF Done:  E(RB3LYP) =  -318.734018140     A.U. after   13 cycles
 SCF Done:  E(RB3LYP) =  -318.734136170     A.U. after   12 cycles
 SCF Done:  E(RB3LYP) =  -318.734180416     A.U. after   11 cycles
 SCF Done:  E(RB3LYP) =  -318.734186079     A.U. after    9 cycles
 SCF Done:  E(RB3LYP) =  -318.734186618     A.U. after    8 cycles
 Optimization completed.
    -- Stationary point found.
 Normal termination of Gaussian 09 at Sun Aug 21 23:03:10 2022.

 ----------------------------------------------------------
 #P Geom=AllCheck Guess=TCheck SCRF=Check B3LYP/GTBas3 Freq
 ----------------------------------------------------------

 Structure from the checkpoint file:  "G4.Frag_567.chk"
 --------
 Frag_567
 --------
 Charge =  0 Multiplicity = 1

 SCF Done:  E(RB3LYP) =  -318.734186618     A.U. after    1 cycles

  Exact polarizability:  50.638  -2.696  57.469   0.371  -1.053  26.019
 Approx polarizability:  70.711  -4.791  99.441   2.800  -1.189  39.846

                      1                      2                      3
                      A                      A                      A
 Frequencies --    101.8248               277.3194               332.8927
 Red. masses --      5.7925                 4.1546                 1.6103
 Frc consts  --      0.0354                 0.1883                 0.1051
 IR Inten    --      0.6825                 8.0013                33.9754

                      4                      5                      6
                      A                      A                      A
 Frequencies --    412.9810               435.7373               522.4299
 Red. masses --      3.6703                 1.6074                 2.1104
 Frc consts  --      0.3688                 0.1798                 0.3394
 IR Inten    --      5.9795                43.3202                36.0215

                      7                      8                      9
                      A                      A                      A
 Frequencies --    552.7002               606.2993               618.6573
 Red. masses --      1.7441                 1.5603                 1.8375
 Frc consts  --      0.3139                 0.3379                 0.4144
 IR Inten    --    168.6481                 4.9200                40.0038

                     10                     11                     12
                      A                      A                      A
 Frequencies --    739.8225               758.2393               826.3516
 Red. masses --      1.4656                 3.2013                 5.6544
 Frc consts  --      0.4726                 1.0844                 2.2749
 IR Inten    --    216.5591                 9.2703                25.7467

                     13                     14                     15
                      A                      A                      A
 Frequencies --    931.5341              1100.5401              1119.2994
 Red. masses --      1.2114                 1.7882                 1.9588
 Frc consts  --      0.6194                 1.2761                 1.4459
 IR Inten    --     30.2072                15.4496                36.0380

                     16                     17                     18
                      A                      A                      A
 Frequencies --   1171.0261              1311.6031              1443.0502
 Red. masses --      1.3154                 2.7232                 2.8000
 Frc consts  --      1.0628                 2.7602                 3.4354
 IR Inten    --     49.9974               194.7969                27.4692

                     19                     20                     21
                      A                      A                      A
 Frequencies --   1606.1715              1625.7412              1736.2453
 Red. masses --      1.2503                 1.1729                 6.7099
 Frc consts  --      1.9004                 1.8265                11.9176
 IR Inten    --    129.1206                31.5914               166.2663

                     22                     23                     24
                      A                      A                      A
 Frequencies --   1807.7525              3467.7182              3539.2203
 Red. masses --      9.7824                 1.0727                 1.0468
 Frc consts  --     18.8353                 7.6004                 7.7256
 IR Inten    --    183.2302                12.0321                16.0116

                     25                     26                     27
                      A                      A                      A
 Frequencies --   3576.7068              3643.5436              3705.2872
 Red. masses --      1.0449                 1.0978                 1.1031
 Frc consts  --      7.8757                 8.5863                 8.9230
 IR Inten    --     30.6047                21.2495                44.7048

 - Thermochemistry -
 -------------------
 Temperature   298.150 Kelvin.  Pressure   1.00000 Atm.
 Atom     1 has atomic number  7 and mass  14.00307

 Molecular mass:    87.04326 amu.
 Principal axes and moments of inertia in atomic units:
                           1         2         3
     Eigenvalues --   325.84908 505.82991 810.96918
           X            0.99952  -0.02713  -0.01512
           Y            0.02700   0.99960  -0.00870
           Z            0.01535   0.00828   0.99985
 This molecule is an asymmetric top.
 Rotational symmetry number  1.
 Rotational temperatures (Kelvin)      0.26581     0.17123     0.10680
 Rotational constants (GHZ):           5.53858     3.56788     2.22541
 Zero-point vibrational energy     227115.2 (Joules/Mol)
                                   54.28183 (Kcal/Mol)
 Warning -- explicit consideration of   9 degrees of freedom as
           vibrations may cause significant error
 Vibrational temperatures:    146.50   399.00   478.96   594.19   626.93
          (Kelvin)            751.66   795.21   872.33   890.11  1064.44
                             1090.94  1188.93  1340.27  1583.43  1610.42
                             1684.84  1887.10  2076.22  2310.92  2339.08
                             2498.07  2600.95  4989.27  5092.14  5146.08
                             5242.24  5331.08

 Zero-point correction=                           0.086504 (Hartree/Particle)
 Thermal correction to Energy=                    0.092574
 Thermal correction to Enthalpy=                  0.093518
 Thermal correction to Gibbs Free Energy=         0.057068
 Sum of electronic and zero-point Energies=           -318.647683
 Sum of electronic and thermal Energies=              -318.641613
 Sum of electronic and thermal Enthalpies=            -318.640669
 Sum of electronic and thermal Free Energies=         -318.677119

                     E (Thermal)             CV                S
                      KCal/Mol        Cal/Mol-Kelvin    Cal/Mol-Kelvin
 Total                   58.091             22.115             76.716
 Electronic               0.000              0.000              0.000
 Translational            0.889              2.981             39.304
 Rotational               0.889              2.981             26.394
 Vibrational             56.313             16.154             11.018
 Vibration     1          0.604              1.948              3.419
 Vibration     2          0.678              1.715              1.550
 Vibration     3          0.715              1.610              1.246
 Vibration     4          0.777              1.442              0.916
 Vibration     5          0.796              1.392              0.840
 Vibration     6          0.877              1.200              0.604
 Vibration     7          0.908              1.134              0.539
 Vibration     8          0.965              1.018              0.439
 Vibration     9          0.979              0.992              0.419

 Optimization completed.
    -- Stationary point found.
 Normal termination of Gaussian 09 at Sun Aug 21 23:05:07 2022.

 -----------------------------------------------------------------
 #P Geom=AllCheck Guess=TCheck SCRF=Check CCSD(T,E4T,FrzG4)/GTBas1
 -----------------------------------------------------------------

 Structure from the checkpoint file:  "G4.Frag_567.chk"
 --------
 Frag_567
 --------
 Charge =  0 Multiplicity = 1

 SCF Done:  E(RHF) =  -316.859230581     A.U. after   14 cycles
 E2 =    -0.9142012723D+00 EUMP2 =    -0.31777343185325D+03
 CCSD(T)
 CCSD(T)= -0.31783505828D+03
 288\MP4SDQ=-317.8053367\CCSD=-317.803257\CCSD(T)=-317.8350583\RMSD=9.3
 Normal termination of Gaussian 09 at Sun Aug 21 23:10:19 2022.

 ---------------------------------------------------------
 #P Geom=AllCheck Guess=TCheck SCRF=Check MP4=FrzG4/GTBas2
 ---------------------------------------------------------

 Structure from the checkpoint file:  "G4.Frag_567.chk"
 --------
 Frag_567
 --------
 Charge =  0 Multiplicity = 1

 SCF Done:  E(RHF) =  -316.871058291     A.U. after   12 cycles
 E2 =    -0.9291565317D+00 EUMP2 =    -0.31780021482294D+03
 Normal termination of Gaussian 09 at Sun Aug 21 23:16:16 2022.

 ---------------------------------------------------------
 #P Geom=AllCheck Guess=TCheck SCRF=Check MP4=FrzG4/GTBas3
 ---------------------------------------------------------

 Structure from the checkpoint file:  "G4.Frag_567.chk"
 --------
 Frag_567
 --------
 Charge =  0 Multiplicity = 1

 SCF Done:  E(RHF) =  -316.901291460     A.U. after   12 cycles
 E2 =    -0.1101099706D+01 EUMP2 =    -0.31800239116628D+03
 Normal termination of Gaussian 09 at Mon Aug 22 00:54:18 2022.

 -----------------------------------------------------------
 #P Geom=AllCheck Guess=TCheck SCRF=Check MP2=Full/GTLargeXP
 -----------------------------------------------------------

 Structure from the checkpoint file:  "G4.Frag_567.chk"
 --------
 Frag_567
 --------
 Charge =  0 Multiplicity = 1

 SCF Done:  E(RHF) =  -316.987676593     A.U. after   13 cycles
 E2 =    -0.1440066592D+01 EUMP2 =    -0.31842774318514D+03
 Normal termination of Gaussian 09 at Mon Aug 22 00:58:33 2022.
 SCF Done:  E(RHF) =  -317.011954866     A.U. after   10 cycles
 Normal termination of Gaussian 09 at Mon Aug 22 01:03:19 2022.

                         Standard orientation:
 ---------------------------------------------------------------------
 Center     Atomic      Atomic             Coordinates (Angstroms)
 Number     Number       Type             X           Y           Z
 ---------------------------------------------------------------------
      1          7           0        1.431773   -1.188836    0.191947
      2          6           0        0.761253   -0.126635    0.002666
      3          7           0        1.368639    1.121441   -0.099698
      4          6           0       -0.765555   -0.133929   -0.030758
      5          7           0       -1.353458    1.087914    0.149363
      6          8           0       -1.382337   -1.162363   -0.215058
      7          1           0        0.776522   -1.965664    0.301748
      8          1           0        0.983465    1.725817   -0.813101
      9          1           0        2.376563    1.047245   -0.161409
     10          1           0       -2.354739    1.091020    0.272953
     11          1           0       -0.825978    1.820242    0.597544
 ---------------------------------------------------------------------

 SCF Done:  E(RHF) =  -317.017014840     A.U. after    8 cycles

 The electronic state is 1-A.
 Alpha  occ. eigenvalues --  -20.54389 -15.60375 -15.58880 -15.54907 -11.37639
 Alpha  occ. eigenvalues --  -11.33095  -1.40923  -1.27835  -1.23027  -1.16074
 Alpha  occ. eigenvalues --   -0.91095  -0.78508  -0.77013  -0.70460  -0.68913
 Alpha  occ. eigenvalues --   -0.64210  -0.62469  -0.60310  -0.52828  -0.47452
 Alpha  occ. eigenvalues --   -0.44495  -0.43278  -0.39335
 Alpha virt. eigenvalues --    0.02999   0.04223   0.05674   0.05823   0.07045
 Alpha virt. eigenvalues --    0.07449   0.07691   0.09294   0.09663   0.10130
 Alpha virt. eigenvalues --    0.11774   0.11861   0.12304   0.13281   0.14192

 Mulliken charges:
               1
     1  N   -0.645759
     2  C    0.429569
     3  N   -0.731473
     4  C    0.546143
     5  N   -0.710578
     6  O   -0.595542
     7  H    0.323390
     8  H    0.328323
     9  H    0.346830
    10  H    0.356861
    11  H    0.352235
 Sum of Mulliken charges =  -0.00000

 Dipole moment (field-independent basis, Debye):
    X=             -0.4403    Y=              4.5861    Z=              0.0431  Tot=              4.6074
 Quadrupole moment (field-independent basis, Debye-Ang):
   XX=            -36.4879   YY=            -34.3291   ZZ=            -35.8056
   XY=             -1.2051   XZ=             -3.8993   YZ=             -1.3837

 Normal termination of Gaussian 09 at Mon Aug 22 03:04:22 2022.
