 Gaussian 09, Revision E.01,
 Gaussian 09:  ES64L-G09RevE.01 30-Nov-2015

 -----
 #P G4
 -----

 --------
 Frag_435
 --------
 Symbolic Z-matrix:
 Charge =  0 Multiplicity = 1

 SCF Done:  E(RB3LYP) =  -308.907816177     A.U. after   12 cycles
 SCF Done:  E(RB3LYP) =  -308.912057572     A.U. after   11 cycles
 SCF Done:  E(RB3LYP) =  -308.912767973     A.U. after   11 cycles
 SCF Done:  E(RB3LYP) =  -308.913193965     A.U. after   10 cycles
 SCF Done:  E(RB3LYP) =  -308.913245754     A.U. after   10 cycles
 SCF Done:  E(RB3LYP) =  -308.913390953     A.U. after   10 cycles
 SCF Done:  E(RB3LYP) =  -308.913403152     A.U. after    9 cycles
 SCF Done:  E(RB3LYP) =  -308.913405683     A.U. after    7 cycles
 SCF Done:  E(RB3LYP) =  -308.913406637     A.U. after    7 cycles
 SCF Done:  E(RB3LYP) =  -308.913407066     A.U. after    7 cycles
 SCF Done:  E(RB3LYP) =  -308.913407185     A.U. after    6 cycles
 Optimization completed.
    -- Stationary point found.
 Normal termination of Gaussian 09 at Fri Aug 26 09:30:39 2022.

 ----------------------------------------------------------
 #P Geom=AllCheck Guess=TCheck SCRF=Check B3LYP/GTBas3 Freq
 ----------------------------------------------------------

 Structure from the checkpoint file:  "G4.Frag_435.chk"
 --------
 Frag_435
 --------
 Charge =  0 Multiplicity = 1

 SCF Done:  E(RB3LYP) =  -308.913407185     A.U. after    1 cycles

  Exact polarizability:  55.008   0.449  52.153  -0.818  -0.250  50.229
 Approx polarizability:  70.864   1.495  73.870   1.199  -1.850  73.995

                      1                      2                      3
                      A                      A                      A
 Frequencies --    103.9059               223.7310               242.5403
 Red. masses --      3.0999                 1.0842                 1.6540
 Frc consts  --      0.0197                 0.0320                 0.0573
 IR Inten    --      1.5150                 0.4558                 0.1425

                      4                      5                      6
                      A                      A                      A
 Frequencies --    274.1461               288.0555               315.7018
 Red. masses --      1.8459                 2.2321                 1.1155
 Frc consts  --      0.0817                 0.1091                 0.0655
 IR Inten    --      3.1015                 1.4100                46.5483

                      7                      8                      9
                      A                      A                      A
 Frequencies --    372.1722               425.0664               498.7467
 Red. masses --      3.0738                 2.6426                 1.3120
 Frc consts  --      0.2509                 0.2813                 0.1923
 IR Inten    --     13.2197                 2.2378                85.0220

                     10                     11                     12
                      A                      A                      A
 Frequencies --    516.9838               635.6143               760.8919
 Red. masses --      2.0325                 2.3852                 2.7412
 Frc consts  --      0.3201                 0.5678                 0.9351
 IR Inten    --     72.9675                 4.0450                 9.4644

                     13                     14                     15
                      A                      A                      A
 Frequencies --    891.2385               931.8692               990.0284
 Red. masses --      2.2735                 1.7409                 1.4490
 Frc consts  --      1.0640                 0.8907                 0.8368
 IR Inten    --     13.9068                 5.8001                20.1289

                     16                     17                     18
                      A                      A                      A
 Frequencies --   1023.5209              1078.2446              1103.6986
 Red. masses --      1.8094                 1.6356                 2.6859
 Frc consts  --      1.1168                 1.1204                 1.9277
 IR Inten    --     31.9523                28.5609                21.0360

                     19                     20                     21
                      A                      A                      A
 Frequencies --   1123.3047              1176.7000              1272.5858
 Red. masses --      1.9827                 2.1648                 1.4303
 Frc consts  --      1.4740                 1.7660                 1.3647
 IR Inten    --    109.7836                25.1965                12.8304

                     22                     23                     24
                      A                      A                      A
 Frequencies --   1301.9137              1339.9345              1373.2891
 Red. masses --      1.4570                 1.4461                 1.3049
 Frc consts  --      1.4550                 1.5298                 1.4500
 IR Inten    --     11.6786                 6.6984                 3.3678

                     25                     26                     27
                      A                      A                      A
 Frequencies --   1404.3961              1408.8956              1426.8841
 Red. masses --      1.3100                 1.2702                 1.2037
 Frc consts  --      1.5223                 1.4855                 1.4439
 IR Inten    --     13.3118                 5.1221                42.2096

                     28                     29                     30
                      A                      A                      A
 Frequencies --   1433.5339              1488.7499              1491.6487
 Red. masses --      1.1973                 1.0572                 1.0707
 Frc consts  --      1.4496                 1.3805                 1.4036
 IR Inten    --     69.1604                 3.5816                 6.6659

                     31                     32                     33
                      A                      A                      A
 Frequencies --   1498.6156              1505.5426              3026.2773
 Red. masses --      1.0512                 1.0536                 1.0659
 Frc consts  --      1.3910                 1.4071                 5.7518
 IR Inten    --      7.0532                 4.1473                 5.6682

                     34                     35                     36
                      A                      A                      A
 Frequencies --   3031.7089              3033.6231              3052.0084
 Red. masses --      1.0524                 1.0408                 1.0852
 Frc consts  --      5.6990                 5.6435                 5.9554
 IR Inten    --     27.2406                16.4020                20.7689

                     37                     38                     39
                      A                      A                      A
 Frequencies --   3097.7545              3100.6821              3117.5626
 Red. masses --      1.0985                 1.0989                 1.1015
 Frc consts  --      6.2107                 6.2245                 6.3074
 IR Inten    --     46.8917                24.6562                25.5828

                     40                     41                     42
                      A                      A                      A
 Frequencies --   3124.3641              3753.7282              3804.2919
 Red. masses --      1.1002                 1.0649                 1.0658
 Frc consts  --      6.3277                 8.8406                 9.0882
 IR Inten    --     15.9732                39.2613                13.0591

 - Thermochemistry -
 -------------------
 Temperature   298.150 Kelvin.  Pressure   1.00000 Atm.
 Atom     1 has atomic number  6 and mass  12.00000

 Molecular mass:    90.06808 amu.
 Principal axes and moments of inertia in atomic units:
                           1         2         3
     Eigenvalues --   397.48466 634.97376 781.90638
           X            0.99938   0.00383  -0.03508
           Y           -0.00273   0.99951   0.03128
           Z            0.03518  -0.03117   0.99889
 This molecule is an asymmetric top.
 Rotational symmetry number  1.
 Rotational temperatures (Kelvin)      0.21790     0.13641     0.11077
 Rotational constants (GHZ):           4.54040     2.84223     2.30813
 Zero-point vibrational energy     371226.1 (Joules/Mol)
                                   88.72516 (Kcal/Mol)
 Warning -- explicit consideration of  10 degrees of freedom as
           vibrations may cause significant error
 Vibrational temperatures:    149.50   321.90   348.96   394.43   414.45
          (Kelvin)            454.22   535.47   611.57   717.58   743.82
                              914.51  1094.75  1282.29  1340.75  1424.43
                             1472.62  1551.35  1587.97  1616.18  1693.01
                             1830.96  1873.16  1927.86  1975.85  2020.61
                             2027.08  2052.97  2062.53  2141.98  2146.15
                             2156.17  2166.14  4354.13  4361.95  4364.70
                             4391.15  4456.97  4461.18  4485.47  4495.26
                             5400.77  5473.52

 Zero-point correction=                           0.141393 (Hartree/Particle)
 Thermal correction to Energy=                    0.148913
 Thermal correction to Enthalpy=                  0.149857
 Thermal correction to Gibbs Free Energy=         0.110695
 Sum of electronic and zero-point Energies=           -308.772015
 Sum of electronic and thermal Energies=              -308.764494
 Sum of electronic and thermal Enthalpies=            -308.763550
 Sum of electronic and thermal Free Energies=         -308.802712

                     E (Thermal)             CV                S
                      KCal/Mol        Cal/Mol-Kelvin    Cal/Mol-Kelvin
 Total                   93.444             27.658             82.423
 Electronic               0.000              0.000              0.000
 Translational            0.889              2.981             39.406
 Rotational               0.889              2.981             26.781
 Vibrational             91.667             21.697             16.235
 Vibration     1          0.605              1.946              3.380
 Vibration     2          0.649              1.805              1.929
 Vibration     3          0.659              1.775              1.784
 Vibration     4          0.676              1.721              1.570
 Vibration     5          0.685              1.696              1.485
 Vibration     6          0.703              1.644              1.332
 Vibration     7          0.744              1.529              1.071
 Vibration     8          0.787              1.416              0.875
 Vibration     9          0.854              1.253              0.661
 Vibration    10          0.872              1.212              0.617

 Optimization completed.
    -- Stationary point found.
 Normal termination of Gaussian 09 at Fri Aug 26 09:31:17 2022.

 -----------------------------------------------------------------
 #P Geom=AllCheck Guess=TCheck SCRF=Check CCSD(T,E4T,FrzG4)/GTBas1
 -----------------------------------------------------------------

 Structure from the checkpoint file:  "G4.Frag_435.chk"
 --------
 Frag_435
 --------
 Charge =  0 Multiplicity = 1

 SCF Done:  E(RHF) =  -306.999976245     A.U. after   11 cycles
 E2 =    -0.8867579982D+00 EUMP2 =    -0.30788673424350D+03
 CCSD(T)
 CCSD(T)= -0.30796810677D+03
 -307.9675567\MP4SDQ=-307.942795\CCSD=-307.9432542\CCSD(T)=-307.9681068
 Normal termination of Gaussian 09 at Fri Aug 26 09:33:44 2022.

 ---------------------------------------------------------
 #P Geom=AllCheck Guess=TCheck SCRF=Check MP4=FrzG4/GTBas2
 ---------------------------------------------------------

 Structure from the checkpoint file:  "G4.Frag_435.chk"
 --------
 Frag_435
 --------
 Charge =  0 Multiplicity = 1

 SCF Done:  E(RHF) =  -307.009505412     A.U. after   11 cycles
 E2 =    -0.9010659681D+00 EUMP2 =    -0.30791057137962D+03
 Normal termination of Gaussian 09 at Fri Aug 26 09:34:32 2022.

 ---------------------------------------------------------
 #P Geom=AllCheck Guess=TCheck SCRF=Check MP4=FrzG4/GTBas3
 ---------------------------------------------------------

 Structure from the checkpoint file:  "G4.Frag_435.chk"
 --------
 Frag_435
 --------
 Charge =  0 Multiplicity = 1

 SCF Done:  E(RHF) =  -307.043544595     A.U. after   10 cycles
 E2 =    -0.1108983158D+01 EUMP2 =    -0.30815252775280D+03
 Normal termination of Gaussian 09 at Fri Aug 26 09:39:16 2022.

 -----------------------------------------------------------
 #P Geom=AllCheck Guess=TCheck SCRF=Check MP2=Full/GTLargeXP
 -----------------------------------------------------------

 Structure from the checkpoint file:  "G4.Frag_435.chk"
 --------
 Frag_435
 --------
 Charge =  0 Multiplicity = 1

 SCF Done:  E(RHF) =  -307.124440902     A.U. after   11 cycles
 E2 =    -0.1450482424D+01 EUMP2 =    -0.30857492332599D+03
 Normal termination of Gaussian 09 at Fri Aug 26 09:41:20 2022.
 SCF Done:  E(RHF) =  -307.149442489     A.U. after    8 cycles
 Normal termination of Gaussian 09 at Fri Aug 26 09:43:38 2022.

                         Standard orientation:
 ---------------------------------------------------------------------
 Center     Atomic      Atomic             Coordinates (Angstroms)
 Number     Number       Type             X           Y           Z
 ---------------------------------------------------------------------
      1          6           0        1.844072    0.661809   -0.350350
      2          6           0        0.702807   -0.348695   -0.349900
      3          8           0        0.752187   -1.210908    0.794633
      4          6           0       -0.709790    0.258288   -0.470772
      5          6           0       -1.051344    1.279298    0.620200
      6          8           0       -1.653380   -0.801827   -0.477495
      7          1           0        1.795874    1.323089    0.522667
      8          1           0        2.807229    0.144719   -0.331500
      9          1           0        1.808296    1.291433   -1.245427
     10          1           0        0.819925   -1.030967   -1.199436
     11          1           0        0.855116   -0.658392    1.577298
     12          1           0       -0.788948    0.745488   -1.451163
     13          1           0       -2.097317    1.577943    0.518219
     14          1           0       -0.428740    2.177372    0.556098
     15          1           0       -0.931251    0.844724    1.619850
     16          1           0       -1.345117   -1.417726    0.201223
 ---------------------------------------------------------------------

 SCF Done:  E(RHF) =  -307.154993685     A.U. after    8 cycles

 The electronic state is 1-A.
 Alpha  occ. eigenvalues --  -20.56678 -20.54399 -11.28626 -11.27968 -11.22947
 Alpha  occ. eigenvalues --  -11.22012  -1.38064  -1.34585  -1.05333  -0.98645
 Alpha  occ. eigenvalues --   -0.89077  -0.80222  -0.70368  -0.65930  -0.64966
 Alpha  occ. eigenvalues --   -0.61791  -0.60052  -0.56726  -0.54828  -0.53846
 Alpha  occ. eigenvalues --   -0.52623  -0.50573  -0.48702  -0.45672  -0.42557
 Alpha virt. eigenvalues --    0.03051   0.04072   0.04611   0.05078   0.06564
 Alpha virt. eigenvalues --    0.06967   0.07170   0.07603   0.07723   0.09814
 Alpha virt. eigenvalues --    0.10144   0.10627   0.11138   0.12971   0.13783

 Mulliken charges:
               1
     1  C   -0.557393
     2  C    0.101739
     3  O   -0.615535
     4  C    0.113705
     5  C   -0.563969
     6  O   -0.606715
     7  H    0.164518
     8  H    0.186593
     9  H    0.175145
    10  H    0.179866
    11  H    0.365727
    12  H    0.159414
    13  H    0.191196
    14  H    0.167599
    15  H    0.150656
    16  H    0.387453
 Sum of Mulliken charges =  -0.00000

 Dipole moment (field-independent basis, Debye):
    X=              1.7801    Y=              2.0533    Z=              0.8741  Tot=              2.8546
 Quadrupole moment (field-independent basis, Debye-Ang):
   XX=            -42.3393   YY=            -40.4395   ZZ=            -35.9352
   XY=              0.0190   XZ=             -2.1400   YZ=             -0.6100

 Normal termination of Gaussian 09 at Fri Aug 26 09:52:11 2022.
