 Gaussian 09, Revision E.01,
 Gaussian 09:  ES64L-G09RevE.01 30-Nov-2015

 -----
 #P G4
 -----

 --------
 Frag_496
 --------
 Symbolic Z-matrix:
 Charge =  0 Multiplicity = 1

 SCF Done:  E(RB3LYP) =  -212.577061502     A.U. after   13 cycles
 SCF Done:  E(RB3LYP) =  -212.580616755     A.U. after   11 cycles
 SCF Done:  E(RB3LYP) =  -212.580813122     A.U. after   10 cycles
 SCF Done:  E(RB3LYP) =  -212.580934248     A.U. after   10 cycles
 SCF Done:  E(RB3LYP) =  -212.535198070     A.U. after   13 cycles
 SCF Done:  E(RB3LYP) =  -212.580938287     A.U. after    7 cycles
 SCF Done:  E(RB3LYP) =  -212.581969364     A.U. after   13 cycles
 SCF Done:  E(RB3LYP) =  -212.581693585     A.U. after   11 cycles
 SCF Done:  E(RB3LYP) =  -212.582170454     A.U. after   10 cycles
 SCF Done:  E(RB3LYP) =  -212.582541478     A.U. after   11 cycles
 SCF Done:  E(RB3LYP) =  -212.585766815     A.U. after    9 cycles
 SCF Done:  E(RB3LYP) =  -212.585768520     A.U. after    7 cycles
 SCF Done:  E(RB3LYP) =  -212.585768889     A.U. after    7 cycles
 Optimization completed.
    -- Stationary point found.
 Normal termination of Gaussian 09 at Tue Aug 23 03:07:58 2022.

 ----------------------------------------------------------
 #P Geom=AllCheck Guess=TCheck SCRF=Check B3LYP/GTBas3 Freq
 ----------------------------------------------------------

 Structure from the checkpoint file:  "G4.Frag_496.chk"
 --------
 Frag_496
 --------
 Charge =  0 Multiplicity = 1

 SCF Done:  E(RB3LYP) =  -212.585768889     A.U. after    1 cycles

  Exact polarizability:  61.925   3.146  50.487  -4.558  -3.689  41.078
 Approx polarizability:  83.962   6.984  71.162  -9.869  -7.196  62.735

                      1                      2                      3
                      A                      A                      A
 Frequencies --    122.8490               247.7400               286.6390
 Red. masses --      2.2468                 1.0568                 1.6382
 Frc consts  --      0.0200                 0.0382                 0.0793
 IR Inten    --      0.2829                 0.7831                12.8151

                      4                      5                      6
                      A                      A                      A
 Frequencies --    296.8552               360.4875               414.6491
 Red. masses --      1.4984                 1.7535                 2.1574
 Frc consts  --      0.0778                 0.1343                 0.2185
 IR Inten    --     21.8233                 8.9808                 4.1855

                      7                      8                      9
                      A                      A                      A
 Frequencies --    567.3277               686.6503               793.9228
 Red. masses --      2.0590                 1.7237                 2.4008
 Frc consts  --      0.3904                 0.4788                 0.8916
 IR Inten    --      9.2974                10.1821                11.7991

                     10                     11                     12
                      A                      A                      A
 Frequencies --    894.3175               936.3596               943.3605
 Red. masses --      1.5252                 1.8499                 1.3517
 Frc consts  --      0.7187                 0.9556                 0.7087
 IR Inten    --    152.6582                 0.4789                28.0911

                     13                     14                     15
                      A                      A                      A
 Frequencies --   1008.6854              1025.5894              1046.5494
 Red. masses --      1.3392                 1.4487                 1.0964
 Frc consts  --      0.8028                 0.8978                 0.7075
 IR Inten    --      1.0776                 0.5626                11.1083

                     16                     17                     18
                      A                      A                      A
 Frequencies --   1082.6004              1177.8974              1269.6267
 Red. masses --      1.6455                 1.9198                 1.6702
 Frc consts  --      1.1363                 1.5694                 1.5863
 IR Inten    --     24.6522                 7.3605                 3.6503

                     19                     20                     21
                      A                      A                      A
 Frequencies --   1317.8336              1329.9086              1395.5384
 Red. masses --      1.2979                 1.4250                 1.2292
 Frc consts  --      1.3281                 1.4849                 1.4105
 IR Inten    --      5.6092                 9.5264                 2.5869

                     22                     23                     24
                      A                      A                      A
 Frequencies --   1407.1123              1444.4494              1490.6740
 Red. masses --      1.3110                 1.1768                 1.0460
 Frc consts  --      1.5294                 1.4466                 1.3694
 IR Inten    --      6.1740                 5.9249                 3.0129

                     25                     26                     27
                      A                      A                      A
 Frequencies --   1498.3104              1659.9588              1712.4024
 Red. masses --      1.0519                 1.0934                 4.8947
 Frc consts  --      1.3913                 1.7750                 8.4564
 IR Inten    --      2.6765                15.4518                 7.1538

                     28                     29                     30
                      A                      A                      A
 Frequencies --   2987.1482              3034.3164              3102.3604
 Red. masses --      1.0819                 1.0361                 1.0995
 Frc consts  --      5.6880                 5.6207                 6.2347
 IR Inten    --     25.7846                22.0941                24.7057

                     31                     32                     33
                      A                      A                      A
 Frequencies --   3123.4357              3125.9793              3148.7555
 Red. masses --      1.0895                 1.0946                 1.0672
 Frc consts  --      6.2626                 6.3020                 6.2339
 IR Inten    --     15.4937                35.0292                 4.2690

                     34                     35                     36
                      A                      A                      A
 Frequencies --   3226.2737              3475.8575              3556.0970
 Red. masses --      1.1137                 1.0490                 1.0916
 Frc consts  --      6.8302                 7.4667                 8.1330
 IR Inten    --     14.0372                 0.4310                 0.0435

 - Thermochemistry -
 -------------------
 Temperature   298.150 Kelvin.  Pressure   1.00000 Atm.
 Atom     1 has atomic number  6 and mass  12.00000

 Molecular mass:    71.07350 amu.
 Principal axes and moments of inertia in atomic units:
                           1         2         3
     Eigenvalues --   237.43191 457.75324 614.00709
           X            0.99886   0.04773  -0.00099
           Y           -0.04774   0.99869  -0.01832
           Z            0.00011   0.01835   0.99983
 This molecule is an asymmetric top.
 Rotational symmetry number  1.
 Rotational temperatures (Kelvin)      0.36479     0.18922     0.14106
 Rotational constants (GHZ):           7.60109     3.94261     2.93928
 Zero-point vibrational energy     330160.5 (Joules/Mol)
                                   78.91024 (Kcal/Mol)
 Warning -- explicit consideration of   7 degrees of freedom as
           vibrations may cause significant error
 Vibrational temperatures:    176.75   356.44   412.41   427.11   518.66
          (Kelvin)            596.59   816.26   987.94  1142.28  1286.72
                             1347.21  1357.28  1451.27  1475.59  1505.75
                             1557.62  1694.73  1826.71  1896.07  1913.44
                             2007.87  2024.52  2078.24  2144.74  2155.73
                             2388.31  2463.76  4297.83  4365.70  4463.60
                             4493.92  4497.58  4530.35  4641.88  5000.98
                             5116.42

 Zero-point correction=                           0.125751 (Hartree/Particle)
 Thermal correction to Energy=                    0.132010
 Thermal correction to Enthalpy=                  0.132955
 Thermal correction to Gibbs Free Energy=         0.096788
 Sum of electronic and zero-point Energies=           -212.460017
 Sum of electronic and thermal Energies=              -212.453758
 Sum of electronic and thermal Enthalpies=            -212.452814
 Sum of electronic and thermal Free Energies=         -212.488981

                     E (Thermal)             CV                S
                      KCal/Mol        Cal/Mol-Kelvin    Cal/Mol-Kelvin
 Total                   82.838             22.581             76.120
 Electronic               0.000              0.000              0.000
 Translational            0.889              2.981             38.700
 Rotational               0.889              2.981             25.704
 Vibrational             81.060             16.620             11.716
 Vibration     1          0.610              1.930              3.055
 Vibration     2          0.661              1.767              1.747
 Vibration     3          0.684              1.699              1.494
 Vibration     4          0.691              1.680              1.435
 Vibration     5          0.735              1.554              1.120
 Vibration     6          0.778              1.438              0.910
 Vibration     7          0.923              1.102              0.509

 Optimization completed.
    -- Stationary point found.
 Normal termination of Gaussian 09 at Tue Aug 23 03:09:53 2022.

 -----------------------------------------------------------------
 #P Geom=AllCheck Guess=TCheck SCRF=Check CCSD(T,E4T,FrzG4)/GTBas1
 -----------------------------------------------------------------

 Structure from the checkpoint file:  "G4.Frag_496.chk"
 --------
 Frag_496
 --------
 Charge =  0 Multiplicity = 1

 SCF Done:  E(RHF) =  -211.125744041     A.U. after   12 cycles
 E2 =    -0.6806771073D+00 EUMP2 =    -0.21180642114855D+03
 CCSD(T)
 CCSD(T)= -0.21188514059D+03
 =-211.860582\CCSD=-211.862061\CCSD(T)=-211.8851406\RMSD=7.396e-09\PG=C
 Normal termination of Gaussian 09 at Tue Aug 23 03:12:10 2022.

 ---------------------------------------------------------
 #P Geom=AllCheck Guess=TCheck SCRF=Check MP4=FrzG4/GTBas2
 ---------------------------------------------------------

 Structure from the checkpoint file:  "G4.Frag_496.chk"
 --------
 Frag_496
 --------
 Charge =  0 Multiplicity = 1

 SCF Done:  E(RHF) =  -211.133317980     A.U. after   12 cycles
 E2 =    -0.6890552195D+00 EUMP2 =    -0.21182237319941D+03
 Normal termination of Gaussian 09 at Tue Aug 23 03:14:36 2022.

 ---------------------------------------------------------
 #P Geom=AllCheck Guess=TCheck SCRF=Check MP4=FrzG4/GTBas3
 ---------------------------------------------------------

 Structure from the checkpoint file:  "G4.Frag_496.chk"
 --------
 Frag_496
 --------
 Charge =  0 Multiplicity = 1

 SCF Done:  E(RHF) =  -211.156259326     A.U. after   11 cycles
 E2 =    -0.8408383420D+00 EUMP2 =    -0.21199709766756D+03
 Normal termination of Gaussian 09 at Tue Aug 23 04:06:08 2022.

 -----------------------------------------------------------
 #P Geom=AllCheck Guess=TCheck SCRF=Check MP2=Full/GTLargeXP
 -----------------------------------------------------------

 Structure from the checkpoint file:  "G4.Frag_496.chk"
 --------
 Frag_496
 --------
 Charge =  0 Multiplicity = 1

 SCF Done:  E(RHF) =  -211.206552485     A.U. after   12 cycles
 E2 =    -0.1108489586D+01 EUMP2 =    -0.21231504207152D+03
 Normal termination of Gaussian 09 at Tue Aug 23 04:09:29 2022.
 SCF Done:  E(RHF) =  -211.223324132     A.U. after    8 cycles
 Normal termination of Gaussian 09 at Tue Aug 23 04:13:16 2022.

                         Standard orientation:
 ---------------------------------------------------------------------
 Center     Atomic      Atomic             Coordinates (Angstroms)
 Number     Number       Type             X           Y           Z
 ---------------------------------------------------------------------
      1          6           0        1.960089   -0.101652   -0.256643
      2          6           0        0.868384   -0.646281    0.269680
      3          6           0       -0.483903    0.020278    0.424181
      4          6           0       -1.563706   -0.783859   -0.316593
      5          7           0       -0.570907    1.423230    0.016714
      6          1           0        2.891286   -0.651863   -0.336180
      7          1           0        1.968891    0.918320   -0.629178
      8          1           0        0.910571   -1.673555    0.632885
      9          1           0       -0.736058   -0.009228    1.495457
     10          1           0       -1.582057   -1.824968    0.019147
     11          1           0       -2.547176   -0.339284   -0.145209
     12          1           0       -1.366969   -0.785356   -1.394917
     13          1           0       -0.368600    1.503766   -0.977132
     14          1           0        0.141275    1.968641    0.494379
 ---------------------------------------------------------------------

 SCF Done:  E(RHF) =  -211.226869673     A.U. after    8 cycles

 The electronic state is 1-A.
 Alpha  occ. eigenvalues --  -15.53897 -11.26143 -11.23309 -11.22174 -11.21510
 Alpha  occ. eigenvalues --   -1.18950  -1.04587  -0.98346  -0.84958  -0.74832
 Alpha  occ. eigenvalues --   -0.66776  -0.64553  -0.62297  -0.57395  -0.53724
 Alpha  occ. eigenvalues --   -0.50992  -0.50601  -0.49328  -0.39844  -0.36582
 Alpha virt. eigenvalues --    0.03702   0.04197   0.04861   0.05077   0.06554
 Alpha virt. eigenvalues --    0.07218   0.07251   0.07628   0.08313   0.10018
 Alpha virt. eigenvalues --    0.10229   0.10940   0.12123   0.12594   0.13588

 Mulliken charges:
               1
     1  C   -0.459536
     2  C   -0.191849
     3  C    0.120249
     4  C   -0.527068
     5  N   -0.717971
     6  H    0.191433
     7  H    0.160059
     8  H    0.189288
     9  H    0.160241
    10  H    0.160713
    11  H    0.183977
    12  H    0.158473
    13  H    0.282364
    14  H    0.289628
 Sum of Mulliken charges =  -0.00000

 Dipole moment (field-independent basis, Debye):
    X=              0.8593    Y=             -0.5256    Z=             -0.1379  Tot=              1.0167
 Quadrupole moment (field-independent basis, Debye-Ang):
   XX=            -34.5293   YY=            -32.7775   ZZ=            -32.7683
   XY=              3.0212   XZ=             -0.3744   YZ=             -1.6696

 Normal termination of Gaussian 09 at Tue Aug 23 06:04:59 2022.
