 Gaussian 09, Revision E.01,
 Gaussian 09:  ES64L-G09RevE.01 30-Nov-2015

 -----
 #P G4
 -----

 --------
 Frag_516
 --------
 Symbolic Z-matrix:
 Charge =  0 Multiplicity = 1

 SCF Done:  E(RB3LYP) =  -188.047898336     A.U. after   11 cycles
 SCF Done:  E(RB3LYP) =  -188.057595325     A.U. after   11 cycles
 SCF Done:  E(RB3LYP) =  -188.059574482     A.U. after   10 cycles
 SCF Done:  E(RB3LYP) =  -188.059644683     A.U. after    7 cycles
 SCF Done:  E(RB3LYP) =  -188.059651422     A.U. after    7 cycles
 Optimization completed.
    -- Stationary point found.
 Normal termination of Gaussian 09 at Sat Aug 20 05:26:28 2022.

 ----------------------------------------------------------
 #P Geom=AllCheck Guess=TCheck SCRF=Check B3LYP/GTBas3 Freq
 ----------------------------------------------------------

 Structure from the checkpoint file:  "G4.Frag_516.chk"
 --------
 Frag_516
 --------
 Charge =  0 Multiplicity = 1

 SCF Done:  E(RB3LYP) =  -188.059651422     A.U. after    1 cycles

  Exact polarizability:  64.969   3.861  31.328  -0.000  -0.000  17.941
 Approx polarizability:  98.621  11.120  46.937  -0.003  -0.001  27.553

                      1                      2                      3
                      A                      A                      A
 Frequencies --     67.3324               373.1219               616.3751
 Red. masses --      3.6078                 2.3712                 2.9461
 Frc consts  --      0.0096                 0.1945                 0.6595
 IR Inten    --     23.0763                11.4369                 0.0000

                      4                      5                      6
                      A                      A                      A
 Frequencies --    673.1467               877.3366               879.8624
 Red. masses --      1.0191                 1.3485                 3.8382
 Frc consts  --      0.2721                 0.6115                 1.7507
 IR Inten    --      0.1616                 0.0000                 0.0000

                      7                      8                      9
                      A                      A                      A
 Frequencies --   1052.6513              1055.0681              1182.9791
 Red. masses --      1.3550                 1.3642                 1.4691
 Frc consts  --      0.8846                 0.8947                 1.2113
 IR Inten    --     34.9979                 0.0000                14.9281

                     10                     11                     12
                      A                      A                      A
 Frequencies --   1237.8978              1440.0393              1452.3351
 Red. masses --      1.8638                 1.1344                 1.1863
 Frc consts  --      1.6827                 1.3861                 1.4743
 IR Inten    --      0.0000                17.2273                 0.0000

                     13                     14                     15
                      A                      A                      A
 Frequencies --   1681.8859              1714.4978              3080.3353
 Red. masses --      5.7244                 5.9711                 1.0589
 Frc consts  --      9.5406                10.3413                 5.9195
 IR Inten    --      0.0000                18.5410                37.4248

                     16                     17                     18
                      A                      A                      A
 Frequencies --   3084.4102              3201.1435              3201.1829
 Red. masses --      1.0581                 1.1150                 1.1147
 Frc consts  --      5.9308                 6.7320                 6.7300
 IR Inten    --      0.0000                 0.0007                21.5999

 - Thermochemistry -
 -------------------
 Temperature   298.150 Kelvin.  Pressure   1.00000 Atm.
 Atom     1 has atomic number  6 and mass  12.00000

 Molecular mass:    56.03745 amu.
 Principal axes and moments of inertia in atomic units:
                           1         2         3
     Eigenvalues --    35.25513 334.57283 369.82796
           X            0.99984   0.01793   0.00001
           Y           -0.01793   0.99984   0.00001
           Z           -0.00001  -0.00001   1.00000
 This molecule is an asymmetric top.
 Rotational symmetry number  1.
 Rotational temperatures (Kelvin)      2.45677     0.25888     0.23420
 Rotational constants (GHZ):          51.19088     5.39417     4.87995
 Zero-point vibrational energy     160727.9 (Joules/Mol)
                                   38.41488 (Kcal/Mol)
 Warning -- explicit consideration of   3 degrees of freedom as
           vibrations may cause significant error
 Vibrational temperatures:     96.88   536.84   886.83   968.51  1262.29
          (Kelvin)           1265.92  1514.53  1518.01  1702.04  1781.06
                             2071.89  2089.58  2419.86  2466.78  4431.91
                             4437.77  4605.73  4605.78

 Zero-point correction=                           0.061218 (Hartree/Particle)
 Thermal correction to Energy=                    0.065687
 Thermal correction to Enthalpy=                  0.066631
 Thermal correction to Gibbs Free Energy=         0.034504
 Sum of electronic and zero-point Energies=           -187.998433
 Sum of electronic and thermal Energies=              -187.993964
 Sum of electronic and thermal Enthalpies=            -187.993020
 Sum of electronic and thermal Free Energies=         -188.025148

                     E (Thermal)             CV                S
                      KCal/Mol        Cal/Mol-Kelvin    Cal/Mol-Kelvin
 Total                   41.219             13.694             67.618
 Electronic               0.000              0.000              0.000
 Translational            0.889              2.981             37.992
 Rotational               0.889              2.981             22.994
 Vibrational             39.442              7.732              6.633
 Vibration     1          0.598              1.970              4.230
 Vibration     2          0.745              1.527              1.067
 Vibration     3          0.976              0.997              0.422

 Optimization completed.
    -- Stationary point found.
 Normal termination of Gaussian 09 at Sat Aug 20 05:26:53 2022.

 -----------------------------------------------------------------
 #P Geom=AllCheck Guess=TCheck SCRF=Check CCSD(T,E4T,FrzG4)/GTBas1
 -----------------------------------------------------------------

 Structure from the checkpoint file:  "G4.Frag_516.chk"
 --------
 Frag_516
 --------
 Charge =  0 Multiplicity = 1

 SCF Done:  E(RHF) =  -186.884097415     A.U. after   11 cycles
 E2 =    -0.5723247959D+00 EUMP2 =    -0.18745642221137D+03
 CCSD(T)
 CCSD(T)= -0.18751128451D+03
 7.5104965\MP4SDQ=-187.4869676\CCSD=-187.4878371\CCSD(T)=-187.5112845\R
 Normal termination of Gaussian 09 at Sat Aug 20 05:27:15 2022.

 ---------------------------------------------------------
 #P Geom=AllCheck Guess=TCheck SCRF=Check MP4=FrzG4/GTBas2
 ---------------------------------------------------------

 Structure from the checkpoint file:  "G4.Frag_516.chk"
 --------
 Frag_516
 --------
 Charge =  0 Multiplicity = 1

 SCF Done:  E(RHF) =  -186.891365901     A.U. after   11 cycles
 E2 =    -0.5802891340D+00 EUMP2 =    -0.18747165503527D+03
 Normal termination of Gaussian 09 at Sat Aug 20 05:27:23 2022.

 ---------------------------------------------------------
 #P Geom=AllCheck Guess=TCheck SCRF=Check MP4=FrzG4/GTBas3
 ---------------------------------------------------------

 Structure from the checkpoint file:  "G4.Frag_516.chk"
 --------
 Frag_516
 --------
 Charge =  0 Multiplicity = 1

 SCF Done:  E(RHF) =  -186.904181597     A.U. after   11 cycles
 E2 =    -0.6827142436D+00 EUMP2 =    -0.18758689584051D+03
 Normal termination of Gaussian 09 at Sat Aug 20 05:29:16 2022.

 -----------------------------------------------------------
 #P Geom=AllCheck Guess=TCheck SCRF=Check MP2=Full/GTLargeXP
 -----------------------------------------------------------

 Structure from the checkpoint file:  "G4.Frag_516.chk"
 --------
 Frag_516
 --------
 Charge =  0 Multiplicity = 1

 SCF Done:  E(RHF) =  -186.951594914     A.U. after   11 cycles
 E2 =    -0.8990755743D+00 EUMP2 =    -0.18785067048789D+03
 Normal termination of Gaussian 09 at Sat Aug 20 05:29:53 2022.
 SCF Done:  E(RHF) =  -186.965946135     A.U. after    9 cycles
 Normal termination of Gaussian 09 at Sat Aug 20 05:31:07 2022.

                         Standard orientation:
 ---------------------------------------------------------------------
 Center     Atomic      Atomic             Coordinates (Angstroms)
 Number     Number       Type             X           Y           Z
 ---------------------------------------------------------------------
      1          6           0       -1.663537   -0.099091    0.000043
      2          7           0       -0.527051    0.473170    0.000019
      3          7           0        0.527051   -0.473169    0.000028
      4          6           0        1.663537    0.099091   -0.000021
      5          1           0       -1.773212   -1.185567   -0.000156
      6          1           0       -2.552164    0.527247   -0.000213
      7          1           0        2.552163   -0.527248   -0.000060
      8          1           0        1.773213    1.185567   -0.000032
 ---------------------------------------------------------------------

 SCF Done:  E(RHF) =  -186.968738763     A.U. after    7 cycles

 The electronic state is 1-A.
 Alpha  occ. eigenvalues --  -15.59832 -15.59776 -11.27901 -11.27901  -1.31586
 Alpha  occ. eigenvalues --   -1.13728  -0.87384  -0.78316  -0.68546  -0.67225
 Alpha  occ. eigenvalues --   -0.57027  -0.54015  -0.51840  -0.39943  -0.38628
 Alpha virt. eigenvalues --    0.04007   0.04652   0.04922   0.05132   0.06740
 Alpha virt. eigenvalues --    0.07413   0.07906   0.10866   0.12085   0.12325
 Alpha virt. eigenvalues --    0.12545   0.13917   0.15435   0.16007   0.18229

 Mulliken charges:
               1
     1  C   -0.180565
     2  N   -0.256577
     3  N   -0.256577
     4  C   -0.180566
     5  H    0.210938
     6  H    0.226205
     7  H    0.226205
     8  H    0.210938
 Sum of Mulliken charges =  -0.00000

 Dipole moment (field-independent basis, Debye):
    X=              0.0000    Y=             -0.0000    Z=             -0.0003  Tot=              0.0003
 Quadrupole moment (field-independent basis, Debye-Ang):
   XX=            -15.1394   YY=            -26.0270   ZZ=            -25.6841
   XY=              1.8788   XZ=              0.0005   YZ=              0.0001

 Normal termination of Gaussian 09 at Sat Aug 20 06:01:00 2022.
