 Gaussian 09, Revision E.01,
 Gaussian 09:  ES64L-G09RevE.01 30-Nov-2015

 -----
 #P G4
 -----

 --------
 Frag_968
 --------
 Symbolic Z-matrix:
 Charge =  0 Multiplicity = 1

 SCF Done:  E(RB3LYP) =  -380.254980528     A.U. after   12 cycles
 SCF Done:  E(RB3LYP) =  -380.265505452     A.U. after   11 cycles
 SCF Done:  E(RB3LYP) =  -380.267115275     A.U. after   10 cycles
 SCF Done:  E(RB3LYP) =  -380.267986102     A.U. after   11 cycles
 SCF Done:  E(RB3LYP) =  -380.268437890     A.U. after   11 cycles
 SCF Done:  E(RB3LYP) =  -380.268564196     A.U. after   11 cycles
 SCF Done:  E(RB3LYP) =  -380.268708350     A.U. after   10 cycles
 SCF Done:  E(RB3LYP) =  -380.268730463     A.U. after    9 cycles
 SCF Done:  E(RB3LYP) =  -380.268730946     A.U. after    7 cycles
 SCF Done:  E(RB3LYP) =  -380.268731935     A.U. after    7 cycles
 SCF Done:  E(RB3LYP) =  -380.278082888     A.U. after    7 cycles
 SCF Done:  E(RB3LYP) =  -380.278083551     A.U. after    7 cycles
 SCF Done:  E(RB3LYP) =  -380.278083702     A.U. after    6 cycles
 Optimization completed.
    -- Stationary point found.
 Normal termination of Gaussian 09 at Fri Aug 26 05:38:07 2022.

 ----------------------------------------------------------
 #P Geom=AllCheck Guess=TCheck SCRF=Check B3LYP/GTBas3 Freq
 ----------------------------------------------------------

 Structure from the checkpoint file:  "G4.Frag_968.chk"
 --------
 Frag_968
 --------
 Charge =  0 Multiplicity = 1

 SCF Done:  E(RB3LYP) =  -380.278083702     A.U. after    1 cycles

  Exact polarizability:  63.155   1.795  57.295  -0.137   0.094  50.268
 Approx polarizability:  84.164   3.256  81.795   2.289   0.827  72.600

                      1                      2                      3
                      A                      A                      A
 Frequencies --     86.0268               168.0729               234.1385
 Red. masses --      3.4072                 1.0762                 1.5024
 Frc consts  --      0.0149                 0.0179                 0.0485
 IR Inten    --      5.0799                87.7942                 9.7694

                      4                      5                      6
                      A                      A                      A
 Frequencies --    260.9864               274.9700               297.0542
 Red. masses --      1.4684                 1.0778                 2.9455
 Frc consts  --      0.0589                 0.0480                 0.1531
 IR Inten    --     10.2797                 1.0519                 9.4131

                      7                      8                      9
                      A                      A                      A
 Frequencies --    319.9295               382.6435               400.5446
 Red. masses --      1.1541                 3.0334                 2.9770
 Frc consts  --      0.0696                 0.2617                 0.2814
 IR Inten    --      8.0227                 1.4834                 2.2070

                     10                     11                     12
                      A                      A                      A
 Frequencies --    425.3168               497.0620               521.3556
 Red. masses --      3.1631                 1.4233                 2.5282
 Frc consts  --      0.3371                 0.2072                 0.4049
 IR Inten    --      0.2741                62.4792                24.6094

                     13                     14                     15
                      A                      A                      A
 Frequencies --    561.5310               583.7895               725.7368
 Red. masses --      3.8991                 3.1088                 4.1248
 Frc consts  --      0.7244                 0.6242                 1.2800
 IR Inten    --     13.2228                 1.2559                10.9245

                     16                     17                     18
                      A                      A                      A
 Frequencies --    892.5019               919.2527               976.0902
 Red. masses --      3.3374                 2.0171                 1.7652
 Frc consts  --      1.5663                 1.0043                 0.9909
 IR Inten    --     42.7145                56.5966                23.7711

                     19                     20                     21
                      A                      A                      A
 Frequencies --   1044.0707              1063.8078              1145.0281
 Red. masses --      1.4451                 1.5334                 1.6165
 Frc consts  --      0.9281                 1.0225                 1.2487
 IR Inten    --     11.7522                92.3842                14.4942

                     22                     23                     24
                      A                      A                      A
 Frequencies --   1155.4134              1172.6669              1219.1482
 Red. masses --      2.3513                 4.2141                 2.6198
 Frc consts  --      1.8494                 3.4144                 2.2942
 IR Inten    --     78.6459                34.4868               155.3706

                     25                     26                     27
                      A                      A                      A
 Frequencies --   1280.0159              1309.4636              1325.2728
 Red. masses --      2.0843                 1.4019                 1.5102
 Frc consts  --      2.0121                 1.4163                 1.5628
 IR Inten    --     54.0037                58.0165                56.9016

                     28                     29                     30
                      A                      A                      A
 Frequencies --   1395.4241              1423.0135              1449.8425
 Red. masses --      1.2709                 1.4325                 1.2202
 Frc consts  --      1.4581                 1.7090                 1.5112
 IR Inten    --     20.0984               106.8767                37.4896

                     31                     32                     33
                      A                      A                      A
 Frequencies --   1488.4222              1491.1573              1497.5543
 Red. masses --      1.0705                 1.0771                 1.0586
 Frc consts  --      1.3973                 1.4111                 1.3988
 IR Inten    --     12.7252                21.6868                 3.8425

                     34                     35                     36
                      A                      A                      A
 Frequencies --   1511.5803              1676.2480              2936.3345
 Red. masses --      1.1020                 1.0850                 1.0595
 Frc consts  --      1.4835                 1.7962                 5.3821
 IR Inten    --      8.4349                21.7044                68.0660

                     37                     38                     39
                      A                      A                      A
 Frequencies --   3039.5093              3065.3229              3109.8310
 Red. masses --      1.0346                 1.0779                 1.1010
 Frc consts  --      5.6314                 5.9675                 6.2733
 IR Inten    --     10.7295                41.1889                22.6607

                     40                     41                     42
                      A                      A                      A
 Frequencies --   3121.4607              3146.9393              3378.4925
 Red. masses --      1.1027                 1.0962                 1.0574
 Frc consts  --      6.3304                 6.3960                 7.1110
 IR Inten    --     22.9273                 6.4510                12.2361

                     43                     44                     45
                      A                      A                      A
 Frequencies --   3535.4103              3688.1767              3830.4679
 Red. masses --      1.0834                 1.0638                 1.0656
 Frc consts  --      7.9786                 8.5258                 9.2118
 IR Inten    --      2.2008               107.3242                30.1644

 - Thermochemistry -
 -------------------
 Temperature   298.150 Kelvin.  Pressure   1.00000 Atm.
 Atom     1 has atomic number  6 and mass  12.00000

 Molecular mass:   106.07423 amu.
 Principal axes and moments of inertia in atomic units:
                           1         2         3
     Eigenvalues --   539.69046 738.03559 887.04705
           X            0.99959  -0.00409  -0.02841
           Y            0.00348   0.99976  -0.02153
           Z            0.02849   0.02143   0.99936
 This molecule is an asymmetric top.
 Rotational symmetry number  1.
 Warning -- assumption of classical behavior for rotation
           may cause significant error
 Rotational temperatures (Kelvin)      0.16049     0.11736     0.09764
 Rotational constants (GHZ):           3.34403     2.44533     2.03455
 Zero-point vibrational energy     382967.0 (Joules/Mol)
                                   91.53130 (Kcal/Mol)
 Warning -- explicit consideration of  14 degrees of freedom as
           vibrations may cause significant error
 Vibrational temperatures:    123.77   241.82   336.87   375.50   395.62
          (Kelvin)            427.39   460.31   550.54   576.29   611.94
                              715.16   750.11   807.92   839.94  1044.17
                             1284.11  1322.60  1404.37  1502.18  1530.58
                             1647.44  1662.38  1687.20  1754.08  1841.66
                             1884.02  1906.77  2007.70  2047.40  2086.00
                             2141.50  2145.44  2154.64  2174.82  2411.74
                             4224.73  4373.17  4410.31  4474.35  4491.08
                             4527.74  4860.89  5086.66  5306.46  5511.18

 Zero-point correction=                           0.145864 (Hartree/Particle)
 Thermal correction to Energy=                    0.154491
 Thermal correction to Enthalpy=                  0.155435
 Thermal correction to Gibbs Free Energy=         0.113824
 Sum of electronic and zero-point Energies=           -380.132219
 Sum of electronic and thermal Energies=              -380.123593
 Sum of electronic and thermal Enthalpies=            -380.122649
 Sum of electronic and thermal Free Energies=         -380.164260

                     E (Thermal)             CV                S
                      KCal/Mol        Cal/Mol-Kelvin    Cal/Mol-Kelvin
 Total                   96.944             32.186             87.578
 Electronic               0.000              0.000              0.000
 Translational            0.889              2.981             39.894
 Rotational               0.889              2.981             27.360
 Vibrational             95.167             26.224             20.324
 Vibration     1          0.601              1.959              3.748
 Vibration     2          0.625              1.882              2.457
 Vibration     3          0.654              1.789              1.847
 Vibration     4          0.669              1.744              1.655
 Vibration     5          0.677              1.720              1.565
 Vibration     6          0.691              1.679              1.433
 Vibration     7          0.706              1.635              1.310
 Vibration     8          0.752              1.507              1.029
 Vibration     9          0.766              1.469              0.961
 Vibration    10          0.787              1.415              0.874
 Vibration    11          0.853              1.257              0.666
 Vibration    12          0.876              1.203              0.607
 Vibration    13          0.917              1.115              0.521
 Vibration    14          0.941              1.066              0.478

 Optimization completed.
    -- Stationary point found.
 Normal termination of Gaussian 09 at Fri Aug 26 05:39:00 2022.

 -----------------------------------------------------------------
 #P Geom=AllCheck Guess=TCheck SCRF=Check CCSD(T,E4T,FrzG4)/GTBas1
 -----------------------------------------------------------------

 Structure from the checkpoint file:  "G4.Frag_968.chk"
 --------
 Frag_968
 --------
 Charge =  0 Multiplicity = 1

 SCF Done:  E(RHF) =  -377.988917689     A.U. after   12 cycles
 E2 =    -0.1083262014D+01 EUMP2 =    -0.37907217970364D+03
 CCSD(T)
 CCSD(T)= -0.37915958131D+03
 Q=-379.128121\CCSD=-379.1284315\CCSD(T)=-379.1595813\RMSD=3.553e-09\PG
 Normal termination of Gaussian 09 at Fri Aug 26 05:43:45 2022.

 ---------------------------------------------------------
 #P Geom=AllCheck Guess=TCheck SCRF=Check MP4=FrzG4/GTBas2
 ---------------------------------------------------------

 Structure from the checkpoint file:  "G4.Frag_968.chk"
 --------
 Frag_968
 --------
 Charge =  0 Multiplicity = 1

 SCF Done:  E(RHF) =  -378.001869732     A.U. after   11 cycles
 E2 =    -0.1102666058D+01 EUMP2 =    -0.37910453579055D+03
 Normal termination of Gaussian 09 at Fri Aug 26 05:45:14 2022.

 ---------------------------------------------------------
 #P Geom=AllCheck Guess=TCheck SCRF=Check MP4=FrzG4/GTBas3
 ---------------------------------------------------------

 Structure from the checkpoint file:  "G4.Frag_968.chk"
 --------
 Frag_968
 --------
 Charge =  0 Multiplicity = 1

 SCF Done:  E(RHF) =  -378.042670933     A.U. after   11 cycles
 E2 =    -0.1341241264D+01 EUMP2 =    -0.37938391219673D+03
 Normal termination of Gaussian 09 at Fri Aug 26 05:58:06 2022.

 -----------------------------------------------------------
 #P Geom=AllCheck Guess=TCheck SCRF=Check MP2=Full/GTLargeXP
 -----------------------------------------------------------

 Structure from the checkpoint file:  "G4.Frag_968.chk"
 --------
 Frag_968
 --------
 Charge =  0 Multiplicity = 1

 SCF Done:  E(RHF) =  -378.145162915     A.U. after   11 cycles
 E2 =    -0.1746078747D+01 EUMP2 =    -0.37989124166276D+03
 Normal termination of Gaussian 09 at Fri Aug 26 06:01:54 2022.
 SCF Done:  E(RHF) =  -378.175074882     A.U. after    8 cycles
 Normal termination of Gaussian 09 at Fri Aug 26 06:05:19 2022.

                         Standard orientation:
 ---------------------------------------------------------------------
 Center     Atomic      Atomic             Coordinates (Angstroms)
 Number     Number       Type             X           Y           Z
 ---------------------------------------------------------------------
      1          6           0        1.537343   -1.191554   -0.001760
      2          7           0        0.807136    0.002401   -0.393281
      3          7           0        1.402337    1.212896    0.052060
      4          6           0       -0.631141    0.011556   -0.073129
      5          6           0       -0.948024   -0.158097    1.426280
      6          8           0       -1.178699    1.214713   -0.527599
      7          8           0       -1.158950   -1.054344   -0.814016
      8          1           0        0.969778   -2.071190   -0.307189
      9          1           0        2.504267   -1.205092   -0.515476
     10          1           0        1.729597   -1.249656    1.085740
     11          1           0        2.151240    1.450248   -0.590873
     12          1           0        1.819223    1.102283    0.980791
     13          1           0       -2.028396   -0.077209    1.579401
     14          1           0       -0.477284    0.640274    2.008389
     15          1           0       -0.610972   -1.126310    1.806194
     16          1           0       -0.469718    1.867047   -0.409694
     17          1           0       -2.101918   -1.091857   -0.624163
 ---------------------------------------------------------------------

 SCF Done:  E(RHF) =  -378.181738496     A.U. after    8 cycles

 The electronic state is 1-A.
 Alpha  occ. eigenvalues --  -20.55731 -20.54218 -15.58860 -15.58085 -11.36403
 Alpha  occ. eigenvalues --  -11.24969 -11.21955  -1.41929  -1.33180  -1.28548
 Alpha  occ. eigenvalues --   -1.07499  -0.99061  -0.91873  -0.80239  -0.72930
 Alpha  occ. eigenvalues --   -0.70786  -0.67477  -0.64597  -0.62220  -0.59430
 Alpha  occ. eigenvalues --   -0.57748  -0.56698  -0.54798  -0.53567  -0.51163
 Alpha  occ. eigenvalues --   -0.47945  -0.45361  -0.43285  -0.37812
 Alpha virt. eigenvalues --    0.03138   0.03981   0.04681   0.05183   0.06720
 Alpha virt. eigenvalues --    0.06851   0.07157   0.07312   0.07668   0.09868
 Alpha virt. eigenvalues --    0.10782   0.11219   0.11558   0.13271   0.14447

 Mulliken charges:
               1
     1  C   -0.508637
     2  N   -0.029190
     3  N   -0.731112
     4  C    0.654494
     5  C   -0.582643
     6  O   -0.642886
     7  O   -0.603431
     8  H    0.217806
     9  H    0.170207
    10  H    0.134947
    11  H    0.331329
    12  H    0.287988
    13  H    0.174573
    14  H    0.173425
    15  H    0.178319
    16  H    0.404058
    17  H    0.370753
 Sum of Mulliken charges =  -0.00000

 Dipole moment (field-independent basis, Debye):
    X=              1.9917    Y=             -0.3176    Z=              2.5561  Tot=              3.2559
 Quadrupole moment (field-independent basis, Debye-Ang):
   XX=            -37.0155   YY=            -43.8841   ZZ=            -46.0975
   XY=              4.4833   XZ=             -1.4285   YZ=             -0.4833

 Normal termination of Gaussian 09 at Fri Aug 26 06:18:06 2022.
