 Gaussian 09, Revision E.01,
 Gaussian 09:  ES64L-G09RevE.01 30-Nov-2015

 -----
 #P G4
 -----

 --------
 Frag_755
 --------
 Symbolic Z-matrix:
 Charge =  0 Multiplicity = 1

 SCF Done:  E(RB3LYP) =  -171.990467075     A.U. after   14 cycles
 SCF Done:  E(RB3LYP) =  -172.000670412     A.U. after   15 cycles
 SCF Done:  E(RB3LYP) =  -172.008227690     A.U. after   14 cycles
 SCF Done:  E(RB3LYP) =  -172.015417552     A.U. after   14 cycles
 SCF Done:  E(RB3LYP) =  -172.019577223     A.U. after   15 cycles
 SCF Done:  E(RB3LYP) =  -172.019973174     A.U. after   13 cycles
 SCF Done:  E(RB3LYP) =  -172.020035930     A.U. after   13 cycles
 SCF Done:  E(RB3LYP) =  -172.020183442     A.U. after   13 cycles
 SCF Done:  E(RB3LYP) =  -172.020252448     A.U. after   12 cycles
 SCF Done:  E(RB3LYP) =  -171.986322879     A.U. after   15 cycles
 SCF Done:  E(RB3LYP) =  -172.038104983     A.U. after   11 cycles
 SCF Done:  E(RB3LYP) =  -172.038113046     A.U. after    8 cycles
 SCF Done:  E(RB3LYP) =  -172.038116606     A.U. after    8 cycles
 Optimization completed.
    -- Stationary point found.
 Normal termination of Gaussian 09 at Tue Aug 23 09:47:28 2022.

 ----------------------------------------------------------
 #P Geom=AllCheck Guess=TCheck SCRF=Check B3LYP/GTBas3 Freq
 ----------------------------------------------------------

 Structure from the checkpoint file:  "G4.Frag_755.chk"
 --------
 Frag_755
 --------
 Charge =  0 Multiplicity = 1

 SCF Done:  E(RB3LYP) =  -172.038116606     A.U. after    1 cycles

  Exact polarizability:  67.118  -4.915  26.851  -0.002   0.001  28.518
 Approx polarizability: 102.664 -15.340  40.803   0.000  -0.000  39.808

                      1                      2                      3
                      A                      A                      A
 Frequencies --    143.5378               214.3635               386.0472
 Red. masses --      1.1522                 3.2478                 1.9908
 Frc consts  --      0.0140                 0.0879                 0.1748
 IR Inten    --      2.3860                10.0932                 0.7925

                      4                      5                      6
                      A                      A                      A
 Frequencies --    564.3873               624.2570               705.7482
 Red. masses --      1.2603                 6.8380                 1.2625
 Frc consts  --      0.2365                 1.5700                 0.3705
 IR Inten    --      0.4181                16.1120                77.2565

                      7                      8                      9
                      A                      A                      A
 Frequencies --    888.3381              1001.6084              1135.4687
 Red. masses --      4.6793                 1.6434                 1.4308
 Frc consts  --      2.1756                 0.9714                 1.0869
 IR Inten    --     13.2924                 0.3392                 3.2832

                     10                     11                     12
                      A                      A                      A
 Frequencies --   1138.5006              1265.4760              1437.2938
 Red. masses --      1.3336                 2.2933                 1.1999
 Frc consts  --      1.0185                 2.1638                 1.4604
 IR Inten    --      0.0896                15.8033                10.5564

                     13                     14                     15
                      A                      A                      A
 Frequencies --   1462.2002              1488.5089              1497.7911
 Red. masses --      1.4184                 1.0424                 1.0849
 Frc consts  --      1.7867                 1.3608                 1.4340
 IR Inten    --     13.8301                 4.0732                13.1707

                     16                     17                     18
                      A                      A                      A
 Frequencies --   2160.3061              3021.4155              3101.1088
 Red. masses --     11.1048                 1.0344                 1.1020
 Frc consts  --     30.5346                 5.5637                 6.2439
 IR Inten    --    404.1035                51.3556                19.9177

                     19                     20                     21
                      A                      A                      A
 Frequencies --   3108.4397              3170.3088              3255.1486
 Red. masses --      1.1022                 1.0571                 1.1150
 Frc consts  --      6.2750                 6.2597                 6.9608
 IR Inten    --     14.2362                 3.6930                 0.0279

 - Thermochemistry -
 -------------------
 Temperature   298.150 Kelvin.  Pressure   1.00000 Atm.
 Atom     1 has atomic number  6 and mass  12.00000

 Molecular mass:    55.04220 amu.
 Principal axes and moments of inertia in atomic units:
                           1         2         3
     Eigenvalues --    42.02687 404.89428 423.23586
           X            0.99998   0.00668  -0.00001
           Y           -0.00668   0.99998   0.00004
           Z            0.00001  -0.00004   1.00000
 This molecule is an asymmetric top.
 Rotational symmetry number  1.
 Rotational temperatures (Kelvin)      2.06092     0.21392     0.20465
 Rotational constants (GHZ):          42.94256     4.45731     4.26415
 Zero-point vibrational energy     190028.3 (Joules/Mol)
                                   45.41786 (Kcal/Mol)
 Warning -- explicit consideration of   4 degrees of freedom as
           vibrations may cause significant error
 Vibrational temperatures:    206.52   308.42   555.44   812.03   898.17
          (Kelvin)           1015.41  1278.12  1441.09  1633.68  1638.05
                             1820.74  2067.94  2103.78  2141.63  2154.98
                             3108.19  4347.14  4461.80  4472.35  4561.36
                             4683.43

 Zero-point correction=                           0.072378 (Hartree/Particle)
 Thermal correction to Energy=                    0.077337
 Thermal correction to Enthalpy=                  0.078281
 Thermal correction to Gibbs Free Energy=         0.045561
 Sum of electronic and zero-point Energies=           -171.965739
 Sum of electronic and thermal Energies=              -171.960780
 Sum of electronic and thermal Enthalpies=            -171.959836
 Sum of electronic and thermal Free Energies=         -171.992555

                     E (Thermal)             CV                S
                      KCal/Mol        Cal/Mol-Kelvin    Cal/Mol-Kelvin
 Total                   48.529             15.994             68.864
 Electronic               0.000              0.000              0.000
 Translational            0.889              2.981             37.938
 Rotational               0.889              2.981             23.492
 Vibrational             46.752             10.032              7.434
 Vibration     1          0.616              1.910              2.756
 Vibration     2          0.644              1.819              2.006
 Vibration     3          0.755              1.500              1.015
 Vibration     4          0.920              1.108              0.515

 Optimization completed.
    -- Stationary point found.
 Normal termination of Gaussian 09 at Tue Aug 23 09:47:58 2022.

 -----------------------------------------------------------------
 #P Geom=AllCheck Guess=TCheck SCRF=Check CCSD(T,E4T,FrzG4)/GTBas1
 -----------------------------------------------------------------

 Structure from the checkpoint file:  "G4.Frag_755.chk"
 --------
 Frag_755
 --------
 Charge =  0 Multiplicity = 1

 SCF Done:  E(RHF) =  -170.901424405     A.U. after   12 cycles
 E2 =    -0.5379135090D+00 EUMP2 =    -0.17143933791363D+03
 CCSD(T)
 CCSD(T)= -0.17149481068D+03
 41\CCSD=-171.4730676\CCSD(T)=-171.4948107\RMSD=8.174e-09\PG=C01 [X(C3H
 Normal termination of Gaussian 09 at Tue Aug 23 09:48:18 2022.

 ---------------------------------------------------------
 #P Geom=AllCheck Guess=TCheck SCRF=Check MP4=FrzG4/GTBas2
 ---------------------------------------------------------

 Structure from the checkpoint file:  "G4.Frag_755.chk"
 --------
 Frag_755
 --------
 Charge =  0 Multiplicity = 1

 SCF Done:  E(RHF) =  -170.907099888     A.U. after   13 cycles
 E2 =    -0.5435963049D+00 EUMP2 =    -0.17145069619303D+03
 Normal termination of Gaussian 09 at Tue Aug 23 09:48:28 2022.

 ---------------------------------------------------------
 #P Geom=AllCheck Guess=TCheck SCRF=Check MP4=FrzG4/GTBas3
 ---------------------------------------------------------

 Structure from the checkpoint file:  "G4.Frag_755.chk"
 --------
 Frag_755
 --------
 Charge =  0 Multiplicity = 1

 SCF Done:  E(RHF) =  -170.923410534     A.U. after   12 cycles
 E2 =    -0.6503009333D+00 EUMP2 =    -0.17157371146768D+03
 Normal termination of Gaussian 09 at Tue Aug 23 09:50:41 2022.

 -----------------------------------------------------------
 #P Geom=AllCheck Guess=TCheck SCRF=Check MP2=Full/GTLargeXP
 -----------------------------------------------------------

 Structure from the checkpoint file:  "G4.Frag_755.chk"
 --------
 Frag_755
 --------
 Charge =  0 Multiplicity = 1

 SCF Done:  E(RHF) =  -170.964257462     A.U. after   12 cycles
 E2 =    -0.8612855115D+00 EUMP2 =    -0.17182554297372D+03
 Normal termination of Gaussian 09 at Tue Aug 23 09:51:21 2022.
 SCF Done:  E(RHF) =  -170.977350373     A.U. after    9 cycles
 Normal termination of Gaussian 09 at Tue Aug 23 09:52:41 2022.

                         Standard orientation:
 ---------------------------------------------------------------------
 Center     Atomic      Atomic             Coordinates (Angstroms)
 Number     Number       Type             X           Y           Z
 ---------------------------------------------------------------------
      1          6           0        1.884172   -0.186871   -0.000017
      2          6           0        0.622780    0.164849    0.000172
      3          7           0       -0.522923    0.577735   -0.000120
      4          6           0       -1.694999   -0.292504   -0.000041
      5          1           0        2.415341   -0.334983   -0.931677
      6          1           0        2.416034   -0.334450    0.931258
      7          1           0       -2.300833   -0.064922   -0.882012
      8          1           0       -1.440492   -1.358648    0.000929
      9          1           0       -2.301311   -0.063985    0.881658
 ---------------------------------------------------------------------

 SCF Done:  E(RHF) =  -170.979977503     A.U. after    7 cycles

 The electronic state is 1-A.
 Alpha  occ. eigenvalues --  -15.57934 -11.30627 -11.26929 -11.22673  -1.25659
 Alpha  occ. eigenvalues --   -1.02855  -0.94827  -0.70885  -0.65335  -0.62702
 Alpha  occ. eigenvalues --   -0.61483  -0.59034  -0.49914  -0.43558  -0.34374
 Alpha virt. eigenvalues --    0.03968   0.04145   0.05310   0.05617   0.06715
 Alpha virt. eigenvalues --    0.07141   0.07659   0.09501   0.10045   0.10544
 Alpha virt. eigenvalues --    0.13747   0.14337   0.15553   0.16235   0.16481

 Mulliken charges:
               1
     1  C   -0.545108
     2  C    0.371802
     3  N   -0.391872
     4  C   -0.406309
     5  H    0.208785
     6  H    0.208787
     7  H    0.189868
     8  H    0.174243
     9  H    0.189804
 Sum of Mulliken charges =  -0.00000

 Dipole moment (field-independent basis, Debye):
    X=             -0.4557    Y=             -1.4180    Z=              0.0002  Tot=              1.4895
 Quadrupole moment (field-independent basis, Debye-Ang):
   XX=            -20.9842   YY=            -28.3218   ZZ=            -23.8100
   XY=              0.4039   XZ=              0.0007   YZ=              0.0011

 Normal termination of Gaussian 09 at Tue Aug 23 10:25:02 2022.
