 Gaussian 09, Revision E.01,
 Gaussian 09:  ES64L-G09RevE.01 30-Nov-2015

 -----
 #P G4
 -----

 --------
 Frag_962
 --------
 Symbolic Z-matrix:
 Charge =  0 Multiplicity = 1

 SCF Done:  E(RB3LYP) =  -228.610173613     A.U. after   13 cycles
 SCF Done:  E(RB3LYP) =  -228.616656972     A.U. after   11 cycles
 SCF Done:  E(RB3LYP) =  -228.618396277     A.U. after   11 cycles
 SCF Done:  E(RB3LYP) =  -228.621303703     A.U. after   13 cycles
 SCF Done:  E(RB3LYP) =  -228.622073548     A.U. after   12 cycles
 SCF Done:  E(RB3LYP) =  -228.622642576     A.U. after   11 cycles
 SCF Done:  E(RB3LYP) =  -228.622700944     A.U. after   10 cycles
 SCF Done:  E(RB3LYP) =  -228.622719773     A.U. after   10 cycles
 SCF Done:  E(RB3LYP) =  -228.622721667     A.U. after    8 cycles
 SCF Done:  E(RB3LYP) =  -228.622722003     A.U. after    7 cycles
 Optimization completed.
    -- Stationary point found.
 Normal termination of Gaussian 09 at Mon Aug 22 05:36:42 2022.

 ----------------------------------------------------------
 #P Geom=AllCheck Guess=TCheck SCRF=Check B3LYP/GTBas3 Freq
 ----------------------------------------------------------

 Structure from the checkpoint file:  "G4.Frag_962.chk"
 --------
 Frag_962
 --------
 Charge =  0 Multiplicity = 1

 SCF Done:  E(RB3LYP) =  -228.622722003     A.U. after    1 cycles

  Exact polarizability:  62.441   0.391  40.967   3.851  -0.212  42.769
 Approx polarizability:  87.035   1.446  56.829   9.720  -1.238  64.007

                      1                      2                      3
                      A                      A                      A
 Frequencies --    111.3308               276.1483               298.9676
 Red. masses --      2.6035                 1.0973                 1.1662
 Frc consts  --      0.0190                 0.0493                 0.0614
 IR Inten    --      0.4485                43.1978                17.8719

                      4                      5                      6
                      A                      A                      A
 Frequencies --    324.9615               341.5244               422.2999
 Red. masses --      2.0517                 1.7590                 2.6524
 Frc consts  --      0.1277                 0.1209                 0.2787
 IR Inten    --      7.9823                 9.8659                 7.4611

                      7                      8                      9
                      A                      A                      A
 Frequencies --    565.0960               707.8367               840.6243
 Red. masses --      3.0788                 1.7390                 1.6675
 Frc consts  --      0.5793                 0.5134                 0.6943
 IR Inten    --      4.1579                14.5658                87.1362

                     10                     11                     12
                      A                      A                      A
 Frequencies --    898.3607               924.7251               952.6563
 Red. masses --      1.5223                 1.4609                 1.3612
 Frc consts  --      0.7238                 0.7360                 0.7279
 IR Inten    --     98.8688               169.1641                29.3925

                     13                     14                     15
                      A                      A                      A
 Frequencies --    996.4855              1037.6603              1057.2525
 Red. masses --      2.2652                 1.1314                 1.3841
 Frc consts  --      1.3253                 0.7177                 0.9115
 IR Inten    --      1.4326                13.8228                 3.8147

                     16                     17                     18
                      A                      A                      A
 Frequencies --   1150.7135              1227.9346              1287.8555
 Red. masses --      1.9591                 1.6783                 1.2897
 Frc consts  --      1.5284                 1.4910                 1.2603
 IR Inten    --     28.5801                 8.5924                 5.4888

                     19                     20                     21
                      A                      A                      A
 Frequencies --   1309.0920              1372.0633              1407.2788
 Red. masses --      1.3479                 1.3976                 1.2925
 Frc consts  --      1.3610                 1.5502                 1.5081
 IR Inten    --      3.5597                24.9790                13.2173

                     22                     23                     24
                      A                      A                      A
 Frequencies --   1461.4411              1634.5206              1638.4643
 Red. masses --      1.2235                 1.1021                 1.1027
 Frc consts  --      1.5397                 1.7347                 1.7441
 IR Inten    --     15.0560                38.6898                27.0341

                     25                     26                     27
                      A                      A                      A
 Frequencies --   1711.4621              2939.1901              3132.3512
 Red. masses --      4.8203                 1.0825                 1.0660
 Frc consts  --      8.3187                 5.5100                 6.1626
 IR Inten    --      2.2108                65.0841                17.8560

                     28                     29                     30
                      A                      A                      A
 Frequencies --   3143.2644              3220.1681              3474.6439
 Red. masses --      1.0845                 1.1138                 1.0496
 Frc consts  --      6.3132                 6.8048                 7.4659
 IR Inten    --      2.4717                15.3200                 0.4763

                     31                     32                     33
                      A                      A                      A
 Frequencies --   3491.6302              3565.0499              3580.8706
 Red. masses --      1.0489                 1.0913                 1.0927
 Frc consts  --      7.5344                 8.1721                 8.2551
 IR Inten    --      0.3783                 0.4867                 1.0108

 - Thermochemistry -
 -------------------
 Temperature   298.150 Kelvin.  Pressure   1.00000 Atm.
 Atom     1 has atomic number  6 and mass  12.00000

 Molecular mass:    72.06875 amu.
 Principal axes and moments of inertia in atomic units:
                           1         2         3
     Eigenvalues --   214.33025 498.80389 635.27368
           X            0.99995  -0.00982   0.00196
           Y            0.00976   0.99951   0.02958
           Z           -0.00225  -0.02956   0.99956
 This molecule is an asymmetric top.
 Rotational symmetry number  1.
 Rotational temperatures (Kelvin)      0.40411     0.17364     0.13634
 Rotational constants (GHZ):           8.42038     3.61814     2.84089
 Zero-point vibrational energy     302080.5 (Joules/Mol)
                                   72.19898 (Kcal/Mol)
 Warning -- explicit consideration of   7 degrees of freedom as
           vibrations may cause significant error
 Vibrational temperatures:    160.18   397.32   430.15   467.55   491.38
          (Kelvin)            607.59   813.05  1018.42  1209.47  1292.54
                             1330.47  1370.66  1433.72  1492.96  1521.15
                             1655.62  1766.72  1852.93  1883.49  1974.09
                             2024.76  2102.69  2351.71  2357.38  2462.41
                             4228.83  4506.75  4522.45  4633.10  4999.23
                             5023.67  5129.31  5152.07

 Zero-point correction=                           0.115056 (Hartree/Particle)
 Thermal correction to Energy=                    0.121214
 Thermal correction to Enthalpy=                  0.122158
 Thermal correction to Gibbs Free Energy=         0.086099
 Sum of electronic and zero-point Energies=           -228.507666
 Sum of electronic and thermal Energies=              -228.501508
 Sum of electronic and thermal Enthalpies=            -228.500564
 Sum of electronic and thermal Free Energies=         -228.536623

                     E (Thermal)             CV                S
                      KCal/Mol        Cal/Mol-Kelvin    Cal/Mol-Kelvin
 Total                   76.063             22.038             75.892
 Electronic               0.000              0.000              0.000
 Translational            0.889              2.981             38.742
 Rotational               0.889              2.981             25.721
 Vibrational             74.285             16.077             11.429
 Vibration     1          0.607              1.940              3.246
 Vibration     2          0.678              1.718              1.557
 Vibration     3          0.692              1.676              1.423
 Vibration     4          0.709              1.626              1.285
 Vibration     5          0.721              1.592              1.205
 Vibration     6          0.785              1.422              0.884
 Vibration     7          0.921              1.107              0.514

 Optimization completed.
    -- Stationary point found.
 Normal termination of Gaussian 09 at Mon Aug 22 05:38:21 2022.

 -----------------------------------------------------------------
 #P Geom=AllCheck Guess=TCheck SCRF=Check CCSD(T,E4T,FrzG4)/GTBas1
 -----------------------------------------------------------------

 Structure from the checkpoint file:  "G4.Frag_962.chk"
 --------
 Frag_962
 --------
 Charge =  0 Multiplicity = 1

 SCF Done:  E(RHF) =  -227.116923538     A.U. after   12 cycles
 E2 =    -0.7114549609D+00 EUMP2 =    -0.22782837849852D+03
 CCSD(T)
 CCSD(T)= -0.22790171826D+03
 2\MP4SDTQ=-227.8997492\MP4SDQ=-227.8773421\CCSD=-227.8786711\CCSD(T)=-
 Normal termination of Gaussian 09 at Mon Aug 22 05:40:25 2022.

 ---------------------------------------------------------
 #P Geom=AllCheck Guess=TCheck SCRF=Check MP4=FrzG4/GTBas2
 ---------------------------------------------------------

 Structure from the checkpoint file:  "G4.Frag_962.chk"
 --------
 Frag_962
 --------
 Charge =  0 Multiplicity = 1

 SCF Done:  E(RHF) =  -227.127991482     A.U. after   12 cycles
 E2 =    -0.7229278256D+00 EUMP2 =    -0.22785091930749D+03
 Normal termination of Gaussian 09 at Mon Aug 22 05:42:39 2022.

 ---------------------------------------------------------
 #P Geom=AllCheck Guess=TCheck SCRF=Check MP4=FrzG4/GTBas3
 ---------------------------------------------------------

 Structure from the checkpoint file:  "G4.Frag_962.chk"
 --------
 Frag_962
 --------
 Charge =  0 Multiplicity = 1

 SCF Done:  E(RHF) =  -227.151553400     A.U. after   11 cycles
 E2 =    -0.8728616684D+00 EUMP2 =    -0.22802441506889D+03
 Normal termination of Gaussian 09 at Mon Aug 22 06:27:30 2022.

 -----------------------------------------------------------
 #P Geom=AllCheck Guess=TCheck SCRF=Check MP2=Full/GTLargeXP
 -----------------------------------------------------------

 Structure from the checkpoint file:  "G4.Frag_962.chk"
 --------
 Frag_962
 --------
 Charge =  0 Multiplicity = 1

 SCF Done:  E(RHF) =  -227.211065196     A.U. after   12 cycles
 E2 =    -0.1146543525D+01 EUMP2 =    -0.22835760872132D+03
 Normal termination of Gaussian 09 at Mon Aug 22 06:30:21 2022.
 SCF Done:  E(RHF) =  -227.228874869     A.U. after    8 cycles
 Normal termination of Gaussian 09 at Mon Aug 22 06:33:38 2022.

                         Standard orientation:
 ---------------------------------------------------------------------
 Center     Atomic      Atomic             Coordinates (Angstroms)
 Number     Number       Type             X           Y           Z
 ---------------------------------------------------------------------
      1          6           0        2.115278    0.017737    0.156804
      2          6           0        0.921827    0.066046   -0.426250
      3          6           0       -0.396688    0.004436    0.305786
      4          7           0       -1.227784    1.131469   -0.111397
      5          7           0       -1.180666   -1.200876    0.013558
      6          1           0        2.216692   -0.042210    1.237492
      7          1           0        3.038003    0.033720   -0.413692
      8          1           0        0.833893    0.134930   -1.510280
      9          1           0       -0.187550   -0.018534    1.389876
     10          1           0       -0.775297    2.007261    0.130455
     11          1           0       -2.109046    1.088334    0.392759
     12          1           0       -0.625846   -2.025186    0.225936
     13          1           0       -1.374192   -1.221784   -0.985713
 ---------------------------------------------------------------------

 SCF Done:  E(RHF) =  -227.232690235     A.U. after    8 cycles

 The electronic state is 1-A.
 Alpha  occ. eigenvalues --  -15.54162 -15.54126 -11.28848 -11.23248 -11.22791
 Alpha  occ. eigenvalues --   -1.22791  -1.12310  -1.04547  -0.87091  -0.76966
 Alpha  occ. eigenvalues --   -0.69411  -0.66282  -0.62501  -0.58915  -0.55947
 Alpha  occ. eigenvalues --   -0.54875  -0.51282  -0.41808  -0.39909  -0.36743
 Alpha virt. eigenvalues --    0.03777   0.04590   0.04919   0.05552   0.07043
 Alpha virt. eigenvalues --    0.07366   0.07621   0.08489   0.08579   0.10399
 Alpha virt. eigenvalues --    0.11920   0.12188   0.13267   0.13753   0.13893

 Mulliken charges:
               1
     1  C   -0.437704
     2  C   -0.219563
     3  C    0.145089
     4  N   -0.713034
     5  N   -0.684516
     6  H    0.174392
     7  H    0.189998
     8  H    0.214358
     9  H    0.140887
    10  H    0.299004
    11  H    0.310660
    12  H    0.286144
    13  H    0.294284
 Sum of Mulliken charges =  -0.00000

 Dipole moment (field-independent basis, Debye):
    X=              1.1428    Y=              0.0766    Z=              0.5406  Tot=              1.2665
 Quadrupole moment (field-independent basis, Debye-Ang):
   XX=            -33.7913   YY=            -31.0671   ZZ=            -31.2452
   XY=             -1.6574   XZ=             -0.2656   YZ=              2.6614

 Normal termination of Gaussian 09 at Mon Aug 22 08:12:24 2022.
