 Gaussian 09, Revision E.01,
 Gaussian 09:  ES64L-G09RevE.01 30-Nov-2015

 -----
 #P G4
 -----

 --------
 Frag_697
 --------
 Symbolic Z-matrix:
 Charge =  0 Multiplicity = 1

 SCF Done:  E(RB3LYP) =  -283.197876488     A.U. after   15 cycles
 SCF Done:  E(RB3LYP) =  -283.220270893     A.U. after   13 cycles
 SCF Done:  E(RB3LYP) =  -283.222333532     A.U. after   12 cycles
 SCF Done:  E(RB3LYP) =  -283.222514569     A.U. after   10 cycles
 SCF Done:  E(RB3LYP) =  -283.222502156     A.U. after   10 cycles
 SCF Done:  E(RB3LYP) =  -283.222442431     A.U. after   11 cycles
 SCF Done:  E(RB3LYP) =  -283.222526608     A.U. after    5 cycles
 SCF Done:  E(RB3LYP) =  -283.222533527     A.U. after    9 cycles
 Optimization completed.
    -- Stationary point found.
 Normal termination of Gaussian 09 at Fri Aug 26 15:05:07 2022.

 ----------------------------------------------------------
 #P Geom=AllCheck Guess=TCheck SCRF=Check B3LYP/GTBas3 Freq
 ----------------------------------------------------------

 Structure from the checkpoint file:  "G4.Frag_697.chk"
 --------
 Frag_697
 --------
 Charge =  0 Multiplicity = 1

 SCF Done:  E(RB3LYP) =  -283.222533527     A.U. after    1 cycles

  Exact polarizability:  46.181   2.712  36.071   0.000  -0.000  18.674
 Approx polarizability:  66.295   7.488  60.655  -0.000  -0.000  28.288

                      1                      2                      3
                      A                      A                      A
 Frequencies --     54.3360               331.2111               529.9242
 Red. masses --      3.8259                 3.4247                 4.4441
 Frc consts  --      0.0067                 0.2213                 0.7353
 IR Inten    --      8.5247                18.1941                 2.6232

                      4                      5                      6
                      A                      A                      A
 Frequencies --    559.0266               629.6732               655.6667
 Red. masses --      1.5584                 1.0930                 5.5380
 Frc consts  --      0.2869                 0.2553                 1.4027
 IR Inten    --      8.6178               101.4701                 0.6933

                      7                      8                      9
                      A                      A                      A
 Frequencies --    852.6522               882.9246              1128.4452
 Red. masses --      6.4369                 2.9417                 1.3511
 Frc consts  --      2.7572                 1.3511                 1.0137
 IR Inten    --     29.4006                17.3423                11.3871

                     10                     11                     12
                      A                      A                      A
 Frequencies --   1201.4873              1228.0382              1347.1683
 Red. masses --      2.3134                 1.5788                 2.1346
 Frc consts  --      1.9676                 1.4028                 2.2825
 IR Inten    --     27.4719                 8.0619               515.6429

                     13                     14                     15
                      A                      A                      A
 Frequencies --   1466.6394              1713.0042              1875.6338
 Red. masses --      1.1492                 6.9390                 9.6172
 Frc consts  --      1.4564                11.9968                19.9341
 IR Inten    --     70.2476                70.4407               233.8430

                     16                     17                     18
                      A                      A                      A
 Frequencies --   3063.9333              3176.9953              3765.8270
 Red. masses --      1.0581                 1.1152                 1.0644
 Frc consts  --      5.8527                 6.6318                 8.8933
 IR Inten    --     15.8630                 8.2693                73.0612

 - Thermochemistry -
 -------------------
 Temperature   298.150 Kelvin.  Pressure   1.00000 Atm.
 Atom     1 has atomic number  6 and mass  12.00000

 Molecular mass:    73.01638 amu.
 Principal axes and moments of inertia in atomic units:
                           1         2         3
     Eigenvalues --   163.18134 374.82279 538.00413
           X            0.99939   0.03489   0.00000
           Y           -0.03489   0.99939  -0.00000
           Z           -0.00000   0.00000   1.00000
 This molecule is an asymmetric top.
 Rotational symmetry number  1.
 Rotational temperatures (Kelvin)      0.53078     0.23108     0.16099
 Rotational constants (GHZ):          11.05973     4.81492     3.35451
 Zero-point vibrational energy     146318.8 (Joules/Mol)
                                   34.97102 (Kcal/Mol)
 Warning -- explicit consideration of   4 degrees of freedom as
           vibrations may cause significant error
 Vibrational temperatures:     78.18   476.54   762.44   804.31   905.96
          (Kelvin)            943.36  1226.77  1270.33  1623.58  1728.67
                             1766.87  1938.27  2110.16  2464.63  2698.62
                             4408.31  4570.98  5418.18

 Zero-point correction=                           0.055730 (Hartree/Particle)
 Thermal correction to Energy=                    0.060628
 Thermal correction to Enthalpy=                  0.061572
 Thermal correction to Gibbs Free Energy=         0.027333
 Sum of electronic and zero-point Energies=           -283.166804
 Sum of electronic and thermal Energies=              -283.161906
 Sum of electronic and thermal Enthalpies=            -283.160962
 Sum of electronic and thermal Free Energies=         -283.195200

                     E (Thermal)             CV                S
                      KCal/Mol        Cal/Mol-Kelvin    Cal/Mol-Kelvin
 Total                   38.044             15.745             72.061
 Electronic               0.000              0.000              0.000
 Translational            0.889              2.981             38.781
 Rotational               0.889              2.981             25.001
 Vibrational             36.267              9.783              8.279
 Vibration     1          0.596              1.976              4.653
 Vibration     2          0.714              1.613              1.254
 Vibration     3          0.885              1.184              0.587
 Vibration     4          0.915              1.120              0.526

 Optimization completed.
    -- Stationary point found.
 Normal termination of Gaussian 09 at Fri Aug 26 15:05:22 2022.

 -----------------------------------------------------------------
 #P Geom=AllCheck Guess=TCheck SCRF=Check CCSD(T,E4T,FrzG4)/GTBas1
 -----------------------------------------------------------------

 Structure from the checkpoint file:  "G4.Frag_697.chk"
 --------
 Frag_697
 --------
 Charge =  0 Multiplicity = 1

 SCF Done:  E(RHF) =  -281.645728402     A.U. after   14 cycles
 E2 =    -0.7583437262D+00 EUMP2 =    -0.28240407212814D+03
 CCSD(T)
 CCSD(T)= -0.28245241051D+03
 282.4560456\MP4SDQ=-282.4270091\CCSD=-282.425693\CCSD(T)=-282.4524105\
 Normal termination of Gaussian 09 at Fri Aug 26 15:06:02 2022.

 ---------------------------------------------------------
 #P Geom=AllCheck Guess=TCheck SCRF=Check MP4=FrzG4/GTBas2
 ---------------------------------------------------------

 Structure from the checkpoint file:  "G4.Frag_697.chk"
 --------
 Frag_697
 --------
 Charge =  0 Multiplicity = 1

 SCF Done:  E(RHF) =  -281.654530836     A.U. after   13 cycles
 E2 =    -0.7694320960D+00 EUMP2 =    -0.28242396293239D+03
 Normal termination of Gaussian 09 at Fri Aug 26 15:06:13 2022.

 ---------------------------------------------------------
 #P Geom=AllCheck Guess=TCheck SCRF=Check MP4=FrzG4/GTBas3
 ---------------------------------------------------------

 Structure from the checkpoint file:  "G4.Frag_697.chk"
 --------
 Frag_697
 --------
 Charge =  0 Multiplicity = 1

 SCF Done:  E(RHF) =  -281.678648985     A.U. after   12 cycles
 E2 =    -0.9184957441D+00 EUMP2 =    -0.28259714472898D+03
 Normal termination of Gaussian 09 at Fri Aug 26 15:07:02 2022.

 -----------------------------------------------------------
 #P Geom=AllCheck Guess=TCheck SCRF=Check MP2=Full/GTLargeXP
 -----------------------------------------------------------

 Structure from the checkpoint file:  "G4.Frag_697.chk"
 --------
 Frag_697
 --------
 Charge =  0 Multiplicity = 1

 SCF Done:  E(RHF) =  -281.756516458     A.U. after   12 cycles
 E2 =    -0.1203672737D+01 EUMP2 =    -0.28296018919521D+03
 Normal termination of Gaussian 09 at Fri Aug 26 15:07:35 2022.
 SCF Done:  E(RHF) =  -281.778768974     A.U. after   10 cycles
 Normal termination of Gaussian 09 at Fri Aug 26 15:08:13 2022.

                         Standard orientation:
 ---------------------------------------------------------------------
 Center     Atomic      Atomic             Coordinates (Angstroms)
 Number     Number       Type             X           Y           Z
 ---------------------------------------------------------------------
      1          6           0        1.815358   -0.069252   -0.000010
      2          7           0        0.716112   -0.704928    0.000005
      3          6           0       -0.462915    0.136194   -0.000013
      4          8           0       -0.493639    1.333966    0.000008
      5          8           0       -1.564155   -0.623586   -0.000000
      6          1           0        1.854447    1.024620   -0.000008
      7          1           0        2.749576   -0.629329    0.000040
      8          1           0       -1.269116   -1.545490    0.000013
 ---------------------------------------------------------------------

 SCF Done:  E(RHF) =  -281.783398526     A.U. after    7 cycles

 The electronic state is 1-A.
 Alpha  occ. eigenvalues --  -20.61675 -20.55023 -15.59952 -11.41535 -11.32702
 Alpha  occ. eigenvalues --   -1.47877  -1.37963  -1.25801  -0.92766  -0.82458
 Alpha  occ. eigenvalues --   -0.75864  -0.69591  -0.65875  -0.65059  -0.58939
 Alpha  occ. eigenvalues --   -0.51379  -0.51097  -0.46888  -0.44623
 Alpha virt. eigenvalues --    0.03302   0.04219   0.04574   0.05479   0.06687
 Alpha virt. eigenvalues --    0.07127   0.07672   0.09045   0.11565   0.12657
 Alpha virt. eigenvalues --    0.13200   0.14291   0.15795   0.16461   0.16518

 Mulliken charges:
               1
     1  C   -0.114130
     2  N   -0.445990
     3  C    0.735801
     4  O   -0.547289
     5  O   -0.522192
     6  H    0.245628
     7  H    0.234419
     8  H    0.413755
 Sum of Mulliken charges =  -0.00000

 Dipole moment (field-independent basis, Debye):
    X=              3.1879    Y=             -2.1858    Z=             -0.0000  Tot=              3.8652
 Quadrupole moment (field-independent basis, Debye-Ang):
   XX=            -24.5196   YY=            -30.6212   ZZ=            -28.5019
   XY=              4.0851   XZ=              0.0000   YZ=             -0.0001

 Normal termination of Gaussian 09 at Fri Aug 26 15:11:15 2022.
