 Gaussian 09, Revision E.01,
 Gaussian 09:  ES64L-G09RevE.01 30-Nov-2015

 -----
 #P G4
 -----

 --------
 Frag_566
 --------
 Symbolic Z-matrix:
 Charge =  0 Multiplicity = 1

 SCF Done:  E(RB3LYP) =  -338.494099276     A.U. after   14 cycles
 SCF Done:  E(RB3LYP) =  -338.576966414     A.U. after   13 cycles
 SCF Done:  E(RB3LYP) =  -338.562184147     A.U. after   14 cycles
 SCF Done:  E(RB3LYP) =  -338.592485193     A.U. after   11 cycles
 SCF Done:  E(RB3LYP) =  -338.594918438     A.U. after   12 cycles
 SCF Done:  E(RB3LYP) =  -338.594725831     A.U. after   13 cycles
 SCF Done:  E(RB3LYP) =  -338.595186921     A.U. after    9 cycles
 SCF Done:  E(RB3LYP) =  -338.595414491     A.U. after   12 cycles
 SCF Done:  E(RB3LYP) =  -338.595520721     A.U. after   11 cycles
 SCF Done:  E(RB3LYP) =  -338.595526772     A.U. after    9 cycles
 SCF Done:  E(RB3LYP) =  -338.595527687     A.U. after    8 cycles
 SCF Done:  E(RB3LYP) =  -338.595527922     A.U. after    8 cycles
 SCF Done:  E(RB3LYP) =  -338.595528111     A.U. after    8 cycles
 Optimization completed.
    -- Stationary point found.
 Normal termination of Gaussian 09 at Tue Aug 30 09:32:29 2022.

 ----------------------------------------------------------
 #P Geom=AllCheck Guess=TCheck SCRF=Check B3LYP/GTBas3 Freq
 ----------------------------------------------------------

 Structure from the checkpoint file:  "G4.Frag_566.chk"
 --------
 Frag_566
 --------
 Charge =  0 Multiplicity = 1

 SCF Done:  E(RB3LYP) =  -338.595528111     A.U. after    1 cycles

  Exact polarizability:  51.238  -2.925  50.565   0.493  -0.362  22.443
 Approx polarizability:  68.910  -4.142  90.192   1.142  -1.433  34.623

                      1                      2                      3
                      A                      A                      A
 Frequencies --     47.5347               298.2340               361.8809
 Red. masses --      7.7183                 5.3901                 1.3316
 Frc consts  --      0.0103                 0.2825                 0.1027
 IR Inten    --      0.5007                 8.0292               193.4383

                      4                      5                      6
                      A                      A                      A
 Frequencies --    410.7998               441.0128               464.0184
 Red. masses --      1.6669                 4.0882                 1.3403
 Frc consts  --      0.1657                 0.4685                 0.1700
 IR Inten    --     21.4409                11.0077                 9.7402

                      7                      8                      9
                      A                      A                      A
 Frequencies --    522.9244               607.9649               638.6839
 Red. masses --      4.2905                 3.4793                 1.3290
 Frc consts  --      0.6913                 0.7577                 0.3194
 IR Inten    --     18.4501                62.9662                85.3046

                     10                     11                     12
                      A                      A                      A
 Frequencies --    775.7812               816.4345               888.9351
 Red. masses --      3.3318                 9.1244                 1.3210
 Frc consts  --      1.1814                 3.5834                 0.6150
 IR Inten    --      4.3682                 2.6383                82.9823

                     13                     14                     15
                      A                      A                      A
 Frequencies --   1096.0616              1115.7762              1157.2850
 Red. masses --      1.3675                 2.6636                 2.1423
 Frc consts  --      0.9679                 1.9538                 1.6905
 IR Inten    --     84.0126               120.7581               124.7952

                     16                     17                     18
                      A                      A                      A
 Frequencies --   1314.2932              1428.0736              1626.2452
 Red. masses --      1.7269                 3.1375                 1.1908
 Frc consts  --      1.7575                 3.7699                 1.8554
 IR Inten    --     29.2825               181.4938                76.8472

                     19                     20                     21
                      A                      A                      A
 Frequencies --   1725.0076              1870.3732              3449.7450
 Red. masses --      7.2005                10.6919                 1.0746
 Frc consts  --     12.6240                22.0375                 7.5349
 IR Inten    --    168.2706               185.9806                 3.9674

                     22                     23                     24
                      A                      A                      A
 Frequencies --   3596.1597              3718.4405              3762.1947
 Red. masses --      1.0457                 1.1020                 1.0644
 Frc consts  --      7.9679                 8.9777                 8.8767
 IR Inten    --     34.2020                40.8477                69.5669

 - Thermochemistry -
 -------------------
 Temperature   298.150 Kelvin.  Pressure   1.00000 Atm.
 Atom     1 has atomic number  7 and mass  14.00307

 Molecular mass:    88.02728 amu.
 Principal axes and moments of inertia in atomic units:
                           1         2         3
     Eigenvalues --   315.42712 499.47106 811.81786
           X            0.99994  -0.01049   0.00215
           Y            0.01048   0.99994   0.00282
           Z           -0.00218  -0.00280   0.99999
 This molecule is an asymmetric top.
 Rotational symmetry number  1.
 Rotational temperatures (Kelvin)      0.27459     0.17341     0.10669
 Rotational constants (GHZ):           5.72158     3.61330     2.22309
 Zero-point vibrational energy     192203.2 (Joules/Mol)
                                   45.93766 (Kcal/Mol)
 Warning -- explicit consideration of   8 degrees of freedom as
           vibrations may cause significant error
 Vibrational temperatures:     68.39   429.09   520.67   591.05   634.52
          (Kelvin)            667.62   752.37   874.72   918.92  1116.17
                             1174.67  1278.98  1576.99  1605.35  1665.07
                             1890.97  2054.68  2339.80  2481.90  2691.05
                             4963.41  5174.07  5350.00  5412.95

 Zero-point correction=                           0.073206 (Hartree/Particle)
 Thermal correction to Energy=                    0.079283
 Thermal correction to Enthalpy=                  0.080227
 Thermal correction to Gibbs Free Energy=         0.043229
 Sum of electronic and zero-point Energies=           -338.522322
 Sum of electronic and thermal Energies=              -338.516245
 Sum of electronic and thermal Enthalpies=            -338.515301
 Sum of electronic and thermal Free Energies=         -338.552300

                     E (Thermal)             CV                S
                      KCal/Mol        Cal/Mol-Kelvin    Cal/Mol-Kelvin
 Total                   49.751             21.444             77.870
 Electronic               0.000              0.000              0.000
 Translational            0.889              2.981             39.338
 Rotational               0.889              2.981             26.350
 Vibrational             47.973             15.482             12.182
 Vibration     1          0.595              1.979              4.917
 Vibration     2          0.691              1.677              1.427
 Vibration     3          0.736              1.551              1.114
 Vibration     4          0.775              1.447              0.924
 Vibration     5          0.801              1.381              0.823
 Vibration     6          0.822              1.330              0.755
 Vibration     7          0.878              1.199              0.603
 Vibration     8          0.967              1.015              0.436

 Optimization completed.
    -- Stationary point found.
 Normal termination of Gaussian 09 at Tue Aug 30 09:32:53 2022.

 -----------------------------------------------------------------
 #P Geom=AllCheck Guess=TCheck SCRF=Check CCSD(T,E4T,FrzG4)/GTBas1
 -----------------------------------------------------------------

 Structure from the checkpoint file:  "G4.Frag_566.chk"
 --------
 Frag_566
 --------
 Charge =  0 Multiplicity = 1

 SCF Done:  E(RHF) =  -336.681052275     A.U. after   13 cycles
 E2 =    -0.9293002974D+00 EUMP2 =    -0.33761035257246D+03
 CCSD(T)
 CCSD(T)= -0.33766585415D+03
 Normal termination of Gaussian 09 at Tue Aug 30 09:34:33 2022.

 ---------------------------------------------------------
 #P Geom=AllCheck Guess=TCheck SCRF=Check MP4=FrzG4/GTBas2
 ---------------------------------------------------------

 Structure from the checkpoint file:  "G4.Frag_566.chk"
 --------
 Frag_566
 --------
 Charge =  0 Multiplicity = 1

 SCF Done:  E(RHF) =  -336.692503632     A.U. after   12 cycles
 E2 =    -0.9441040089D+00 EUMP2 =    -0.33763660764098D+03
 Normal termination of Gaussian 09 at Tue Aug 30 09:35:07 2022.

 ---------------------------------------------------------
 #P Geom=AllCheck Guess=TCheck SCRF=Check MP4=FrzG4/GTBas3
 ---------------------------------------------------------

 Structure from the checkpoint file:  "G4.Frag_566.chk"
 --------
 Frag_566
 --------
 Charge =  0 Multiplicity = 1

 SCF Done:  E(RHF) =  -336.724597776     A.U. after   12 cycles
 E2 =    -0.1123320780D+01 EUMP2 =    -0.33784791855633D+03
 Normal termination of Gaussian 09 at Tue Aug 30 09:37:21 2022.

 -----------------------------------------------------------
 #P Geom=AllCheck Guess=TCheck SCRF=Check MP2=Full/GTLargeXP
 -----------------------------------------------------------

 Structure from the checkpoint file:  "G4.Frag_566.chk"
 --------
 Frag_566
 --------
 Charge =  0 Multiplicity = 1

 SCF Done:  E(RHF) =  -336.818266957     A.U. after   13 cycles
 E2 =    -0.1467714812D+01 EUMP2 =    -0.33828598176844D+03
 Normal termination of Gaussian 09 at Tue Aug 30 09:38:51 2022.
 SCF Done:  E(RHF) =  -336.844772106     A.U. after    9 cycles
 Normal termination of Gaussian 09 at Tue Aug 30 09:40:05 2022.

                         Standard orientation:
 ---------------------------------------------------------------------
 Center     Atomic      Atomic             Coordinates (Angstroms)
 Number     Number       Type             X           Y           Z
 ---------------------------------------------------------------------
      1          7           0        1.360790   -1.246687    0.070512
      2          6           0        0.760960   -0.123894    0.000681
      3          7           0        1.303101    1.134757   -0.113088
      4          6           0       -0.760982   -0.163975   -0.008069
      5          8           0       -1.432456   -1.152277   -0.068327
      6          8           0       -1.288461    1.087701    0.073316
      7          1           0        2.375825   -1.123059    0.072174
      8          1           0        2.282667    1.245460    0.093335
      9          1           0        0.712206    1.927670    0.073003
     10          1           0       -2.250467    0.977254    0.063929
 ---------------------------------------------------------------------

 SCF Done:  E(RHF) =  -336.850380916     A.U. after    8 cycles

 The electronic state is 1-A.
 Alpha  occ. eigenvalues --  -20.62901 -20.56369 -15.59387 -15.55042 -11.40352
 Alpha  occ. eigenvalues --  -11.34354  -1.48319  -1.38041  -1.28113  -1.16377
 Alpha  occ. eigenvalues --   -0.94709  -0.79754  -0.75018  -0.73626  -0.69401
 Alpha  occ. eigenvalues --   -0.65480  -0.65166  -0.60782  -0.54766  -0.50072
 Alpha  occ. eigenvalues --   -0.47536  -0.45034  -0.38708
 Alpha virt. eigenvalues --    0.03099   0.03778   0.05490   0.05927   0.07258
 Alpha virt. eigenvalues --    0.07362   0.07972   0.09021   0.10235   0.11208
 Alpha virt. eigenvalues --    0.11819   0.13056   0.13366   0.14809   0.15728

 Mulliken charges:
               1
     1  N   -0.567427
     2  C    0.327019
     3  N   -0.694173
     4  C    0.679381
     5  O   -0.534548
     6  O   -0.560999
     7  H    0.263615
     8  H    0.318869
     9  H    0.348197
    10  H    0.420064
 Sum of Mulliken charges =  -0.00000

 Dipole moment (field-independent basis, Debye):
    X=              1.2816    Y=              4.6946    Z=              0.5752  Tot=              4.9002
 Quadrupole moment (field-independent basis, Debye-Ang):
   XX=            -25.0747   YY=            -39.6923   ZZ=            -35.9568
   XY=             -1.4765   XZ=              0.6892   YZ=              0.9636

 Normal termination of Gaussian 09 at Tue Aug 30 09:45:07 2022.
