 Gaussian 09, Revision E.01,
 Gaussian 09:  ES64L-G09RevE.01 30-Nov-2015

 -----
 #P G4
 -----

 ---------
 Frag_1108
 ---------
 Symbolic Z-matrix:
 Charge =  0 Multiplicity = 1

 SCF Done:  E(RB3LYP) =  -395.143017189     A.U. after   14 cycles
 SCF Done:  E(RB3LYP) =  -395.162850234     A.U. after   13 cycles
 SCF Done:  E(RB3LYP) =  -395.165127167     A.U. after   12 cycles
 SCF Done:  E(RB3LYP) =  -395.166844338     A.U. after   12 cycles
 SCF Done:  E(RB3LYP) =  -395.168902365     A.U. after   13 cycles
 SCF Done:  E(RB3LYP) =  -395.170881674     A.U. after   12 cycles
 SCF Done:  E(RB3LYP) =  -395.172231061     A.U. after   12 cycles
 SCF Done:  E(RB3LYP) =  -395.173448952     A.U. after   13 cycles
 SCF Done:  E(RB3LYP) =  -395.174475786     A.U. after   12 cycles
 SCF Done:  E(RB3LYP) =  -395.175382249     A.U. after   12 cycles
 SCF Done:  E(RB3LYP) =  -395.177003301     A.U. after    9 cycles
 SCF Done:  E(RB3LYP) =  -395.177004638     A.U. after    8 cycles
 SCF Done:  E(RB3LYP) =  -395.177004948     A.U. after    7 cycles
 Optimization completed.
    -- Stationary point found.
 Normal termination of Gaussian 09 at Fri Aug 26 14:38:41 2022.

 ----------------------------------------------------------
 #P Geom=AllCheck Guess=TCheck SCRF=Check B3LYP/GTBas3 Freq
 ----------------------------------------------------------

 Structure from the checkpoint file:  "G4.Frag_1108.chk"
 ---------
 Frag_1108
 ---------
 Charge =  0 Multiplicity = 1

 SCF Done:  E(RB3LYP) =  -395.177004948     A.U. after    1 cycles

  Exact polarizability:  54.135   0.052  53.929   0.441   0.480  40.393
 Approx polarizability:  72.778  -2.954  85.356  -0.595  -1.453  59.528

                      1                      2                      3
                      A                      A                      A
 Frequencies --     45.2744               194.5010               252.1545
 Red. masses --      5.1307                 1.1862                 3.4587
 Frc consts  --      0.0062                 0.0264                 0.1296
 IR Inten    --      3.4511                 3.3988                 3.8356

                      4                      5                      6
                      A                      A                      A
 Frequencies --    289.4633               316.8438               377.7547
 Red. masses --      4.2218                 1.0954                 3.2438
 Frc consts  --      0.2084                 0.0648                 0.2727
 IR Inten    --     21.6074                42.8818                 7.2503

                      7                      8                      9
                      A                      A                      A
 Frequencies --    391.3568               415.5921               473.1596
 Red. masses --      1.3944                 3.5032                 3.1178
 Frc consts  --      0.1258                 0.3565                 0.4113
 IR Inten    --    135.6934                16.1983                51.0166

                     10                     11                     12
                      A                      A                      A
 Frequencies --    540.9855               558.8954               612.6827
 Red. masses --      1.5007                 1.8409                 3.2426
 Frc consts  --      0.2588                 0.3388                 0.7172
 IR Inten    --     24.2849                93.0425                30.5096

                     13                     14                     15
                      A                      A                      A
 Frequencies --    691.0136               743.2039               792.4703
 Red. masses --      1.1590                 3.1086                 4.8453
 Frc consts  --      0.3261                 1.0117                 1.7928
 IR Inten    --     13.2808                21.8175                31.1629

                     16                     17                     18
                      A                      A                      A
 Frequencies --    848.8838               894.6943              1004.7391
 Red. masses --      1.6915                 1.8276                 2.8518
 Frc consts  --      0.7181                 0.8620                 1.6962
 IR Inten    --    124.1932               103.8511               104.4527

                     19                     20                     21
                      A                      A                      A
 Frequencies --   1028.7424              1108.2507              1187.6622
 Red. masses --      1.7042                 1.9184                 2.7586
 Frc consts  --      1.0626                 1.3882                 2.2926
 IR Inten    --     12.7098                 3.7014               201.2331

                     22                     23                     24
                      A                      A                      A
 Frequencies --   1239.8649              1317.1525              1362.5481
 Red. masses --      1.3250                 1.7482                 2.2823
 Frc consts  --      1.2001                 1.7870                 2.4965
 IR Inten    --      2.5067                45.3979               101.5088

                     25                     26                     27
                      A                      A                      A
 Frequencies --   1473.6912              1579.4899              1628.2218
 Red. masses --      2.1512                 1.3736                 1.1170
 Frc consts  --      2.7527                 2.0191                 1.7447
 IR Inten    --     44.4050               134.4300                47.8821

                     28                     29                     30
                      A                      A                      A
 Frequencies --   1663.1100              1785.1064              3478.2014
 Red. masses --      1.1135                 9.0145                 1.0499
 Frc consts  --      1.8146                16.9247                 7.4833
 IR Inten    --     55.9447               272.8422                 1.6632

                     31                     32                     33
                      A                      A                      A
 Frequencies --   3524.3532              3558.9773              3574.9968
 Red. masses --      1.0483                 1.0907                 1.0440
 Frc consts  --      7.6719                 8.1394                 7.8613
 IR Inten    --      5.3348                 5.2093                52.6148

                     34                     35                     36
                      A                      A                      A
 Frequencies --   3616.5440              3711.0934              3723.2320
 Red. masses --      1.0946                 1.0646                 1.1048
 Frc consts  --      8.4351                 8.6382                 9.0231
 IR Inten    --     11.6547                56.9188                80.3043

 - Thermochemistry -
 -------------------
 Temperature   298.150 Kelvin.  Pressure   1.00000 Atm.
 Atom     1 has atomic number  7 and mass  14.00307

 Molecular mass:   105.05383 amu.
 Principal axes and moments of inertia in atomic units:
                           1         2         3
     Eigenvalues --   508.78077 723.48783 875.09078
           X            0.99905   0.04073   0.01547
           Y           -0.04147   0.99785   0.05075
           Z           -0.01337  -0.05134   0.99859
 This molecule is an asymmetric top.
 Rotational symmetry number  1.
 Warning -- assumption of classical behavior for rotation
           may cause significant error
 Rotational temperatures (Kelvin)      0.17024     0.11972     0.09898
 Rotational constants (GHZ):           3.54719     2.49450     2.06235
 Zero-point vibrational energy     299095.8 (Joules/Mol)
                                   71.48560 (Kcal/Mol)
 Warning -- explicit consideration of  12 degrees of freedom as
           vibrations may cause significant error
 Vibrational temperatures:     65.14   279.84   362.79   416.47   455.87
          (Kelvin)            543.50   563.07   597.94   680.77   778.36
                              804.12   881.51   994.21  1069.30  1140.19
                             1221.35  1287.26  1445.59  1480.13  1594.52
                             1708.78  1783.89  1895.09  1960.40  2120.31
                             2272.53  2342.65  2392.84  2568.37  5004.35
                             5070.75  5120.57  5143.62  5203.39  5339.43
                             5356.89

 Zero-point correction=                           0.113920 (Hartree/Particle)
 Thermal correction to Energy=                    0.121778
 Thermal correction to Enthalpy=                  0.122722
 Thermal correction to Gibbs Free Energy=         0.082076
 Sum of electronic and zero-point Energies=           -395.063085
 Sum of electronic and thermal Energies=              -395.055227
 Sum of electronic and thermal Enthalpies=            -395.054283
 Sum of electronic and thermal Free Energies=         -395.094929

                     E (Thermal)             CV                S
                      KCal/Mol        Cal/Mol-Kelvin    Cal/Mol-Kelvin
 Total                   76.417             29.159             85.548
 Electronic               0.000              0.000              0.000
 Translational            0.889              2.981             39.865
 Rotational               0.889              2.981             27.268
 Vibrational             74.639             23.197             18.415
 Vibration     1          0.595              1.979              5.014
 Vibration     2          0.635              1.848              2.185
 Vibration     3          0.664              1.759              1.715
 Vibration     4          0.686              1.693              1.477
 Vibration     5          0.704              1.641              1.326
 Vibration     6          0.748              1.518              1.048
 Vibration     7          0.759              1.489              0.995
 Vibration     8          0.779              1.436              0.907
 Vibration     9          0.830              1.310              0.729
 Vibration    10          0.896              1.159              0.563
 Vibration    11          0.914              1.120              0.526
 Vibration    12          0.972              1.005              0.428

 Normal termination of Gaussian 09 at Fri Aug 26 14:39:21 2022.

 -----------------------------------------------------------------
 #P Geom=AllCheck Guess=TCheck SCRF=Check CCSD(T,E4T,FrzG4)/GTBas1
 -----------------------------------------------------------------

 Structure from the checkpoint file:  "G4.Frag_1108.chk"
 ---------
 Frag_1108
 ---------
 Charge =  0 Multiplicity = 1

 SCF Done:  E(RHF) =  -392.890553742     A.U. after   13 cycles
 E2 =    -0.1103170292D+01 EUMP2 =    -0.39399372403397D+03
 CCSD(T)
 CCSD(T)= -0.39406583796D+03
 SDQ=-394.0341376\CCSD=-394.0325802\CCSD(T)=-394.065838\RMSD=8.103e-09\
 Normal termination of Gaussian 09 at Fri Aug 26 14:43:13 2022.

 ---------------------------------------------------------
 #P Geom=AllCheck Guess=TCheck SCRF=Check MP4=FrzG4/GTBas2
 ---------------------------------------------------------

 Structure from the checkpoint file:  "G4.Frag_1108.chk"
 ---------
 Frag_1108
 ---------
 Charge =  0 Multiplicity = 1

 SCF Done:  E(RHF) =  -392.906464668     A.U. after   12 cycles
 E2 =    -0.1124107602D+01 EUMP2 =    -0.39403057226953D+03
 Normal termination of Gaussian 09 at Fri Aug 26 14:44:28 2022.

 ---------------------------------------------------------
 #P Geom=AllCheck Guess=TCheck SCRF=Check MP4=FrzG4/GTBas3
 ---------------------------------------------------------

 Structure from the checkpoint file:  "G4.Frag_1108.chk"
 ---------
 Frag_1108
 ---------
 Charge =  0 Multiplicity = 1

 SCF Done:  E(RHF) =  -392.945887770     A.U. after   12 cycles
 E2 =    -0.1346820999D+01 EUMP2 =    -0.39429270876887D+03
 Normal termination of Gaussian 09 at Fri Aug 26 14:51:38 2022.

 -----------------------------------------------------------
 #P Geom=AllCheck Guess=TCheck SCRF=Check MP2=Full/GTLargeXP
 -----------------------------------------------------------

 Structure from the checkpoint file:  "G4.Frag_1108.chk"
 ---------
 Frag_1108
 ---------
 Charge =  0 Multiplicity = 1

 SCF Done:  E(RHF) =  -393.057147708     A.U. after   13 cycles
 E2 =    -0.1754115401D+01 EUMP2 =    -0.39481126310976D+03
 Normal termination of Gaussian 09 at Fri Aug 26 14:54:59 2022.
 SCF Done:  E(RHF) =  -393.087657681     A.U. after    9 cycles
 Normal termination of Gaussian 09 at Fri Aug 26 14:57:47 2022.

                         Standard orientation:
 ---------------------------------------------------------------------
 Center     Atomic      Atomic             Coordinates (Angstroms)
 Number     Number       Type             X           Y           Z
 ---------------------------------------------------------------------
      1          7           0       -1.604548   -1.087818    0.082055
      2          6           0       -0.962756    0.088020   -0.001731
      3          8           0       -1.490826    1.190462   -0.061367
      4          6           0        0.590303   -0.003103   -0.007634
      5          7           0        1.028122    0.345657    1.332582
      6          7           0        1.064962   -1.338584   -0.324691
      7          8           0        1.036834    0.889825   -1.014790
      8          1           0       -1.048130   -1.928686    0.052297
      9          1           0       -2.610223   -1.114453    0.082201
     10          1           0        0.500549    1.155755    1.647044
     11          1           0        2.001089    0.639772    1.273817
     12          1           0        1.389581   -1.355305   -1.285143
     13          1           0        1.831050   -1.589999    0.288111
     14          1           0        0.382981    1.606333   -1.022505
 ---------------------------------------------------------------------

 SCF Done:  E(RHF) =  -393.094314606     A.U. after    8 cycles

 The electronic state is 1-A.
 Alpha  occ. eigenvalues --  -20.56535 -20.52919 -15.58852 -15.56057 -15.55999
 Alpha  occ. eigenvalues --  -11.36346 -11.35709  -1.41323  -1.37130  -1.23812
 Alpha  occ. eigenvalues --   -1.20960  -1.15152  -0.91641  -0.79409  -0.76141
 Alpha  occ. eigenvalues --   -0.72064  -0.71236  -0.65417  -0.65032  -0.62001
 Alpha  occ. eigenvalues --   -0.60551  -0.56548  -0.54385  -0.51565  -0.46915
 Alpha  occ. eigenvalues --   -0.43388  -0.42215  -0.40940
 Alpha virt. eigenvalues --    0.03577   0.04293   0.04992   0.05507   0.06818
 Alpha virt. eigenvalues --    0.07240   0.07415   0.09099   0.09606   0.11330
 Alpha virt. eigenvalues --    0.11581   0.12657   0.13069   0.13237   0.13714

 Mulliken charges:
               1
     1  N   -0.737343
     2  C    0.586455
     3  O   -0.668186
     4  C    0.600727
     5  N   -0.776237
     6  N   -0.797295
     7  O   -0.617074
     8  H    0.376285
     9  H    0.362658
    10  H    0.318072
    11  H    0.307559
    12  H    0.327525
    13  H    0.314160
    14  H    0.402694
 Sum of Mulliken charges =  -0.00000

 Dipole moment (field-independent basis, Debye):
    X=              1.0177    Y=             -2.2245    Z=              0.2145  Tot=              2.4556
 Quadrupole moment (field-independent basis, Debye-Ang):
   XX=            -37.9734   YY=            -40.2003   ZZ=            -43.8915
   XY=              4.7120   XZ=              1.3343   YZ=              2.8994

 Normal termination of Gaussian 09 at Fri Aug 26 15:07:47 2022.
