 Gaussian 09, Revision E.01,
 Gaussian 09:  ES64L-G09RevE.01 30-Nov-2015

 -----
 #P G4
 -----

 --------
 Frag_809
 --------
 Symbolic Z-matrix:
 Charge =  0 Multiplicity = 1

 SCF Done:  E(RB3LYP) =  -305.072553357     A.U. after   12 cycles
 SCF Done:  E(RB3LYP) =  -305.077800045     A.U. after   10 cycles
 SCF Done:  E(RB3LYP) =  -305.078133598     A.U. after   10 cycles
 SCF Done:  E(RB3LYP) =  -305.078213696     A.U. after    9 cycles
 SCF Done:  E(RB3LYP) =  -305.078233657     A.U. after    9 cycles
 SCF Done:  E(RB3LYP) =  -305.078242492     A.U. after    9 cycles
 SCF Done:  E(RB3LYP) =  -305.078256140     A.U. after   10 cycles
 SCF Done:  E(RB3LYP) =  -305.078272027     A.U. after   10 cycles
 SCF Done:  E(RB3LYP) =  -305.078302522     A.U. after    9 cycles
 SCF Done:  E(RB3LYP) =  -305.072297236     A.U. after   13 cycles
 SCF Done:  E(RB3LYP) =  -305.078403432     A.U. after    9 cycles
 SCF Done:  E(RB3LYP) =  -305.078405657     A.U. after    7 cycles
 SCF Done:  E(RB3LYP) =  -305.078405751     A.U. after    6 cycles
 Optimization completed.
    -- Stationary point found.
 Normal termination of Gaussian 09 at Mon Aug 22 03:07:56 2022.

 ----------------------------------------------------------
 #P Geom=AllCheck Guess=TCheck SCRF=Check B3LYP/GTBas3 Freq
 ----------------------------------------------------------

 Structure from the checkpoint file:  "G4.Frag_809.chk"
 --------
 Frag_809
 --------
 Charge =  0 Multiplicity = 1

 SCF Done:  E(RB3LYP) =  -305.078405751     A.U. after    1 cycles

  Exact polarizability:  57.123   0.583  53.101   1.222   0.506  48.121
 Approx polarizability:  73.988   0.412  73.557   0.307   1.510  69.710

                      1                      2                      3
                      A                      A                      A
 Frequencies --     68.4079               190.4550               206.3043
 Red. masses --      1.6563                 1.0943                 1.2556
 Frc consts  --      0.0046                 0.0234                 0.0315
 IR Inten    --      0.4268                 6.3880                13.0850

                      4                      5                      6
                      A                      A                      A
 Frequencies --    228.1623               269.6484               327.3526
 Red. masses --      1.2680                 2.1988                 1.1591
 Frc consts  --      0.0389                 0.0942                 0.0732
 IR Inten    --     52.2550                23.8434                24.3033

                      7                      8                      9
                      A                      A                      A
 Frequencies --    368.0004               389.9693               476.1104
 Red. masses --      2.5101                 2.2105                 3.2513
 Frc consts  --      0.2003                 0.1981                 0.4342
 IR Inten    --     19.1735                 7.5599                 2.1121

                     10                     11                     12
                      A                      A                      A
 Frequencies --    520.7261               542.4562               669.7867
 Red. masses --      2.4702                 3.2678                 1.5029
 Frc consts  --      0.3946                 0.5665                 0.3972
 IR Inten    --     16.0860                13.9524               105.7351

                     13                     14                     15
                      A                      A                      A
 Frequencies --    775.6121               824.3634               923.2447
 Red. masses --      3.3370                 1.5630                 2.1749
 Frc consts  --      1.1828                 0.6258                 1.0923
 IR Inten    --      9.9107               115.3383                69.9370

                     16                     17                     18
                      A                      A                      A
 Frequencies --    958.5794              1010.9977              1113.2281
 Red. masses --      1.6075                 1.6747                 3.4598
 Frc consts  --      0.8703                 1.0085                 2.5262
 IR Inten    --     10.8431                44.7010                12.6312

                     19                     20                     21
                      A                      A                      A
 Frequencies --   1123.3403              1133.2300              1157.3509
 Red. masses --      1.4685                 1.6680                 1.5345
 Frc consts  --      1.0918                 1.2621                 1.2110
 IR Inten    --     45.2585                23.8869                48.3431

                     22                     23                     24
                      A                      A                      A
 Frequencies --   1211.9381              1285.9662              1376.0652
 Red. masses --      2.2024                 1.8087                 1.4518
 Frc consts  --      1.9060                 1.7623                 1.6197
 IR Inten    --     86.1429                52.1008                51.4564

                     25                     26                     27
                      A                      A                      A
 Frequencies --   1409.0221              1456.8348              1481.7628
 Red. masses --      1.4025                 1.1602                 1.0667
 Frc consts  --      1.6406                 1.4508                 1.3799
 IR Inten    --     41.5756                 4.2401                 2.5975

                     28                     29                     30
                      A                      A                      A
 Frequencies --   1485.8470              1489.1170              1497.9921
 Red. masses --      1.0935                 1.1163                 1.2223
 Frc consts  --      1.4223                 1.4585                 1.6160
 IR Inten    --      1.5815                 6.9342                 5.6002

                     31                     32                     33
                      A                      A                      A
 Frequencies --   1522.9797              1643.0934              2994.9017
 Red. masses --      1.1054                 1.1081                 1.0487
 Frc consts  --      1.5106                 1.7626                 5.5421
 IR Inten    --     10.7960                28.0983                62.2514

                     34                     35                     36
                      A                      A                      A
 Frequencies --   3058.4496              3070.6671              3104.3789
 Red. masses --      1.0378                 1.0832                 1.1020
 Frc consts  --      5.7194                 6.0175                 6.2574
 IR Inten    --     10.8951                34.7374                30.3006

                     37                     38                     39
                      A                      A                      A
 Frequencies --   3132.3144              3154.7656              3478.5114
 Red. masses --      1.0995                 1.1032                 1.0484
 Frc consts  --      6.3558                 6.4689                 7.4744
 IR Inten    --     21.2743                13.8861                 0.8829

                     40                     41                     42
                      A                      A                      A
 Frequencies --   3531.1663              3571.1654              3802.8858
 Red. masses --      1.0742                 1.0930                 1.0658
 Frc consts  --      7.8916                 8.2129                 9.0817
 IR Inten    --      0.5114                 0.1150                 9.1636

 - Thermochemistry -
 -------------------
 Temperature   298.150 Kelvin.  Pressure   1.00000 Atm.
 Atom     1 has atomic number  6 and mass  12.00000

 Molecular mass:    90.07931 amu.
 Principal axes and moments of inertia in atomic units:
                           1         2         3
     Eigenvalues --   384.38740 660.46880 670.81185
           X            0.99963   0.01771   0.02059
           Y           -0.01646   0.99811  -0.05927
           Z           -0.02160   0.05890   0.99803
 This molecule is an asymmetric top.
 Rotational symmetry number  1.
 Rotational temperatures (Kelvin)      0.22533     0.13114     0.12912
 Rotational constants (GHZ):           4.69511     2.73252     2.69038
 Zero-point vibrational energy     371064.6 (Joules/Mol)
                                   88.68656 (Kcal/Mol)
 Warning -- explicit consideration of  11 degrees of freedom as
           vibrations may cause significant error
 Vibrational temperatures:     98.42   274.02   296.83   328.27   387.96
          (Kelvin)            470.99   529.47   561.08   685.02   749.21
                              780.47   963.67  1115.93  1186.07  1328.34
                             1379.18  1454.60  1601.68  1616.23  1630.46
                             1665.17  1743.71  1850.22  1979.85  2027.27
                             2096.06  2131.92  2137.80  2142.50  2155.27
                             2191.23  2364.04  4308.99  4400.42  4418.00
                             4466.50  4506.70  4539.00  5004.80  5080.55
                             5138.10  5471.50

 Zero-point correction=                           0.141331 (Hartree/Particle)
 Thermal correction to Energy=                    0.149335
 Thermal correction to Enthalpy=                  0.150279
 Thermal correction to Gibbs Free Energy=         0.109999
 Sum of electronic and zero-point Energies=           -304.937075
 Sum of electronic and thermal Energies=              -304.929071
 Sum of electronic and thermal Enthalpies=            -304.928127
 Sum of electronic and thermal Free Energies=         -304.968406

                     E (Thermal)             CV                S
                      KCal/Mol        Cal/Mol-Kelvin    Cal/Mol-Kelvin
 Total                   93.709             29.007             84.775
 Electronic               0.000              0.000              0.000
 Translational            0.889              2.981             39.407
 Rotational               0.889              2.981             26.635
 Vibrational             91.931             23.045             18.734
 Vibration     1          0.598              1.969              4.199
 Vibration     2          0.634              1.853              2.223
 Vibration     3          0.641              1.831              2.076
 Vibration     4          0.651              1.798              1.893
 Vibration     5          0.674              1.729              1.598
 Vibration     6          0.711              1.621              1.273
 Vibration     7          0.741              1.538              1.088
 Vibration     8          0.758              1.492              1.000
 Vibration     9          0.833              1.303              0.721
 Vibration    10          0.876              1.204              0.608
 Vibration    11          0.898              1.156              0.560

 Normal termination of Gaussian 09 at Mon Aug 22 03:11:01 2022.

 -----------------------------------------------------------------
 #P Geom=AllCheck Guess=TCheck SCRF=Check CCSD(T,E4T,FrzG4)/GTBas1
 -----------------------------------------------------------------

 Structure from the checkpoint file:  "G4.Frag_809.chk"
 --------
 Frag_809
 --------
 Charge =  0 Multiplicity = 1

 SCF Done:  E(RHF) =  -303.159913340     A.U. after   12 cycles
 E2 =    -0.9032610121D+00 EUMP2 =    -0.30406317435172D+03
 CCSD(T)
 CCSD(T)= -0.30414498479D+03
 4SDTQ=-304.1442549\MP4SDQ=-304.1184055\CCSD=-304.119222\CCSD(T)=-304.1
 Normal termination of Gaussian 09 at Mon Aug 22 03:17:39 2022.

 ---------------------------------------------------------
 #P Geom=AllCheck Guess=TCheck SCRF=Check MP4=FrzG4/GTBas2
 ---------------------------------------------------------

 Structure from the checkpoint file:  "G4.Frag_809.chk"
 --------
 Frag_809
 --------
 Charge =  0 Multiplicity = 1

 SCF Done:  E(RHF) =  -303.170878895     A.U. after   12 cycles
 E2 =    -0.9192651631D+00 EUMP2 =    -0.30409014405796D+03
 Normal termination of Gaussian 09 at Mon Aug 22 03:27:20 2022.

 ---------------------------------------------------------
 #P Geom=AllCheck Guess=TCheck SCRF=Check MP4=FrzG4/GTBas3
 ---------------------------------------------------------

 Structure from the checkpoint file:  "G4.Frag_809.chk"
 --------
 Frag_809
 --------
 Charge =  0 Multiplicity = 1

 SCF Done:  E(RHF) =  -303.205644045     A.U. after   11 cycles
 E2 =    -0.1119963027D+01 EUMP2 =    -0.30432560707200D+03
 Normal termination of Gaussian 09 at Mon Aug 22 07:08:11 2022.

 -----------------------------------------------------------
 #P Geom=AllCheck Guess=TCheck SCRF=Check MP2=Full/GTLargeXP
 -----------------------------------------------------------

 Structure from the checkpoint file:  "G4.Frag_809.chk"
 --------
 Frag_809
 --------
 Charge =  0 Multiplicity = 1

 SCF Done:  E(RHF) =  -303.285786800     A.U. after   11 cycles
 E2 =    -0.1461914618D+01 EUMP2 =    -0.30474770141719D+03
 Normal termination of Gaussian 09 at Mon Aug 22 07:15:35 2022.
 SCF Done:  E(RHF) =  -303.309638086     A.U. after    9 cycles
 Normal termination of Gaussian 09 at Mon Aug 22 07:22:46 2022.

                         Standard orientation:
 ---------------------------------------------------------------------
 Center     Atomic      Atomic             Coordinates (Angstroms)
 Number     Number       Type             X           Y           Z
 ---------------------------------------------------------------------
      1          6           0       -2.082558    0.069326    0.018691
      2          7           0       -0.853692   -0.212694   -0.715722
      3          6           0        0.416430   -0.018269   -0.022959
      4          6           0        0.757172    1.469413    0.071667
      5          7           0        0.383632   -0.589335    1.319671
      6          8           0        1.436062   -0.589374   -0.841791
      7          1           0       -2.125031    1.131924    0.276925
      8          1           0       -2.208289   -0.499761    0.951260
      9          1           0       -2.933471   -0.139076   -0.637028
     10          1           0       -0.871114   -1.146047   -1.111163
     11          1           0        0.865300    1.873933   -0.935588
     12          1           0        1.698523    1.605874    0.611134
     13          1           0       -0.027216    2.013734    0.600034
     14          1           0        1.299804   -0.520705    1.752551
     15          1           0        0.127625   -1.572832    1.284015
     16          1           0        1.429528   -1.540663   -0.689855
 ---------------------------------------------------------------------

 SCF Done:  E(RHF) =  -303.315018513     A.U. after    8 cycles

 The electronic state is 1-A.
 Alpha  occ. eigenvalues --  -20.55661 -15.54856 -15.54053 -11.34129 -11.24031
 Alpha  occ. eigenvalues --  -11.20705  -1.38085  -1.21352  -1.14819  -0.98599
 Alpha  occ. eigenvalues --   -0.90998  -0.78958  -0.71325  -0.67815  -0.66105
 Alpha  occ. eigenvalues --   -0.61222  -0.58905  -0.56202  -0.54519  -0.52842
 Alpha  occ. eigenvalues --   -0.51777  -0.50788  -0.47209  -0.41525  -0.37749
 Alpha virt. eigenvalues --    0.03243   0.04154   0.04404   0.05398   0.06539
 Alpha virt. eigenvalues --    0.06963   0.07242   0.07725   0.08543   0.09907
 Alpha virt. eigenvalues --    0.11178   0.12056   0.13313   0.13367   0.14386

 Mulliken charges:
               1
     1  C   -0.442970
     2  N   -0.421646
     3  C    0.496062
     4  C   -0.523434
     5  N   -0.745950
     6  O   -0.593729
     7  H    0.168031
     8  H    0.160051
     9  H    0.174987
    10  H    0.267784
    11  H    0.192737
    12  H    0.155059
    13  H    0.173784
    14  H    0.307567
    15  H    0.279451
    16  H    0.352215
 Sum of Mulliken charges =  -0.00000

 Dipole moment (field-independent basis, Debye):
    X=             -0.2921    Y=             -2.1006    Z=              1.2425  Tot=              2.4580
 Quadrupole moment (field-independent basis, Debye-Ang):
   XX=            -38.6240   YY=            -32.1836   ZZ=            -42.8430
   XY=             -0.6594   XZ=              3.4005   YZ=              0.5072

 Normal termination of Gaussian 09 at Mon Aug 22 10:36:19 2022.
