 Gaussian 09, Revision E.01,
 Gaussian 09:  ES64L-G09RevE.01 30-Nov-2015

 -----
 #P G4
 -----

 --------
 Frag_594
 --------
 Symbolic Z-matrix:
 Charge =  0 Multiplicity = 1

 SCF Done:  E(RB3LYP) =  -328.355003337     A.U. after   12 cycles
 SCF Done:  E(RB3LYP) =  -328.361132645     A.U. after   10 cycles
 SCF Done:  E(RB3LYP) =  -328.362400310     A.U. after   11 cycles
 SCF Done:  E(RB3LYP) =  -328.362645130     A.U. after   10 cycles
 SCF Done:  E(RB3LYP) =  -328.362770441     A.U. after   10 cycles
 SCF Done:  E(RB3LYP) =  -328.362804003     A.U. after    9 cycles
 SCF Done:  E(RB3LYP) =  -328.362842531     A.U. after    9 cycles
 SCF Done:  E(RB3LYP) =  -328.362881945     A.U. after   10 cycles
 SCF Done:  E(RB3LYP) =  -328.362908178     A.U. after    9 cycles
 SCF Done:  E(RB3LYP) =  -328.362928141     A.U. after   10 cycles
 SCF Done:  E(RB3LYP) =  -328.365432352     A.U. after    9 cycles
 SCF Done:  E(RB3LYP) =  -328.365434015     A.U. after    7 cycles
 SCF Done:  E(RB3LYP) =  -328.365434073     A.U. after    6 cycles
 Optimization completed.
    -- Stationary point found.
 Normal termination of Gaussian 09 at Thu Aug 25 20:06:43 2022.

 ----------------------------------------------------------
 #P Geom=AllCheck Guess=TCheck SCRF=Check B3LYP/GTBas3 Freq
 ----------------------------------------------------------

 Structure from the checkpoint file:  "G4.Frag_594.chk"
 --------
 Frag_594
 --------
 Charge =  0 Multiplicity = 1

 SCF Done:  E(RB3LYP) =  -328.365434073     A.U. after    1 cycles

  Exact polarizability:  72.416  -0.460  68.034   1.252  -0.018  59.684
 Approx polarizability:  94.708  -2.265  92.237   0.633  -0.470  92.059

                      1                      2                      3
                      A                      A                      A
 Frequencies --    105.8965               198.7533               221.8520
 Red. masses --      2.9046                 1.0638                 1.4149
 Frc consts  --      0.0192                 0.0248                 0.0410
 IR Inten    --      2.2228                 0.7638                 1.2009

                      4                      5                      6
                      A                      A                      A
 Frequencies --    238.5559               277.2590               292.6006
 Red. masses --      1.1724                 1.1708                 1.6309
 Frc consts  --      0.0393                 0.0530                 0.0823
 IR Inten    --      2.7870                10.4348                 1.3187

                      7                      8                      9
                      A                      A                      A
 Frequencies --    303.1515               364.5739               381.6193
 Red. masses --      2.6027                 2.8093                 2.1862
 Frc consts  --      0.1409                 0.2200                 0.1876
 IR Inten    --      1.8580                 7.9190                 0.8888

                     10                     11                     12
                      A                      A                      A
 Frequencies --    382.8066               452.7195               501.0154
 Red. masses --      2.3578                 2.1710                 3.1298
 Frc consts  --      0.2036                 0.2622                 0.4629
 IR Inten    --      3.8372                 0.7639                 4.1165

                     13                     14                     15
                      A                      A                      A
 Frequencies --    583.4744               610.4965               726.3264
 Red. masses --      1.5952                 1.6386                 2.5128
 Frc consts  --      0.3200                 0.3598                 0.7810
 IR Inten    --     52.9145                71.7048                 6.4848

                     16                     17                     18
                      A                      A                      A
 Frequencies --    857.0511               873.5444               924.8412
 Red. masses --      2.0700                 1.7098                 1.5339
 Frc consts  --      0.8959                 0.7687                 0.7730
 IR Inten    --     28.0537                60.9515                 1.6174

                     19                     20                     21
                      A                      A                      A
 Frequencies --    947.7171               969.4971              1005.2160
 Red. masses --      1.6530                 2.1129                 1.4451
 Frc consts  --      0.8748                 1.1701                 0.8603
 IR Inten    --      8.7851                36.8405                 0.5287

                     22                     23                     24
                      A                      A                      A
 Frequencies --   1012.1450              1048.5205              1107.7596
 Red. masses --      1.3644                 1.4728                 2.2654
 Frc consts  --      0.8235                 0.9540                 1.6379
 IR Inten    --      1.5437                 3.7274                25.2067

                     25                     26                     27
                      A                      A                      A
 Frequencies --   1173.7400              1206.5199              1222.6511
 Red. masses --      1.7703                 2.4432                 2.1818
 Frc consts  --      1.4370                 2.0954                 1.9216
 IR Inten    --     38.1387                30.2636                 4.5252

                     28                     29                     30
                      A                      A                      A
 Frequencies --   1273.4543              1348.9648              1376.0439
 Red. masses --      1.5832                 1.3823                 1.3328
 Frc consts  --      1.5127                 1.4820                 1.4869
 IR Inten    --     11.1394                37.3421                11.2666

                     31                     32                     33
                      A                      A                      A
 Frequencies --   1392.0641              1407.3222              1408.9488
 Red. masses --      1.2939                 1.3488                 1.2828
 Frc consts  --      1.4774                 1.5740                 1.5004
 IR Inten    --      6.3010                18.6299                 8.5735

                     34                     35                     36
                      A                      A                      A
 Frequencies --   1427.7830              1475.5839              1488.8743
 Red. masses --      1.4580                 1.0540                 1.0500
 Frc consts  --      1.7512                 1.3521                 1.3714
 IR Inten    --     54.9755                 1.6767                 0.1533

                     37                     38                     39
                      A                      A                      A
 Frequencies --   1496.2623              1499.9239              1505.6647
 Red. masses --      1.0750                 1.0556                 1.0719
 Frc consts  --      1.4180                 1.3992                 1.4317
 IR Inten    --      1.0165                 3.6618                14.8757

                     40                     41                     42
                      A                      A                      A
 Frequencies --   1518.6789              1656.1584              2962.1782
 Red. masses --      1.0555                 1.0905                 1.0829
 Frc consts  --      1.4343                 1.7622                 5.5985
 IR Inten    --      0.7967                38.7609                50.3853

                     43                     44                     45
                      A                      A                      A
 Frequencies --   3029.3841              3038.2727              3043.0342
 Red. masses --      1.0365                 1.0402                 1.0375
 Frc consts  --      5.6043                 5.6574                 5.6603
 IR Inten    --     22.0391                27.7606                14.0684

                     46                     47                     48
                      A                      A                      A
 Frequencies --   3098.8679              3106.3041              3107.6533
 Red. masses --      1.1003                 1.0958                 1.1009
 Frc consts  --      6.2256                 6.2298                 6.2643
 IR Inten    --     26.7254                18.4432                 9.1427

                     49                     50                     51
                      A                      A                      A
 Frequencies --   3115.0065              3130.4686              3138.4705
 Red. masses --      1.1001                 1.1007                 1.1004
 Frc consts  --      6.2892                 6.3554                 6.3861
 IR Inten    --     43.8726                26.3725                14.5118

                     52                     53                     54
                      A                      A                      A
 Frequencies --   3512.7296              3590.0760              3681.9903
 Red. masses --      1.0494                 1.0930                 1.0644
 Frc consts  --      7.6290                 8.2998                 8.5020
 IR Inten    --      0.2353                 0.9413                69.0986

 - Thermochemistry -
 -------------------
 Temperature   298.150 Kelvin.  Pressure   1.00000 Atm.
 Atom     1 has atomic number  6 and mass  12.00000

 Molecular mass:   103.09971 amu.
 Principal axes and moments of inertia in atomic units:
                           1         2         3
     Eigenvalues --   565.71574 781.29484 967.89401
           X            0.99929   0.02825   0.02489
           Y           -0.02849   0.99955   0.00926
           Z           -0.02462  -0.00996   0.99965
 This molecule is an asymmetric top.
 Rotational symmetry number  1.
 Warning -- assumption of classical behavior for rotation
           may cause significant error
 Rotational temperatures (Kelvin)      0.15310     0.11086     0.08949
 Rotational constants (GHZ):           3.19019     2.30994     1.86461
 Zero-point vibrational energy     477432.4 (Joules/Mol)
                                  114.10909 (Kcal/Mol)
 Warning -- explicit consideration of  14 degrees of freedom as
           vibrations may cause significant error
 Vibrational temperatures:    152.36   285.96   319.20   343.23   398.91
          (Kelvin)            420.99   436.17   524.54   549.06   550.77
                              651.36   720.85   839.49   878.37  1045.02
                             1233.10  1256.83  1330.64  1363.55  1394.89
                             1446.28  1456.25  1508.59  1593.82  1688.75
                             1735.91  1759.12  1832.21  1940.86  1979.82
                             2002.87  2024.82  2027.16  2054.26  2123.03
                             2142.16  2152.78  2158.05  2166.31  2185.04
                             2382.84  4261.91  4358.60  4371.39  4378.24
                             4458.57  4469.27  4471.21  4481.79  4504.04
                             4515.55  5054.03  5165.31  5297.56

 Zero-point correction=                           0.181844 (Hartree/Particle)
 Thermal correction to Energy=                    0.190725
 Thermal correction to Enthalpy=                  0.191669
 Thermal correction to Gibbs Free Energy=         0.149792
 Sum of electronic and zero-point Energies=           -328.183590
 Sum of electronic and thermal Energies=              -328.174710
 Sum of electronic and thermal Enthalpies=            -328.173765
 Sum of electronic and thermal Free Energies=         -328.215642

                     E (Thermal)             CV                S
                      KCal/Mol        Cal/Mol-Kelvin    Cal/Mol-Kelvin
 Total                  119.681             34.105             88.136
 Electronic               0.000              0.000              0.000
 Translational            0.889              2.981             39.809
 Rotational               0.889              2.981             27.550
 Vibrational            117.904             28.143             20.777
 Vibration     1          0.605              1.945              3.343
 Vibration     2          0.637              1.842              2.145
 Vibration     3          0.648              1.808              1.944
 Vibration     4          0.657              1.782              1.814
 Vibration     5          0.678              1.716              1.551
 Vibration     6          0.688              1.688              1.459
 Vibration     7          0.695              1.668              1.399
 Vibration     8          0.738              1.545              1.103
 Vibration     9          0.751              1.509              1.033
 Vibration    10          0.752              1.507              1.028
 Vibration    11          0.811              1.355              0.788
 Vibration    12          0.856              1.248              0.656
 Vibration    13          0.940              1.067              0.479
 Vibration    14          0.970              1.010              0.432

 Optimization completed.
    -- Stationary point found.
 Normal termination of Gaussian 09 at Thu Aug 25 20:15:18 2022.

 -----------------------------------------------------------------
 #P Geom=AllCheck Guess=TCheck SCRF=Check CCSD(T,E4T,FrzG4)/GTBas1
 -----------------------------------------------------------------

 Structure from the checkpoint file:  "G4.Frag_594.chk"
 --------
 Frag_594
 --------
 Charge =  0 Multiplicity = 1

 SCF Done:  E(RHF) =  -326.208156580     A.U. after   11 cycles
 E2 =    -0.1010115172D+01 EUMP2 =    -0.32721827175244D+03
 CCSD(T)
 CCSD(T)= -0.32732071929D+03
 85\CCSD=-327.290091\CCSD(T)=-327.3207193\RMSD=6.853e-09\PG=C01 [X(C5H1
 Normal termination of Gaussian 09 at Thu Aug 25 20:37:22 2022.

 ---------------------------------------------------------
 #P Geom=AllCheck Guess=TCheck SCRF=Check MP4=FrzG4/GTBas2
 ---------------------------------------------------------

 Structure from the checkpoint file:  "G4.Frag_594.chk"
 --------
 Frag_594
 --------
 Charge =  0 Multiplicity = 1

 SCF Done:  E(RHF) =  -326.217143023     A.U. after   12 cycles
 E2 =    -0.1026001351D+01 EUMP2 =    -0.32724314437455D+03
 Normal termination of Gaussian 09 at Thu Aug 25 21:05:54 2022.

 ---------------------------------------------------------
 #P Geom=AllCheck Guess=TCheck SCRF=Check MP4=FrzG4/GTBas3
 ---------------------------------------------------------

 Structure from the checkpoint file:  "G4.Frag_594.chk"
 --------
 Frag_594
 --------
 Charge =  0 Multiplicity = 1

 SCF Done:  E(RHF) =  -326.254445647     A.U. after   10 cycles
 E2 =    -0.1259601382D+01 EUMP2 =    -0.32751404702907D+03
 Normal termination of Gaussian 09 at Fri Aug 26 04:00:04 2022.

 -----------------------------------------------------------
 #P Geom=AllCheck Guess=TCheck SCRF=Check MP2=Full/GTLargeXP
 -----------------------------------------------------------

 Structure from the checkpoint file:  "G4.Frag_594.chk"
 --------
 Frag_594
 --------
 Charge =  0 Multiplicity = 1

 SCF Done:  E(RHF) =  -326.333766857     A.U. after   11 cycles
 E2 =    -0.1648364022D+01 EUMP2 =    -0.32798213087960D+03
 Normal termination of Gaussian 09 at Fri Aug 26 04:17:33 2022.
 SCF Done:  E(RHF) =  -326.359662908     A.U. after    8 cycles
 Normal termination of Gaussian 09 at Fri Aug 26 04:29:46 2022.

                         Standard orientation:
 ---------------------------------------------------------------------
 Center     Atomic      Atomic             Coordinates (Angstroms)
 Number     Number       Type             X           Y           Z
 ---------------------------------------------------------------------
      1          6           0        1.667018    1.161308   -0.087411
      2          6           0        0.817682   -0.038197   -0.511890
      3          7           0        1.430782   -1.259739    0.047513
      4          6           0       -0.642890    0.030049    0.034625
      5          6           0       -1.478519   -1.131192   -0.538466
      6          6           0       -1.324130    1.359357   -0.295533
      7          8           0       -0.594342   -0.070764    1.453319
      8          1           0        2.711149    1.017295   -0.387549
      9          1           0        1.629618    1.285674    0.998245
     10          1           0        1.318816    2.084221   -0.555299
     11          1           0        0.768969   -0.065208   -1.612565
     12          1           0        2.441848   -1.203070   -0.006158
     13          1           0        1.156322   -2.080341   -0.481104
     14          1           0       -1.553732   -1.076065   -1.630566
     15          1           0       -1.051457   -2.102236   -0.269323
     16          1           0       -2.488522   -1.094639   -0.121157
     17          1           0       -2.365319    1.334541    0.038750
     18          1           0       -0.831238    2.189919    0.213454
     19          1           0       -1.317134    1.550063   -1.373954
     20          1           0        0.084982   -0.743815    1.620131
 ---------------------------------------------------------------------

 SCF Done:  E(RHF) =  -326.365313764     A.U. after    8 cycles

 The electronic state is 1-A.
 Alpha  occ. eigenvalues --  -20.53079 -15.55046 -11.27773 -11.25957 -11.21484
 Alpha  occ. eigenvalues --  -11.20969 -11.20705  -1.34754  -1.19046  -1.04667
 Alpha  occ. eigenvalues --   -0.98514  -0.93013  -0.85158  -0.75113  -0.68237
 Alpha  occ. eigenvalues --   -0.66643  -0.63537  -0.62215  -0.58316  -0.55868
 Alpha  occ. eigenvalues --   -0.53435  -0.52981  -0.52893  -0.51824  -0.50529
 Alpha  occ. eigenvalues --   -0.48839  -0.45308  -0.42564  -0.40101
 Alpha virt. eigenvalues --    0.02877   0.03895   0.04228   0.04920   0.06052
 Alpha virt. eigenvalues --    0.06844   0.06938   0.07224   0.07448   0.09247
 Alpha virt. eigenvalues --    0.09427   0.09782   0.10419   0.10729   0.11219

 Mulliken charges:
               1
     1  C   -0.591450
     2  C    0.045872
     3  N   -0.778941
     4  C    0.493316
     5  C   -0.614586
     6  C   -0.583680
     7  O   -0.661621
     8  H    0.154332
     9  H    0.191585
    10  H    0.174423
    11  H    0.152975
    12  H    0.298364
    13  H    0.299825
    14  H    0.166730
    15  H    0.160734
    16  H    0.178290
    17  H    0.175464
    18  H    0.171044
    19  H    0.165674
    20  H    0.401649
 Sum of Mulliken charges =  -0.00000

 Dipole moment (field-independent basis, Debye):
    X=              1.5584    Y=             -0.7212    Z=             -2.4640  Tot=              3.0033
 Quadrupole moment (field-independent basis, Debye-Ang):
   XX=            -43.8906   YY=            -44.2315   ZZ=            -49.1895
   XY=             -1.1647   XZ=              1.0682   YZ=              0.3817

 Normal termination of Gaussian 09 at Fri Aug 26 10:26:58 2022.
