 Gaussian 09, Revision E.01,
 Gaussian 09:  ES64L-G09RevE.01 30-Nov-2015

 -----
 #P G4
 -----

 --------
 Frag_683
 --------
 Symbolic Z-matrix:
 Charge =  0 Multiplicity = 1

 SCF Done:  E(RB3LYP) =  -343.152997191     A.U. after   13 cycles
 SCF Done:  E(RB3LYP) =  -343.165453985     A.U. after   12 cycles
 SCF Done:  E(RB3LYP) =  -343.166994051     A.U. after   12 cycles
 SCF Done:  E(RB3LYP) =  -343.168451677     A.U. after   11 cycles
 SCF Done:  E(RB3LYP) =  -343.169823397     A.U. after   11 cycles
 SCF Done:  E(RB3LYP) =  -343.170710731     A.U. after   11 cycles
 SCF Done:  E(RB3LYP) =  -343.171879620     A.U. after   12 cycles
 SCF Done:  E(RB3LYP) =  -343.173473839     A.U. after   12 cycles
 SCF Done:  E(RB3LYP) =  -343.175355212     A.U. after   14 cycles
 SCF Done:  E(RB3LYP) =  -343.176923956     A.U. after   11 cycles
 SCF Done:  E(RB3LYP) =  -343.180174776     A.U. after    9 cycles
 SCF Done:  E(RB3LYP) =  -343.180175598     A.U. after    8 cycles
 SCF Done:  E(RB3LYP) =  -343.180175672     A.U. after    7 cycles
 Optimization completed.
    -- Stationary point found.
 Normal termination of Gaussian 09 at Fri Aug 26 11:01:46 2022.

 ----------------------------------------------------------
 #P Geom=AllCheck Guess=TCheck SCRF=Check B3LYP/GTBas3 Freq
 ----------------------------------------------------------

 Structure from the checkpoint file:  "G4.Frag_683.chk"
 --------
 Frag_683
 --------
 Charge =  0 Multiplicity = 1

 SCF Done:  E(RB3LYP) =  -343.180175672     A.U. after    1 cycles

  Exact polarizability:  67.820  -4.007  70.840   0.244  -0.960  48.069
 Approx polarizability:  90.777  -7.590 111.724   2.032  -3.301  69.572

                      1                      2                      3
                      A                      A                      A
 Frequencies --     80.0719               217.6902               240.6002
 Red. masses --      3.8900                 1.1417                 1.2395
 Frc consts  --      0.0147                 0.0319                 0.0423
 IR Inten    --      2.7388                18.1008                 9.6582

                      4                      5                      6
                      A                      A                      A
 Frequencies --    257.1593               298.4655               348.7203
 Red. masses --      1.7729                 2.8622                 1.3121
 Frc consts  --      0.0691                 0.1502                 0.0940
 IR Inten    --     15.1645                15.6645                66.6476

                      7                      8                      9
                      A                      A                      A
 Frequencies --    362.7641               381.9033               420.2671
 Red. masses --      2.8237                 2.2275                 1.2268
 Frc consts  --      0.2189                 0.1914                 0.1277
 IR Inten    --      0.9775                 8.2194                24.3744

                     10                     11                     12
                      A                      A                      A
 Frequencies --    475.3316               509.2061               547.7479
 Red. masses --      2.4536                 2.4180                 2.8400
 Frc consts  --      0.3266                 0.3694                 0.5020
 IR Inten    --     13.6366                 7.1086                48.0043

                     13                     14                     15
                      A                      A                      A
 Frequencies --    638.6780               694.6078               716.0402
 Red. masses --      1.7286                 1.4402                 3.1238
 Frc consts  --      0.4154                 0.4094                 0.9437
 IR Inten    --    138.5155                47.0225                 3.1527

                     16                     17                     18
                      A                      A                      A
 Frequencies --    758.6891               817.2827               851.4211
 Red. masses --      1.4600                 1.5290                 1.5943
 Frc consts  --      0.4951                 0.6017                 0.6810
 IR Inten    --     41.1819                67.9023               140.9117

                     19                     20                     21
                      A                      A                      A
 Frequencies --    918.2840               980.7683               988.8025
 Red. masses --      2.3694                 1.4393                 1.5502
 Frc consts  --      1.1772                 0.8157                 0.8930
 IR Inten    --     35.0729                18.9511                 5.7165

                     22                     23                     24
                      A                      A                      A
 Frequencies --   1003.4909              1108.9546              1134.2864
 Red. masses --      2.0471                 1.7460                 1.4731
 Frc consts  --      1.2146                 1.2651                 1.1167
 IR Inten    --     33.0994               120.7636                22.2736

                     25                     26                     27
                      A                      A                      A
 Frequencies --   1223.7793              1311.8072              1318.7461
 Red. masses --      3.3806                 1.7895                 1.7296
 Frc consts  --      2.9829                 1.8144                 1.7722
 IR Inten    --     38.6300                43.9828                58.7720

                     28                     29                     30
                      A                      A                      A
 Frequencies --   1390.9199              1408.9555              1446.0610
 Red. masses --      1.4720                 1.8580                 1.1723
 Frc consts  --      1.6779                 2.1732                 1.4443
 IR Inten    --     22.4973                 1.7219                 1.3973

                     31                     32                     33
                      A                      A                      A
 Frequencies --   1481.7037              1495.3540              1636.9392
 Red. masses --      1.0516                 1.0802                 1.1470
 Frc consts  --      1.3603                 1.4231                 1.8109
 IR Inten    --      1.7085                 2.5012                49.1619

                     34                     35                     36
                      A                      A                      A
 Frequencies --   1654.2386              1713.3510              3040.8133
 Red. masses --      1.1119                 5.2977                 1.0362
 Frc consts  --      1.7927                 9.1628                 5.6449
 IR Inten    --     27.7111                93.4279                15.6816

                     37                     38                     39
                      A                      A                      A
 Frequencies --   3110.9229              3145.9723              3161.8524
 Red. masses --      1.1021                 1.1003                 1.0632
 Frc consts  --      6.2842                 6.4160                 6.2623
 IR Inten    --     23.6714                10.3786                 6.1882

                     40                     41                     42
                      A                      A                      A
 Frequencies --   3253.4405              3501.5376              3549.3957
 Red. masses --      1.1109                 1.0493                 1.0463
 Frc consts  --      6.9278                 7.5797                 7.7663
 IR Inten    --      9.8440                 0.5882                18.3376

                     43                     44                     45
                      A                      A                      A
 Frequencies --   3590.5532              3651.9896              3805.8193
 Red. masses --      1.0923                 1.0978                 1.0653
 Frc consts  --      8.2969                 8.6265                 9.0915
 IR Inten    --      2.9845                20.4398                29.4114

 - Thermochemistry -
 -------------------
 Temperature   298.150 Kelvin.  Pressure   1.00000 Atm.
 Atom     1 has atomic number  6 and mass  12.00000

 Molecular mass:   102.07931 amu.
 Principal axes and moments of inertia in atomic units:
                           1         2         3
     Eigenvalues --   537.03985 751.71888 911.23221
           X            0.99940  -0.01002  -0.03303
           Y            0.01076   0.99969   0.02243
           Z            0.03279  -0.02277   0.99920
 This molecule is an asymmetric top.
 Rotational symmetry number  1.
 Warning -- assumption of classical behavior for rotation
           may cause significant error
 Rotational temperatures (Kelvin)      0.16128     0.11522     0.09505
 Rotational constants (GHZ):           3.36053     2.40082     1.98055
 Zero-point vibrational energy     386665.3 (Joules/Mol)
                                   92.41522 (Kcal/Mol)
 Warning -- explicit consideration of  12 degrees of freedom as
           vibrations may cause significant error
 Vibrational temperatures:    115.21   313.21   346.17   369.99   429.42
          (Kelvin)            501.73   521.94   549.47   604.67   683.90
                              732.63   788.09   918.91   999.38  1030.22
                             1091.58  1175.89  1225.00  1321.20  1411.11
                             1422.66  1443.80  1595.54  1631.98  1760.74
                             1887.40  1897.38  2001.22  2027.17  2080.56
                             2131.84  2151.48  2355.19  2380.08  2465.13
                             4375.05  4475.92  4526.35  4549.19  4680.97
                             5037.93  5106.78  5166.00  5254.39  5475.72

 Zero-point correction=                           0.147273 (Hartree/Particle)
 Thermal correction to Energy=                    0.155666
 Thermal correction to Enthalpy=                  0.156611
 Thermal correction to Gibbs Free Energy=         0.115571
 Sum of electronic and zero-point Energies=           -343.032903
 Sum of electronic and thermal Energies=              -343.024509
 Sum of electronic and thermal Enthalpies=            -343.023565
 Sum of electronic and thermal Free Energies=         -343.064605

                     E (Thermal)             CV                S
                      KCal/Mol        Cal/Mol-Kelvin    Cal/Mol-Kelvin
 Total                   97.682             32.404             86.375
 Electronic               0.000              0.000              0.000
 Translational            0.889              2.981             39.779
 Rotational               0.889              2.981             27.400
 Vibrational             95.905             26.442             19.196
 Vibration     1          0.600              1.963              3.889
 Vibration     2          0.646              1.814              1.978
 Vibration     3          0.658              1.778              1.798
 Vibration     4          0.667              1.751              1.681
 Vibration     5          0.692              1.677              1.425
 Vibration     6          0.726              1.578              1.172
 Vibration     7          0.737              1.549              1.110
 Vibration     8          0.751              1.509              1.032
 Vibration     9          0.783              1.426              0.891
 Vibration    10          0.832              1.305              0.723
 Vibration    11          0.864              1.230              0.636
 Vibration    12          0.903              1.145              0.549

 Optimization completed.
    -- Stationary point found.
 Normal termination of Gaussian 09 at Fri Aug 26 11:02:38 2022.

 -----------------------------------------------------------------
 #P Geom=AllCheck Guess=TCheck SCRF=Check CCSD(T,E4T,FrzG4)/GTBas1
 -----------------------------------------------------------------

 Structure from the checkpoint file:  "G4.Frag_683.chk"
 --------
 Frag_683
 --------
 Charge =  0 Multiplicity = 1

 SCF Done:  E(RHF) =  -341.018750441     A.U. after   13 cycles
 E2 =    -0.1027254350D+01 EUMP2 =    -0.34204600479189D+03
 CCSD(T)
 CCSD(T)= -0.34213751894D+03
 2.1040755\CCSD=-342.1046451\CCSD(T)=-342.1375189\RMSD=2.176e-09\PG=C01
 Normal termination of Gaussian 09 at Fri Aug 26 11:06:50 2022.

 ---------------------------------------------------------
 #P Geom=AllCheck Guess=TCheck SCRF=Check MP4=FrzG4/GTBas2
 ---------------------------------------------------------

 Structure from the checkpoint file:  "G4.Frag_683.chk"
 --------
 Frag_683
 --------
 Charge =  0 Multiplicity = 1

 SCF Done:  E(RHF) =  -341.032175480     A.U. after   12 cycles
 E2 =    -0.1044807302D+01 EUMP2 =    -0.34207698278206D+03
 Normal termination of Gaussian 09 at Fri Aug 26 11:08:14 2022.

 ---------------------------------------------------------
 #P Geom=AllCheck Guess=TCheck SCRF=Check MP4=FrzG4/GTBas3
 ---------------------------------------------------------

 Structure from the checkpoint file:  "G4.Frag_683.chk"
 --------
 Frag_683
 --------
 Charge =  0 Multiplicity = 1

 SCF Done:  E(RHF) =  -341.069240130     A.U. after   11 cycles
 E2 =    -0.1262231590D+01 EUMP2 =    -0.34233147172006D+03
 Normal termination of Gaussian 09 at Fri Aug 26 11:19:48 2022.

 -----------------------------------------------------------
 #P Geom=AllCheck Guess=TCheck SCRF=Check MP2=Full/GTLargeXP
 -----------------------------------------------------------

 Structure from the checkpoint file:  "G4.Frag_683.chk"
 --------
 Frag_683
 --------
 Charge =  0 Multiplicity = 1

 SCF Done:  E(RHF) =  -341.158874720     A.U. after   12 cycles
 E2 =    -0.1653753636D+01 EUMP2 =    -0.34281262835590D+03
 Normal termination of Gaussian 09 at Fri Aug 26 11:23:56 2022.
 SCF Done:  E(RHF) =  -341.185676915     A.U. after    9 cycles
 Normal termination of Gaussian 09 at Fri Aug 26 11:27:43 2022.

                         Standard orientation:
 ---------------------------------------------------------------------
 Center     Atomic      Atomic             Coordinates (Angstroms)
 Number     Number       Type             X           Y           Z
 ---------------------------------------------------------------------
      1          6           0        1.586827   -1.288142    0.079895
      2          6           0        0.948161   -0.114549    0.003982
      3          7           0        1.576601    1.127987    0.055176
      4          6           0       -0.582503   -0.005516   -0.034604
      5          6           0       -1.120528    0.414319    1.342986
      6          7           0       -1.283903   -1.201612   -0.469441
      7          8           0       -0.846053    1.018099   -0.999326
      8          1           0        2.669198   -1.341038    0.128973
      9          1           0        1.046722   -2.222501    0.134046
     10          1           0        1.113954    1.824180   -0.513503
     11          1           0        2.573513    1.099682   -0.106420
     12          1           0       -0.662596    1.358129    1.642036
     13          1           0       -2.207033    0.537521    1.294065
     14          1           0       -0.884447   -0.338246    2.101796
     15          1           0       -0.768292   -1.651000   -1.220563
     16          1           0       -1.369133   -1.871636    0.286939
     17          1           0       -1.784094    0.938822   -1.206463
 ---------------------------------------------------------------------

 SCF Done:  E(RHF) =  -341.191472272     A.U. after    8 cycles

 The electronic state is 1-A.
 Alpha  occ. eigenvalues --  -20.55727 -15.55267 -15.54960 -11.32568 -11.27152
 Alpha  occ. eigenvalues --  -11.21799 -11.19930  -1.37840  -1.21167  -1.18117
 Alpha  occ. eigenvalues --   -1.00926  -0.97981  -0.85828  -0.74495  -0.71693
 Alpha  occ. eigenvalues --   -0.67603  -0.66414  -0.63905  -0.60872  -0.59045
 Alpha  occ. eigenvalues --   -0.55622  -0.54005  -0.52679  -0.50746  -0.48037
 Alpha  occ. eigenvalues --   -0.45674  -0.41535  -0.31910
 Alpha virt. eigenvalues --    0.03363   0.04291   0.04887   0.05106   0.06505
 Alpha virt. eigenvalues --    0.06855   0.07134   0.07312   0.07779   0.09623
 Alpha virt. eigenvalues --    0.09993   0.10174   0.11229   0.12082   0.12683

 Mulliken charges:
               1
     1  C   -0.560603
     2  C    0.277431
     3  N   -0.757393
     4  C    0.478008
     5  C   -0.563431
     6  N   -0.774196
     7  O   -0.627832
     8  H    0.161253
     9  H    0.167856
    10  H    0.345685
    11  H    0.304665
    12  H    0.200533
    13  H    0.173524
    14  H    0.174415
    15  H    0.307656
    16  H    0.302520
    17  H    0.389910
 Sum of Mulliken charges =  -0.00000

 Dipole moment (field-independent basis, Debye):
    X=             -0.0952    Y=             -0.5661    Z=              0.1609  Tot=              0.5962
 Quadrupole moment (field-independent basis, Debye-Ang):
   XX=            -40.8384   YY=            -41.8977   ZZ=            -46.2425
   XY=              0.8182   XZ=             -1.9884   YZ=             -1.3445

 Normal termination of Gaussian 09 at Fri Aug 26 11:40:14 2022.
