 Gaussian 09, Revision E.01,
 Gaussian 09:  ES64L-G09RevE.01 30-Nov-2015

 -----
 #P G4
 -----

 --------
 Frag_857
 --------
 Symbolic Z-matrix:
 Charge =  0 Multiplicity = 1

 SCF Done:  E(RB3LYP) =  -285.172570674     A.U. after   12 cycles
 SCF Done:  E(RB3LYP) =  -285.179572532     A.U. after   11 cycles
 SCF Done:  E(RB3LYP) =  -285.180407855     A.U. after   10 cycles
 SCF Done:  E(RB3LYP) =  -285.180883402     A.U. after   10 cycles
 SCF Done:  E(RB3LYP) =  -285.181065958     A.U. after   10 cycles
 SCF Done:  E(RB3LYP) =  -285.181153191     A.U. after   10 cycles
 SCF Done:  E(RB3LYP) =  -285.181176400     A.U. after    9 cycles
 SCF Done:  E(RB3LYP) =  -285.181186250     A.U. after    9 cycles
 SCF Done:  E(RB3LYP) =  -285.181188345     A.U. after    7 cycles
 SCF Done:  E(RB3LYP) =  -285.181188658     A.U. after    7 cycles
 SCF Done:  E(RB3LYP) =  -285.181188749     A.U. after    6 cycles
 Optimization completed.
    -- Stationary point found.
 Normal termination of Gaussian 09 at Fri Aug 26 13:30:47 2022.

 ----------------------------------------------------------
 #P Geom=AllCheck Guess=TCheck SCRF=Check B3LYP/GTBas3 Freq
 ----------------------------------------------------------

 Structure from the checkpoint file:  "G4.Frag_857.chk"
 --------
 Frag_857
 --------
 Charge =  0 Multiplicity = 1

 SCF Done:  E(RB3LYP) =  -285.181188749     A.U. after    1 cycles

  Exact polarizability:  62.023  -0.002  54.940   0.557   0.229  53.507
 Approx polarizability:  80.533   0.067  77.038   1.771   1.061  77.235

                      1                      2                      3
                      A                      A                      A
 Frequencies --    145.3450               167.9617               222.8966
 Red. masses --      1.4828                 1.3051                 1.2510
 Frc consts  --      0.0185                 0.0217                 0.0366
 IR Inten    --     11.8245                18.0929                 6.8087

                      4                      5                      6
                      A                      A                      A
 Frequencies --    248.4209               262.7829               311.8641
 Red. masses --      1.8329                 1.0542                 1.4628
 Frc consts  --      0.0666                 0.0429                 0.0838
 IR Inten    --     20.9165                 2.2447                34.3092

                      7                      8                      9
                      A                      A                      A
 Frequencies --    350.0042               388.8725               432.2067
 Red. masses --      2.2276                 2.5870                 2.3592
 Frc consts  --      0.1608                 0.2305                 0.2597
 IR Inten    --      1.5076                 6.6846                 0.9418

                     10                     11                     12
                      A                      A                      A
 Frequencies --    484.5230               569.7626               756.7884
 Red. masses --      2.4547                 3.0527                 4.1122
 Frc consts  --      0.3395                 0.5839                 1.3876
 IR Inten    --     15.0558                 9.5267                 8.8488

                     13                     14                     15
                      A                      A                      A
 Frequencies --    822.1473               860.5744               926.9078
 Red. masses --      2.3011                 1.4849                 1.4298
 Frc consts  --      0.9164                 0.6479                 0.7238
 IR Inten    --    110.0694                56.2809                40.1190

                     16                     17                     18
                      A                      A                      A
 Frequencies --    934.4316               948.0872              1000.1518
 Red. masses --      1.5427                 1.7937                 1.2939
 Frc consts  --      0.7936                 0.9499                 0.7626
 IR Inten    --      8.4068                12.0723                12.6806

                     19                     20                     21
                      A                      A                      A
 Frequencies --   1034.9872              1112.8391              1140.5889
 Red. masses --      1.4687                 1.4081                 2.1946
 Frc consts  --      0.9270                 1.0275                 1.6821
 IR Inten    --     29.5007                 5.2938                14.0248

                     22                     23                     24
                      A                      A                      A
 Frequencies --   1217.4109              1238.1479              1331.4357
 Red. masses --      2.4924                 2.7524                 1.2116
 Frc consts  --      2.1764                 2.4860                 1.2655
 IR Inten    --     38.7600                52.8264                 4.3219

                     25                     26                     27
                      A                      A                      A
 Frequencies --   1347.1474              1392.1066              1409.4026
 Red. masses --      1.8354                 1.3286                 1.2525
 Frc consts  --      1.9625                 1.5170                 1.4658
 IR Inten    --      4.4914                11.3090                 8.1864

                     28                     29                     30
                      A                      A                      A
 Frequencies --   1472.6757              1482.5133              1486.6644
 Red. masses --      1.0584                 1.0793                 1.0509
 Frc consts  --      1.3525                 1.3976                 1.3685
 IR Inten    --      2.1885                 3.5168                 0.6105

                     31                     32                     33
                      A                      A                      A
 Frequencies --   1508.5163              1516.8936              1641.0006
 Red. masses --      1.0777                 1.1734                 1.0915
 Frc consts  --      1.4450                 1.5908                 1.7317
 IR Inten    --      4.1286                 0.2654                19.5032

                     34                     35                     36
                      A                      A                      A
 Frequencies --   1652.3316              3021.6782              3045.6259
 Red. masses --      1.0963                 1.0406                 1.0401
 Frc consts  --      1.7635                 5.5981                 5.6844
 IR Inten    --     24.5497                23.6709                18.9100

                     37                     38                     39
                      A                      A                      A
 Frequencies --   3091.0877              3116.8209              3122.8037
 Red. masses --      1.0938                 1.0999                 1.0999
 Frc consts  --      6.1577                 6.2954                 6.3194
 IR Inten    --     31.2368                 0.9074                41.6118

                     40                     41                     42
                      A                      A                      A
 Frequencies --   3151.0882              3381.3551              3437.8559
 Red. masses --      1.1006                 1.0734                 1.0523
 Frc consts  --      6.4387                 7.2308                 7.3278
 IR Inten    --     10.5865                21.4192                 7.3464

                     43                     44                     45
                      A                      A                      A
 Frequencies --   3482.5346              3567.1467              3571.6214
 Red. masses --      1.0500                 1.0918                 1.0895
 Frc consts  --      7.5026                 8.1849                 8.1887
 IR Inten    --      1.0081                 0.3590                 0.7231

 - Thermochemistry -
 -------------------
 Temperature   298.150 Kelvin.  Pressure   1.00000 Atm.
 Atom     1 has atomic number  6 and mass  12.00000

 Molecular mass:    89.09530 amu.
 Principal axes and moments of inertia in atomic units:
                           1         2         3
     Eigenvalues --   399.30069 655.38208 665.71093
           X            0.99986  -0.00229  -0.01629
           Y           -0.00216   0.96352  -0.26764
           Z            0.01631   0.26763   0.96338
 This molecule is an asymmetric top.
 Rotational symmetry number  1.
 Rotational temperatures (Kelvin)      0.21691     0.13216     0.13011
 Rotational constants (GHZ):           4.51975     2.75372     2.71100
 Zero-point vibrational energy     405582.0 (Joules/Mol)
                                   96.93641 (Kcal/Mol)
 Warning -- explicit consideration of  11 degrees of freedom as
           vibrations may cause significant error
 Vibrational temperatures:    209.12   241.66   320.70   357.42   378.09
          (Kelvin)            448.70   503.58   559.50   621.85   697.12
                              819.76  1088.85  1182.89  1238.17  1333.61
                             1344.44  1364.08  1438.99  1489.11  1601.13
                             1641.05  1751.58  1781.42  1915.64  1938.24
                             2002.93  2027.81  2118.85  2133.00  2138.98
                             2170.42  2182.47  2361.03  2377.33  4347.52
                             4381.97  4447.38  4484.40  4493.01  4533.71
                             4865.01  4946.30  5010.58  5132.32  5138.76

 Zero-point correction=                           0.154478 (Hartree/Particle)
 Thermal correction to Energy=                    0.162414
 Thermal correction to Enthalpy=                  0.163358
 Thermal correction to Gibbs Free Energy=         0.123639
 Sum of electronic and zero-point Energies=           -285.026711
 Sum of electronic and thermal Energies=              -285.018775
 Sum of electronic and thermal Enthalpies=            -285.017831
 Sum of electronic and thermal Free Energies=         -285.057550

                     E (Thermal)             CV                S
                      KCal/Mol        Cal/Mol-Kelvin    Cal/Mol-Kelvin
 Total                  101.916             29.371             83.596
 Electronic               0.000              0.000              0.000
 Translational            0.889              2.981             39.374
 Rotational               0.889              2.981             26.657
 Vibrational            100.139             23.409             17.565
 Vibration     1          0.617              1.908              2.732
 Vibration     2          0.625              1.882              2.458
 Vibration     3          0.649              1.806              1.935
 Vibration     4          0.662              1.765              1.742
 Vibration     5          0.670              1.741              1.643
 Vibration     6          0.700              1.651              1.352
 Vibration     7          0.727              1.575              1.166
 Vibration     8          0.757              1.494              1.004
 Vibration     9          0.793              1.400              0.851
 Vibration    10          0.841              1.284              0.698
 Vibration    11          0.926              1.097              0.505

 Optimization completed.
    -- Stationary point found.
 Normal termination of Gaussian 09 at Fri Aug 26 13:31:28 2022.

 -----------------------------------------------------------------
 #P Geom=AllCheck Guess=TCheck SCRF=Check CCSD(T,E4T,FrzG4)/GTBas1
 -----------------------------------------------------------------

 Structure from the checkpoint file:  "G4.Frag_857.chk"
 --------
 Frag_857
 --------
 Charge =  0 Multiplicity = 1

 SCF Done:  E(RHF) =  -283.299049095     A.U. after   11 cycles
 E2 =    -0.8924303473D+00 EUMP2 =    -0.28419147944264D+03
 CCSD(T)
 CCSD(T)= -0.28428058073D+03
 2526182\CCSD=-284.2539472\CCSD(T)=-284.2805807\RMSD=8.525e-09\PG=C01 [
 Normal termination of Gaussian 09 at Fri Aug 26 13:33:58 2022.

 ---------------------------------------------------------
 #P Geom=AllCheck Guess=TCheck SCRF=Check MP4=FrzG4/GTBas2
 ---------------------------------------------------------

 Structure from the checkpoint file:  "G4.Frag_857.chk"
 --------
 Frag_857
 --------
 Charge =  0 Multiplicity = 1

 SCF Done:  E(RHF) =  -283.309411212     A.U. after   12 cycles
 E2 =    -0.9075120868D+00 EUMP2 =    -0.28421692329835D+03
 Normal termination of Gaussian 09 at Fri Aug 26 13:34:51 2022.

 ---------------------------------------------------------
 #P Geom=AllCheck Guess=TCheck SCRF=Check MP4=FrzG4/GTBas3
 ---------------------------------------------------------

 Structure from the checkpoint file:  "G4.Frag_857.chk"
 --------
 Frag_857
 --------
 Charge =  0 Multiplicity = 1

 SCF Done:  E(RHF) =  -283.342293156     A.U. after   10 cycles
 E2 =    -0.1102777028D+01 EUMP2 =    -0.28444507018390D+03
 Normal termination of Gaussian 09 at Fri Aug 26 13:39:58 2022.

 -----------------------------------------------------------
 #P Geom=AllCheck Guess=TCheck SCRF=Check MP2=Full/GTLargeXP
 -----------------------------------------------------------

 Structure from the checkpoint file:  "G4.Frag_857.chk"
 --------
 Frag_857
 --------
 Charge =  0 Multiplicity = 1

 SCF Done:  E(RHF) =  -283.413560946     A.U. after   11 cycles
 E2 =    -0.1438815311D+01 EUMP2 =    -0.28485237625691D+03
 Normal termination of Gaussian 09 at Fri Aug 26 13:42:31 2022.
 SCF Done:  E(RHF) =  -283.435613560     A.U. after    8 cycles
 Normal termination of Gaussian 09 at Fri Aug 26 13:45:04 2022.

                         Standard orientation:
 ---------------------------------------------------------------------
 Center     Atomic      Atomic             Coordinates (Angstroms)
 Number     Number       Type             X           Y           Z
 ---------------------------------------------------------------------
      1          6           0        1.584835   -0.773673   -0.553146
      2          6           0        0.385523    0.009361    0.001491
      3          6           0        0.433422    1.471262   -0.451931
      4          7           0        0.338635   -0.024756    1.483441
      5          7           0       -0.815683   -0.630688   -0.551257
      6          7           0       -2.000140    0.013935   -0.070575
      7          1           0        2.521897   -0.352135   -0.177664
      8          1           0        1.541522   -1.824594   -0.239127
      9          1           0        1.600248   -0.750787   -1.646159
     10          1           0        0.372982    1.524054   -1.541330
     11          1           0       -0.410003    2.022670   -0.034989
     12          1           0        1.369761    1.940008   -0.131203
     13          1           0        0.884231    0.735050    1.877671
     14          1           0        0.758544   -0.884938    1.826065
     15          1           0       -0.796309   -1.607090   -0.249010
     16          1           0       -2.778174   -0.350058   -0.608544
     17          1           0       -2.147063   -0.203322    0.914545
 ---------------------------------------------------------------------

 SCF Done:  E(RHF) =  -283.440443778     A.U. after    8 cycles

 The electronic state is 1-A.
 Alpha  occ. eigenvalues --  -15.56189 -15.55436 -15.53729 -11.28513 -11.21480
 Alpha  occ. eigenvalues --  -11.20214  -1.27380  -1.17130  -1.04449  -0.96513
 Alpha  occ. eigenvalues --   -0.93355  -0.76413  -0.67560  -0.66135  -0.65117
 Alpha  occ. eigenvalues --   -0.62495  -0.59455  -0.54749  -0.53093  -0.51812
 Alpha  occ. eigenvalues --   -0.50285  -0.47610  -0.41617  -0.39774  -0.37951
 Alpha virt. eigenvalues --    0.03305   0.04467   0.04909   0.05281   0.06847
 Alpha virt. eigenvalues --    0.07308   0.07510   0.07732   0.08419   0.10028
 Alpha virt. eigenvalues --    0.10802   0.11826   0.12470   0.12575   0.13433

 Mulliken charges:
               1
     1  C   -0.576511
     2  C    0.428095
     3  C   -0.572900
     4  N   -0.774280
     5  N   -0.363042
     6  N   -0.661261
     7  H    0.172017
     8  H    0.150393
     9  H    0.184778
    10  H    0.179237
    11  H    0.209976
    12  H    0.160091
    13  H    0.296521
    14  H    0.287473
    15  H    0.257542
    16  H    0.309795
    17  H    0.312075
 Sum of Mulliken charges =  -0.00000

 Dipole moment (field-independent basis, Debye):
    X=              1.0674    Y=             -1.3930    Z=              1.0211  Tot=              2.0304
 Quadrupole moment (field-independent basis, Debye-Ang):
   XX=            -36.1991   YY=            -37.6814   ZZ=            -40.6497
   XY=              3.0103   XZ=              1.2205   YZ=             -0.7776

 Normal termination of Gaussian 09 at Fri Aug 26 13:54:27 2022.
