 Gaussian 09, Revision E.01,
 Gaussian 09:  ES64L-G09RevE.01 30-Nov-2015

 -----
 #P G4
 -----

 ---------
 Frag_1154
 ---------
 Symbolic Z-matrix:
 Charge =  0 Multiplicity = 1

 SCF Done:  E(RB3LYP) =  -246.042676860     A.U. after   14 cycles
 SCF Done:  E(RB3LYP) =  -246.072072796     A.U. after   13 cycles
 SCF Done:  E(RB3LYP) =  -246.079735153     A.U. after   13 cycles
 SCF Done:  E(RB3LYP) =  -246.080209469     A.U. after   11 cycles
 SCF Done:  E(RB3LYP) =  -246.079362994     A.U. after   12 cycles
 SCF Done:  E(RB3LYP) =  -246.080235285     A.U. after    8 cycles
 SCF Done:  E(RB3LYP) =  -246.080302008     A.U. after   10 cycles
 SCF Done:  E(RB3LYP) =  -246.075246903     A.U. after   15 cycles
 SCF Done:  E(RB3LYP) =  -246.080670105     A.U. after   13 cycles
 SCF Done:  E(RB3LYP) =  -246.080891361     A.U. after   12 cycles
 SCF Done:  E(RB3LYP) =  -246.081868595     A.U. after    9 cycles
 SCF Done:  E(RB3LYP) =  -246.081892883     A.U. after    9 cycles
 SCF Done:  E(RB3LYP) =  -246.081893640     A.U. after    8 cycles
 Optimization completed.
    -- Stationary point found.
 Normal termination of Gaussian 09 at Tue Aug 30 10:37:42 2022.

 ----------------------------------------------------------
 #P Geom=AllCheck Guess=TCheck SCRF=Check B3LYP/GTBas3 Freq
 ----------------------------------------------------------

 Structure from the checkpoint file:  "G4.Frag_1154.chk"
 ---------
 Frag_1154
 ---------
 Charge =  0 Multiplicity = 1

 SCF Done:  E(RB3LYP) =  -246.081893640     A.U. after    1 cycles

  Exact polarizability:  49.462   2.576  36.523  -0.001   0.001  25.249
 Approx polarizability:  80.829  13.440  59.791  -0.005   0.001  37.359

                      1                      2                      3
                      A                      A                      A
 Frequencies --    137.1522               181.8019               266.6905
 Red. masses --      1.0492                 5.7945                 8.1726
 Frc consts  --      0.0116                 0.1128                 0.3425
 IR Inten    --      0.5239                 8.6881                10.2579

                      4                      5                      6
                      A                      A                      A
 Frequencies --    431.4774               603.2144               606.1951
 Red. masses --      3.7987                 2.6880                 8.2605
 Frc consts  --      0.4167                 0.5763                 1.7885
 IR Inten    --      6.8135                 0.3626                 0.0536

                      7                      8                      9
                      A                      A                      A
 Frequencies --    717.2986               981.0732              1046.6315
 Red. masses --      4.5707                 2.0704                 1.8371
 Frc consts  --      1.3856                 1.1741                 1.1857
 IR Inten    --     23.2824                23.6452                 5.2186

                     10                     11                     12
                      A                      A                      A
 Frequencies --   1192.4963              1388.5644              1456.5057
 Red. masses --      3.0894                 1.2920                 1.0526
 Frc consts  --      2.5885                 1.4677                 1.3156
 IR Inten    --    117.8725                31.6095                14.7927

                     13                     14                     15
                      A                      A                      A
 Frequencies --   1463.9794              1809.7312              2337.1759
 Red. masses --      1.0458                11.4816                12.7301
 Frc consts  --      1.3206                22.1555                40.9700
 IR Inten    --      9.1029               149.2966                22.3880

                     16                     17                     18
                      A                      A                      A
 Frequencies --   3040.7317              3104.4698              3161.1740
 Red. masses --      1.0361                 1.0984                 1.1029
 Frc consts  --      5.6445                 6.2370                 6.4937
 IR Inten    --      0.4188                 1.1495                 2.7597

 - Thermochemistry -
 -------------------
 Temperature   298.150 Kelvin.  Pressure   1.00000 Atm.
 Atom     1 has atomic number  6 and mass  12.00000

 Molecular mass:    69.02146 amu.
 Principal axes and moments of inertia in atomic units:
                           1         2         3
     Eigenvalues --   177.66183 433.98011 600.48511
           X            0.99715  -0.07539  -0.00000
           Y            0.07539   0.99715   0.00000
           Z            0.00000  -0.00000   1.00000
 This molecule is an asymmetric top.
 Rotational symmetry number  1.
 Rotational temperatures (Kelvin)      0.48752     0.19958     0.14424
 Rotational constants (GHZ):          10.15829     4.15858     3.00547
 Zero-point vibrational energy     143111.4 (Joules/Mol)
                                   34.20445 (Kcal/Mol)
 Warning -- explicit consideration of   6 degrees of freedom as
           vibrations may cause significant error
 Vibrational temperatures:    197.33   261.57   383.71   620.80   867.89
          (Kelvin)            872.18  1032.03  1411.54  1505.87  1715.73
                             1997.83  2095.58  2106.34  2603.80  3362.67
                             4374.93  4466.63  4548.22

 Zero-point correction=                           0.054508 (Hartree/Particle)
 Thermal correction to Energy=                    0.059869
 Thermal correction to Enthalpy=                  0.060813
 Thermal correction to Gibbs Free Energy=         0.026120
 Sum of electronic and zero-point Energies=           -246.027385
 Sum of electronic and thermal Energies=              -246.022024
 Sum of electronic and thermal Enthalpies=            -246.021080
 Sum of electronic and thermal Free Energies=         -246.055774

                     E (Thermal)             CV                S
                      KCal/Mol        Cal/Mol-Kelvin    Cal/Mol-Kelvin
 Total                   37.568             16.966             73.019
 Electronic               0.000              0.000              0.000
 Translational            0.889              2.981             38.613
 Rotational               0.889              2.981             25.341
 Vibrational             35.791             11.004              9.065
 Vibration     1          0.614              1.916              2.843
 Vibration     2          0.630              1.865              2.310
 Vibration     3          0.672              1.734              1.618
 Vibration     4          0.793              1.402              0.854
 Vibration     5          0.962              1.025              0.444
 Vibration     6          0.965              1.019              0.439

 Optimization completed.
    -- Stationary point found.
 Normal termination of Gaussian 09 at Tue Aug 30 10:37:58 2022.

 -----------------------------------------------------------------
 #P Geom=AllCheck Guess=TCheck SCRF=Check CCSD(T,E4T,FrzG4)/GTBas1
 -----------------------------------------------------------------

 Structure from the checkpoint file:  "G4.Frag_1154.chk"
 ---------
 Frag_1154
 ---------
 Charge =  0 Multiplicity = 1

 SCF Done:  E(RHF) =  -244.639767151     A.U. after   14 cycles
 E2 =    -0.7108735164D+00 EUMP2 =    -0.24535064066707D+03
 CCSD(T)
 CCSD(T)= -0.24540006677D+03
 4062524\MP4SDQ=-245.3742571\CCSD=-245.3715627\CCSD(T)=-245.4000668\RMS
 Normal termination of Gaussian 09 at Tue Aug 30 10:38:34 2022.

 ---------------------------------------------------------
 #P Geom=AllCheck Guess=TCheck SCRF=Check MP4=FrzG4/GTBas2
 ---------------------------------------------------------

 Structure from the checkpoint file:  "G4.Frag_1154.chk"
 ---------
 Frag_1154
 ---------
 Charge =  0 Multiplicity = 1

 SCF Done:  E(RHF) =  -244.646167447     A.U. after   13 cycles
 E2 =    -0.7189571608D+00 EUMP2 =    -0.24536512460775D+03
 Normal termination of Gaussian 09 at Tue Aug 30 10:38:45 2022.

 ---------------------------------------------------------
 #P Geom=AllCheck Guess=TCheck SCRF=Check MP4=FrzG4/GTBas3
 ---------------------------------------------------------

 Structure from the checkpoint file:  "G4.Frag_1154.chk"
 ---------
 Frag_1154
 ---------
 Charge =  0 Multiplicity = 1

 SCF Done:  E(RHF) =  -244.663309144     A.U. after   12 cycles
 E2 =    -0.8466552862D+00 EUMP2 =    -0.24550996443004D+03
 Normal termination of Gaussian 09 at Tue Aug 30 10:39:31 2022.

 -----------------------------------------------------------
 #P Geom=AllCheck Guess=TCheck SCRF=Check MP2=Full/GTLargeXP
 -----------------------------------------------------------

 Structure from the checkpoint file:  "G4.Frag_1154.chk"
 ---------
 Frag_1154
 ---------
 Charge =  0 Multiplicity = 1

 SCF Done:  E(RHF) =  -244.724607056     A.U. after   13 cycles
 E2 =    -0.1116574731D+01 EUMP2 =    -0.24584118178662D+03
 Normal termination of Gaussian 09 at Tue Aug 30 10:40:05 2022.
 SCF Done:  E(RHF) =  -244.743249540     A.U. after   10 cycles
 Normal termination of Gaussian 09 at Tue Aug 30 10:40:42 2022.

                         Standard orientation:
 ---------------------------------------------------------------------
 Center     Atomic      Atomic             Coordinates (Angstroms)
 Number     Number       Type             X           Y           Z
 ---------------------------------------------------------------------
      1          6           0        1.265234   -1.042363    0.000017
      2          6           0        0.430916    0.210942    0.000082
      3          8           0        0.859138    1.335592   -0.000010
      4          6           0       -1.033850   -0.022138   -0.000131
      5          7           0       -2.174352   -0.212658    0.000068
      6          1           0        2.322761   -0.776847    0.001054
      7          1           0        1.024712   -1.649572    0.879706
      8          1           0        1.026088   -1.648359   -0.880966
 ---------------------------------------------------------------------

 SCF Done:  E(RHF) =  -244.746868975     A.U. after    7 cycles

 The electronic state is 1-A.
 Alpha  occ. eigenvalues --  -20.60421 -15.61131 -11.40418 -11.30000 -11.27441
 Alpha  occ. eigenvalues --   -1.44830  -1.24875  -1.06734  -0.90998  -0.73394
 Alpha  occ. eigenvalues --   -0.67815  -0.64785  -0.61150  -0.59126  -0.55783
 Alpha  occ. eigenvalues --   -0.50261  -0.49268  -0.48538
 Alpha virt. eigenvalues --    0.03001   0.04739   0.04828   0.05218   0.05655
 Alpha virt. eigenvalues --    0.07147   0.07358   0.07821   0.07989   0.08149
 Alpha virt. eigenvalues --    0.09981   0.13179   0.14130   0.15201   0.15346

 Mulliken charges:
               1
     1  C   -0.547307
     2  C    0.387679
     3  O   -0.425773
     4  C    0.331277
     5  N   -0.398596
     6  H    0.225572
     7  H    0.213575
     8  H    0.213572
 Sum of Mulliken charges =  -0.00000

 Dipole moment (field-independent basis, Debye):
    X=              2.7666    Y=             -2.6085    Z=             -0.0001  Tot=              3.8024
 Quadrupole moment (field-independent basis, Debye-Ang):
   XX=            -35.3470   YY=            -30.8710   ZZ=            -27.6110
   XY=             -4.1757   XZ=              0.0003   YZ=              0.0003

 Normal termination of Gaussian 09 at Tue Aug 30 10:43:44 2022.
