 Gaussian 09, Revision E.01,
 Gaussian 09:  ES64L-G09RevE.01 30-Nov-2015

 -----
 #P G4
 -----

 --------
 Frag_460
 --------
 Symbolic Z-matrix:
 Charge =  0 Multiplicity = 1

 SCF Done:  E(RB3LYP) =  -229.807466141     A.U. after   12 cycles
 SCF Done:  E(RB3LYP) =  -229.811619256     A.U. after   11 cycles
 SCF Done:  E(RB3LYP) =  -229.812211481     A.U. after   11 cycles
 SCF Done:  E(RB3LYP) =  -229.812333522     A.U. after   10 cycles
 SCF Done:  E(RB3LYP) =  -229.812345532     A.U. after    7 cycles
 SCF Done:  E(RB3LYP) =  -229.812348034     A.U. after    7 cycles
 SCF Done:  E(RB3LYP) =  -229.812348301     A.U. after    7 cycles
 Optimization completed.
    -- Stationary point found.
 Normal termination of Gaussian 09 at Sun Aug 21 21:19:02 2022.

 ----------------------------------------------------------
 #P Geom=AllCheck Guess=TCheck SCRF=Check B3LYP/GTBas3 Freq
 ----------------------------------------------------------

 Structure from the checkpoint file:  "G4.Frag_460.chk"
 --------
 Frag_460
 --------
 Charge =  0 Multiplicity = 1

 SCF Done:  E(RB3LYP) =  -229.812348301     A.U. after    1 cycles

  Exact polarizability:  59.106   0.175  48.782  -0.590  -0.012  44.989
 Approx polarizability:  73.141   0.925  65.670  -1.558  -0.355  67.012

                      1                      2                      3
                      A                      A                      A
 Frequencies --    123.4296               223.7682               238.8328
 Red. masses --      2.0032                 1.1264                 1.1648
 Frc consts  --      0.0180                 0.0332                 0.0391
 IR Inten    --      0.9348                 1.1120                 0.1529

                      4                      5                      6
                      A                      A                      A
 Frequencies --    254.2495               293.9761               409.1301
 Red. masses --      1.0781                 2.0770                 2.1681
 Frc consts  --      0.0411                 0.1058                 0.2138
 IR Inten    --      0.3116                 4.5123                 0.7547

                      7                      8                      9
                      A                      A                      A
 Frequencies --    426.4637               496.3599               760.3982
 Red. masses --      2.2522                 2.8461                 2.9136
 Frc consts  --      0.2413                 0.4131                 0.9926
 IR Inten    --      4.9451                 3.6631                27.7994

                     10                     11                     12
                      A                      A                      A
 Frequencies --    897.4737               989.2644              1034.8672
 Red. masses --      1.5191                 2.0108                 1.6546
 Frc consts  --      0.7209                 1.1594                 1.0440
 IR Inten    --     61.3150                11.6490                13.6711

                     13                     14                     15
                      A                      A                      A
 Frequencies --   1116.0986              1119.3459              1148.7945
 Red. masses --      1.3390                 2.7198                 1.4073
 Frc consts  --      0.9827                 2.0078                 1.0943
 IR Inten    --      7.6478                11.3159                 6.4212

                     16                     17                     18
                      A                      A                      A
 Frequencies --   1161.5741              1229.6565              1254.7666
 Red. masses --      1.4380                 1.7665                 2.7042
 Frc consts  --      1.1431                 1.5738                 2.5085
 IR Inten    --      2.2421                11.0160                 3.4059

                     19                     20                     21
                      A                      A                      A
 Frequencies --   1285.4022              1432.3055              1444.4336
 Red. masses --      2.5444                 1.1668                 1.1760
 Frc consts  --      2.4770                 1.4103                 1.4456
 IR Inten    --      0.0561                 0.7986                 0.9268

                     22                     23                     24
                      A                      A                      A
 Frequencies --   1454.9323              1475.6106              1479.9381
 Red. masses --      1.1476                 1.0551                 1.0868
 Frc consts  --      1.4313                 1.3536                 1.4024
 IR Inten    --      1.6924                 9.5717                 2.7804

                     25                     26                     27
                      A                      A                      A
 Frequencies --   1487.6060              1496.0040              1504.5584
 Red. masses --      1.0584                 1.0592                 1.0713
 Frc consts  --      1.3799                 1.3967                 1.4288
 IR Inten    --      2.8434                 9.9923                 4.0635

                     28                     29                     30
                      A                      A                      A
 Frequencies --   1508.4521              1530.8650              2911.6959
 Red. masses --      1.0654                 1.1091                 1.0607
 Frc consts  --      1.4284                 1.5315                 5.2982
 IR Inten    --      3.2295                13.4650                51.1361

                     31                     32                     33
                      A                      A                      A
 Frequencies --   2929.3635              2964.7425              3065.8893
 Red. masses --      1.0607                 1.0568                 1.0721
 Frc consts  --      5.3630                 5.4727                 5.9377
 IR Inten    --    113.4519                69.2166                17.4065

                     34                     35                     36
                      A                      A                      A
 Frequencies --   3069.8549              3071.2209              3112.0333
 Red. masses --      1.0754                 1.0706                 1.1026
 Frc consts  --      5.9713                 5.9498                 6.2913
 IR Inten    --     46.3660                40.7557                25.8328

                     37                     38                     39
                      A                      A                      A
 Frequencies --   3117.5262              3132.4703              3364.5551
 Red. masses --      1.1023                 1.1004                 1.0730
 Frc consts  --      6.3122                 6.3619                 7.1568
 IR Inten    --     20.6521                20.1595                19.6682

 - Thermochemistry -
 -------------------
 Temperature   298.150 Kelvin.  Pressure   1.00000 Atm.
 Atom     1 has atomic number  6 and mass  12.00000

 Molecular mass:    74.08440 amu.
 Principal axes and moments of inertia in atomic units:
                           1         2         3
     Eigenvalues --   224.13392 477.59497 622.51019
           X            0.99983  -0.01633   0.00896
           Y            0.01622   0.99980   0.01191
           Z           -0.00916  -0.01177   0.99989
 This molecule is an asymmetric top.
 Rotational symmetry number  1.
 Rotational temperatures (Kelvin)      0.38644     0.18135     0.13914
 Rotational constants (GHZ):           8.05207     3.77881     2.89914
 Zero-point vibrational energy     358986.8 (Joules/Mol)
                                   85.79991 (Kcal/Mol)
 Warning -- explicit consideration of   8 degrees of freedom as
           vibrations may cause significant error
 Vibrational temperatures:    177.59   321.95   343.63   365.81   422.97
          (Kelvin)            588.65   613.59   714.15  1094.04  1291.26
                             1423.33  1488.94  1605.81  1610.49  1652.86
                             1671.24  1769.20  1805.33  1849.40  2060.77
                             2078.22  2093.32  2123.07  2129.30  2140.33
                             2152.41  2164.72  2170.32  2202.57  4189.28
                             4214.70  4265.60  4411.13  4416.83  4418.80
                             4477.52  4485.42  4506.92  4840.84

 Zero-point correction=                           0.136731 (Hartree/Particle)
 Thermal correction to Energy=                    0.143397
 Thermal correction to Enthalpy=                  0.144341
 Thermal correction to Gibbs Free Energy=         0.107311
 Sum of electronic and zero-point Energies=           -229.675617
 Sum of electronic and thermal Energies=              -229.668951
 Sum of electronic and thermal Enthalpies=            -229.668007
 Sum of electronic and thermal Free Energies=         -229.705037

                     E (Thermal)             CV                S
                      KCal/Mol        Cal/Mol-Kelvin    Cal/Mol-Kelvin
 Total                   89.983             23.311             77.936
 Electronic               0.000              0.000              0.000
 Translational            0.889              2.981             38.824
 Rotational               0.889              2.981             25.702
 Vibrational             88.206             17.349             13.410
 Vibration     1          0.610              1.929              3.046
 Vibration     2          0.649              1.805              1.928
 Vibration     3          0.657              1.781              1.812
 Vibration     4          0.665              1.756              1.701
 Vibration     5          0.689              1.685              1.451
 Vibration     6          0.773              1.450              0.930
 Vibration     7          0.788              1.413              0.870
 Vibration     8          0.852              1.258              0.667

 Normal termination of Gaussian 09 at Sun Aug 21 21:21:11 2022.

 -----------------------------------------------------------------
 #P Geom=AllCheck Guess=TCheck SCRF=Check CCSD(T,E4T,FrzG4)/GTBas1
 -----------------------------------------------------------------

 Structure from the checkpoint file:  "G4.Frag_460.chk"
 --------
 Frag_460
 --------
 Charge =  0 Multiplicity = 1

 SCF Done:  E(RHF) =  -228.260488124     A.U. after   12 cycles
 E2 =    -0.7234908830D+00 EUMP2 =    -0.22898397900714D+03
 CCSD(T)
 CCSD(T)= -0.22906342140D+03
 1209\CCSD(T)=-229.0634214\RMSD=3.436e-09\PG=C01 [X(C3H10N2)]\\@
 Normal termination of Gaussian 09 at Sun Aug 21 21:24:26 2022.

 ---------------------------------------------------------
 #P Geom=AllCheck Guess=TCheck SCRF=Check MP4=FrzG4/GTBas2
 ---------------------------------------------------------

 Structure from the checkpoint file:  "G4.Frag_460.chk"
 --------
 Frag_460
 --------
 Charge =  0 Multiplicity = 1

 SCF Done:  E(RHF) =  -228.266134950     A.U. after   11 cycles
 E2 =    -0.7337042842D+00 EUMP2 =    -0.22899983923412D+03
 Normal termination of Gaussian 09 at Sun Aug 21 21:28:33 2022.

 ---------------------------------------------------------
 #P Geom=AllCheck Guess=TCheck SCRF=Check MP4=FrzG4/GTBas3
 ---------------------------------------------------------

 Structure from the checkpoint file:  "G4.Frag_460.chk"
 --------
 Frag_460
 --------
 Charge =  0 Multiplicity = 1

 SCF Done:  E(RHF) =  -228.291062963     A.U. after   11 cycles
 E2 =    -0.8993457076D+00 EUMP2 =    -0.22919040867075D+03
 Normal termination of Gaussian 09 at Sun Aug 21 22:56:55 2022.

 -----------------------------------------------------------
 #P Geom=AllCheck Guess=TCheck SCRF=Check MP2=Full/GTLargeXP
 -----------------------------------------------------------

 Structure from the checkpoint file:  "G4.Frag_460.chk"
 --------
 Frag_460
 --------
 Charge =  0 Multiplicity = 1

 SCF Done:  E(RHF) =  -228.345383022     A.U. after   11 cycles
 E2 =    -0.1175646361D+01 EUMP2 =    -0.22952102938256D+03
 Normal termination of Gaussian 09 at Sun Aug 21 23:00:45 2022.
 SCF Done:  E(RHF) =  -228.363028150     A.U. after    8 cycles
 Normal termination of Gaussian 09 at Sun Aug 21 23:04:53 2022.

                         Standard orientation:
 ---------------------------------------------------------------------
 Center     Atomic      Atomic             Coordinates (Angstroms)
 Number     Number       Type             X           Y           Z
 ---------------------------------------------------------------------
      1          6           0       -1.974175   -0.085463   -0.207137
      2          7           0       -0.724946   -0.497190    0.417496
      3          7           0        0.411048   -0.016444   -0.295533
      4          6           0        1.524871   -0.925836   -0.078605
      5          6           0        0.754753    1.356914    0.047974
      6          1           0       -2.803254   -0.465437    0.398434
      7          1           0       -2.036502   -0.531826   -1.203052
      8          1           0       -2.103832    1.004463   -0.314489
      9          1           0       -0.693804   -0.164797    1.385797
     10          1           0        2.371933   -0.617529   -0.699976
     11          1           0        1.220812   -1.935031   -0.361543
     12          1           0        1.864731   -0.948773    0.974458
     13          1           0        1.037379    1.470772    1.113477
     14          1           0       -0.091357    2.018425   -0.156741
     15          1           0        1.598489    1.691480   -0.563506
 ---------------------------------------------------------------------

 SCF Done:  E(RHF) =  -228.366943228     A.U. after    8 cycles

 The electronic state is 1-A.
 Alpha  occ. eigenvalues --  -15.57079 -15.56594 -11.24424 -11.23868 -11.23634
 Alpha  occ. eigenvalues --   -1.28924  -1.09532  -0.95218  -0.90085  -0.81724
 Alpha  occ. eigenvalues --   -0.67472  -0.64141  -0.62947  -0.59118  -0.55458
 Alpha  occ. eigenvalues --   -0.54377  -0.53324  -0.51201  -0.50315  -0.38107
 Alpha  occ. eigenvalues --   -0.36755
 Alpha virt. eigenvalues --    0.03957   0.04099   0.04633   0.05013   0.06669
 Alpha virt. eigenvalues --    0.06898   0.07076   0.07743   0.08430   0.09736
 Alpha virt. eigenvalues --    0.12038   0.12341   0.13730   0.14193   0.14913

 Mulliken charges:
               1
     1  C   -0.456733
     2  N   -0.330801
     3  N   -0.001198
     4  C   -0.448001
     5  C   -0.479420
     6  H    0.172074
     7  H    0.181090
     8  H    0.142955
     9  H    0.251965
    10  H    0.164249
    11  H    0.182990
    12  H    0.136394
    13  H    0.134250
    14  H    0.175194
    15  H    0.174991
 Sum of Mulliken charges =  -0.00000

 Dipole moment (field-independent basis, Debye):
    X=              0.1588    Y=              1.1596    Z=              0.8249  Tot=              1.4319
 Quadrupole moment (field-independent basis, Debye-Ang):
   XX=            -31.2462   YY=            -34.2694   ZZ=            -33.5780
   XY=             -0.5990   XZ=             -0.5293   YZ=              0.6025

 Normal termination of Gaussian 09 at Mon Aug 22 01:05:59 2022.
