 Gaussian 09, Revision E.01,
 Gaussian 09:  ES64L-G09RevE.01 30-Nov-2015

 -----
 #P G4
 -----

 --------
 Frag_504
 --------
 Symbolic Z-matrix:
 Charge =  0 Multiplicity = 1

 SCF Done:  E(RB3LYP) =  -403.577884697     A.U. after   12 cycles
 SCF Done:  E(RB3LYP) =  -403.585571602     A.U. after   10 cycles
 SCF Done:  E(RB3LYP) =  -403.586404006     A.U. after   11 cycles
 SCF Done:  E(RB3LYP) =  -403.586611807     A.U. after   10 cycles
 SCF Done:  E(RB3LYP) =  -403.586732836     A.U. after   10 cycles
 SCF Done:  E(RB3LYP) =  -403.586753631     A.U. after   10 cycles
 SCF Done:  E(RB3LYP) =  -403.586758213     A.U. after    7 cycles
 SCF Done:  E(RB3LYP) =  -403.586761364     A.U. after    8 cycles
 SCF Done:  E(RB3LYP) =  -403.586763826     A.U. after    8 cycles
 SCF Done:  E(RB3LYP) =  -403.586764903     A.U. after    7 cycles
 SCF Done:  E(RB3LYP) =  -403.594432855     A.U. after    9 cycles
 SCF Done:  E(RB3LYP) =  -403.594435763     A.U. after    7 cycles
 SCF Done:  E(RB3LYP) =  -403.594436011     A.U. after    6 cycles
 Optimization completed.
    -- Stationary point found.
 Normal termination of Gaussian 09 at Fri Aug 26 08:51:25 2022.

 ----------------------------------------------------------
 #P Geom=AllCheck Guess=TCheck SCRF=Check B3LYP/GTBas3 Freq
 ----------------------------------------------------------

 Structure from the checkpoint file:  "G4.Frag_504.chk"
 --------
 Frag_504
 --------
 Charge =  0 Multiplicity = 1

 SCF Done:  E(RB3LYP) =  -403.594436011     A.U. after    1 cycles

  Exact polarizability:  75.245  -1.470  68.028  -1.311  -0.662  66.592
 Approx polarizability: 101.126   0.487  94.409  -2.860  -1.176  99.856

                      1                      2                      3
                      A                      A                      A
 Frequencies --    110.2444               216.1532               227.9351
 Red. masses --      3.4791                 1.0459                 1.0821
 Frc consts  --      0.0249                 0.0288                 0.0331
 IR Inten    --      1.0357                 0.9192                66.8901

                      4                      5                      6
                      A                      A                      A
 Frequencies --    238.0630               258.7479               271.1680
 Red. masses --      1.4874                 1.1050                 2.3188
 Frc consts  --      0.0497                 0.0436                 0.1005
 IR Inten    --      5.5693                10.3249                 8.9804

                      7                      8                      9
                      A                      A                      A
 Frequencies --    282.9464               311.7940               345.8908
 Red. masses --      1.8179                 1.1193                 2.6564
 Frc consts  --      0.0857                 0.0641                 0.1872
 IR Inten    --      9.8900                13.4962                 6.7547

                     10                     11                     12
                      A                      A                      A
 Frequencies --    358.1295               365.6162               390.0981
 Red. masses --      2.2325                 3.2827                 2.6061
 Frc consts  --      0.1687                 0.2585                 0.2337
 IR Inten    --      1.5076                 7.4033                 0.6559

                     13                     14                     15
                      A                      A                      A
 Frequencies --    443.6586               484.6964               512.8654
 Red. masses --      3.5888                 1.2974                 2.5180
 Frc consts  --      0.4162                 0.1796                 0.3902
 IR Inten    --     18.4244                69.2620                30.8800

                     16                     17                     18
                      A                      A                      A
 Frequencies --    532.4667               553.3988               679.2160
 Red. masses --      3.3187                 2.4888                 3.0637
 Frc consts  --      0.5544                 0.4491                 0.8327
 IR Inten    --     12.1634                34.9296                10.1188

                     19                     20                     21
                      A                      A                      A
 Frequencies --    840.7460               874.8975               918.0554
 Red. masses --      3.2010                 1.9826                 1.8114
 Frc consts  --      1.3331                 0.8941                 0.8995
 IR Inten    --     15.7925                41.9241                74.2911

                     22                     23                     24
                      A                      A                      A
 Frequencies --    933.4079               960.7238               974.4584
 Red. masses --      1.5602                 1.9945                 1.7787
 Frc consts  --      0.8009                 1.0846                 0.9951
 IR Inten    --     13.0021                 4.3092                 7.9269

                     25                     26                     27
                      A                      A                      A
 Frequencies --   1009.2556              1033.3723              1125.5824
 Red. masses --      1.3259                 1.5219                 1.5588
 Frc consts  --      0.7957                 0.9575                 1.1636
 IR Inten    --      4.4950                37.2314                74.6159

                     28                     29                     30
                      A                      A                      A
 Frequencies --   1146.2099              1161.5827              1213.4913
 Red. masses --      2.0507                 1.9834                 2.3798
 Frc consts  --      1.5874                 1.5768                 2.0648
 IR Inten    --     43.6806               105.0574                15.4538

                     31                     32                     33
                      A                      A                      A
 Frequencies --   1228.0662              1316.8865              1374.8561
 Red. masses --      3.0555                 1.6558                 1.6875
 Frc consts  --      2.7150                 1.6918                 1.8794
 IR Inten    --     14.3048                21.8786                43.0713

                     34                     35                     36
                      A                      A                      A
 Frequencies --   1390.3225              1393.5584              1398.1502
 Red. masses --      1.2862                 1.5060                 1.4328
 Frc consts  --      1.4649                 1.7231                 1.6502
 IR Inten    --     14.1395                38.6661                14.6201

                     37                     38                     39
                      A                      A                      A
 Frequencies --   1413.2491              1479.5544              1488.2692
 Red. masses --      1.3739                 1.0506                 1.0553
 Frc consts  --      1.6168                 1.3550                 1.3771
 IR Inten    --     61.3229                 0.5854                 2.5515

                     40                     41                     42
                      A                      A                      A
 Frequencies --   1495.0803              1496.2677              1504.7102
 Red. masses --      1.0697                 1.0474                 1.0541
 Frc consts  --      1.4088                 1.3816                 1.4061
 IR Inten    --      4.4032                 1.9636                 1.8097

                     43                     44                     45
                      A                      A                      A
 Frequencies --   1519.9576              1669.9055              3031.6890
 Red. masses --      1.0893                 1.0940                 1.0407
 Frc consts  --      1.4827                 1.7974                 5.6359
 IR Inten    --     14.3117                31.9930                12.5135

                     46                     47                     48
                      A                      A                      A
 Frequencies --   3038.5206              3050.1077              3100.2261
 Red. masses --      1.0402                 1.0358                 1.0945
 Frc consts  --      5.6586                 5.6775                 6.1978
 IR Inten    --     34.3406                11.4370                12.0010

                     49                     50                     51
                      A                      A                      A
 Frequencies --   3107.9429              3122.4320              3135.9412
 Red. masses --      1.0949                 1.1008                 1.1021
 Frc consts  --      6.2311                 6.3231                 6.3854
 IR Inten    --     33.4835                16.3267                11.2991

                     52                     53                     54
                      A                      A                      A
 Frequencies --   3139.0432              3142.1074              3496.6770
 Red. masses --      1.1020                 1.1020                 1.0492
 Frc consts  --      6.3979                 6.4101                 7.5585
 IR Inten    --     20.1932                 9.5093                 0.2226

                     55                     56                     57
                      A                      A                      A
 Frequencies --   3569.4965              3757.0608              3824.2030
 Red. masses --      1.0915                 1.0644                 1.0664
 Frc consts  --      8.1939                 8.8520                 9.1888
 IR Inten    --      0.9340                37.2767                17.6865

 - Thermochemistry -
 -------------------
 Temperature   298.150 Kelvin.  Pressure   1.00000 Atm.
 Atom     1 has atomic number  6 and mass  12.00000

 Molecular mass:   119.09463 amu.
 Principal axes and moments of inertia in atomic units:
                           1         2         3
     Eigenvalues --   735.351391011.855661028.21420
           X            0.99788  -0.06187   0.01997
           Y            0.06293   0.99634  -0.05780
           Z           -0.01633   0.05893   0.99813
 This molecule is an asymmetric top.
 Rotational symmetry number  1.
 Warning -- assumption of classical behavior for rotation
           may cause significant error
 Rotational temperatures (Kelvin)      0.11779     0.08560     0.08424
 Rotational constants (GHZ):           2.45426     1.78360     1.75522
 Zero-point vibrational energy     487233.9 (Joules/Mol)
                                  116.45170 (Kcal/Mol)
 Warning -- explicit consideration of  17 degrees of freedom as
           vibrations may cause significant error
 Vibrational temperatures:    158.62   311.00   327.95   342.52   372.28
          (Kelvin)            390.15   407.10   448.60   497.66   515.27
                              526.04   561.26   638.32   697.37   737.90
                              766.10   796.22   977.24  1209.64  1258.78
                             1320.88  1342.96  1382.27  1402.03  1452.09
                             1486.79  1619.46  1649.14  1671.26  1745.94
                             1766.91  1894.70  1978.11  2000.36  2005.02
                             2011.62  2033.35  2128.75  2141.28  2151.08
                             2152.79  2164.94  2186.88  2402.62  4361.92
                             4371.75  4388.42  4460.53  4471.63  4492.48
                             4511.91  4516.38  4520.79  5030.93  5135.70
                             5405.57  5502.17

 Zero-point correction=                           0.185578 (Hartree/Particle)
 Thermal correction to Energy=                    0.195624
 Thermal correction to Enthalpy=                  0.196569
 Thermal correction to Gibbs Free Energy=         0.152448
 Sum of electronic and zero-point Energies=           -403.408858
 Sum of electronic and thermal Energies=              -403.398812
 Sum of electronic and thermal Enthalpies=            -403.397867
 Sum of electronic and thermal Free Energies=         -403.441988

                     E (Thermal)             CV                S
                      KCal/Mol        Cal/Mol-Kelvin    Cal/Mol-Kelvin
 Total                  122.756             39.251             92.860
 Electronic               0.000              0.000              0.000
 Translational            0.889              2.981             40.239
 Rotational               0.889              2.981             28.128
 Vibrational            120.979             33.289             24.494
 Vibration     1          0.606              1.941              3.265
 Vibration     2          0.645              1.816              1.991
 Vibration     3          0.651              1.798              1.895
 Vibration     4          0.656              1.782              1.817
 Vibration     5          0.668              1.748              1.670
 Vibration     6          0.675              1.726              1.589
 Vibration     7          0.682              1.705              1.516
 Vibration     8          0.700              1.651              1.353
 Vibration     9          0.724              1.584              1.185
 Vibration    10          0.733              1.559              1.130
 Vibration    11          0.739              1.543              1.098
 Vibration    12          0.758              1.491              1.000
 Vibration    13          0.803              1.375              0.815
 Vibration    14          0.841              1.284              0.698
 Vibration    15          0.868              1.221              0.627
 Vibration    16          0.887              1.178              0.582
 Vibration    17          0.909              1.132              0.537

 Optimization completed.
    -- Stationary point found.
 Normal termination of Gaussian 09 at Fri Aug 26 08:52:48 2022.

 -----------------------------------------------------------------
 #P Geom=AllCheck Guess=TCheck SCRF=Check CCSD(T,E4T,FrzG4)/GTBas1
 -----------------------------------------------------------------

 Structure from the checkpoint file:  "G4.Frag_504.chk"
 --------
 Frag_504
 --------
 Charge =  0 Multiplicity = 1

 SCF Done:  E(RHF) =  -401.069554375     A.U. after   11 cycles
 E2 =    -0.1190227460D+01 EUMP2 =    -0.40225978183477D+03
 CCSD(T)
 CCSD(T)= -0.40236641600D+03
 Normal termination of Gaussian 09 at Fri Aug 26 09:02:09 2022.

 ---------------------------------------------------------
 #P Geom=AllCheck Guess=TCheck SCRF=Check MP4=FrzG4/GTBas2
 ---------------------------------------------------------

 Structure from the checkpoint file:  "G4.Frag_504.chk"
 --------
 Frag_504
 --------
 Charge =  0 Multiplicity = 1

 SCF Done:  E(RHF) =  -401.081960533     A.U. after   11 cycles
 E2 =    -0.1210914011D+01 EUMP2 =    -0.40229287454450D+03
 Normal termination of Gaussian 09 at Fri Aug 26 09:05:33 2022.

 ---------------------------------------------------------
 #P Geom=AllCheck Guess=TCheck SCRF=Check MP4=FrzG4/GTBas3
 ---------------------------------------------------------

 Structure from the checkpoint file:  "G4.Frag_504.chk"
 --------
 Frag_504
 --------
 Charge =  0 Multiplicity = 1

 SCF Done:  E(RHF) =  -401.126244594     A.U. after   10 cycles
 E2 =    -0.1480210444D+01 EUMP2 =    -0.40260645503851D+03
 Normal termination of Gaussian 09 at Fri Aug 26 09:33:32 2022.

 -----------------------------------------------------------
 #P Geom=AllCheck Guess=TCheck SCRF=Check MP2=Full/GTLargeXP
 -----------------------------------------------------------

 Structure from the checkpoint file:  "G4.Frag_504.chk"
 --------
 Frag_504
 --------
 Charge =  0 Multiplicity = 1

 SCF Done:  E(RHF) =  -401.229136787     A.U. after   12 cycles
 E2 =    -0.1933514768D+01 EUMP2 =    -0.40316265155493D+03
 Normal termination of Gaussian 09 at Fri Aug 26 09:41:18 2022.
 SCF Done:  E(RHF) =  -401.260889567     A.U. after    9 cycles
 Normal termination of Gaussian 09 at Fri Aug 26 09:44:20 2022.

                         Standard orientation:
 ---------------------------------------------------------------------
 Center     Atomic      Atomic             Coordinates (Angstroms)
 Number     Number       Type             X           Y           Z
 ---------------------------------------------------------------------
      1          6           0        1.439863   -1.284857    0.286160
      2          6           0        0.769894    0.065973    0.001748
      3          6           0        1.286211    1.138127    0.965616
      4          8           0        1.039438    0.453751   -1.361175
      5          6           0       -0.790492   -0.069786    0.029722
      6          6           0       -1.493307    1.279045   -0.175541
      7          7           0       -1.205457   -0.631260    1.298005
      8          8           0       -1.169880   -0.959994   -1.026796
      9          1           0        2.519815   -1.211506    0.111267
     10          1           0        1.030544   -2.061075   -0.363807
     11          1           0        1.301481   -1.580718    1.329582
     12          1           0        0.926107    0.942928    1.978574
     13          1           0        0.956230    2.132286    0.656994
     14          1           0        2.382249    1.137407    0.982905
     15          1           0        1.988607    0.395799   -1.506931
     16          1           0       -1.381623    1.930138    0.694462
     17          1           0       -2.558381    1.093486   -0.342931
     18          1           0       -1.091218    1.787467   -1.053963
     19          1           0       -2.214117   -0.546997    1.383137
     20          1           0       -1.006736   -1.627551    1.295774
     21          1           0       -0.644239   -0.693913   -1.793551
 ---------------------------------------------------------------------

 SCF Done:  E(RHF) =  -401.267887548     A.U. after    8 cycles

 The electronic state is 1-A.
 Alpha  occ. eigenvalues --  -20.56238 -20.53912 -15.53920 -11.30965 -11.29100
 Alpha  occ. eigenvalues --  -11.21819 -11.21378 -11.20802  -1.38254  -1.34590
 Alpha  occ. eigenvalues --   -1.17842  -1.04873  -0.98222  -0.93746  -0.85716
 Alpha  occ. eigenvalues --   -0.76521  -0.69000  -0.67779  -0.66949  -0.61944
 Alpha  occ. eigenvalues --   -0.61190  -0.59056  -0.58230  -0.55068  -0.54615
 Alpha  occ. eigenvalues --   -0.53233  -0.52145  -0.51185  -0.50343  -0.47448
 Alpha  occ. eigenvalues --   -0.44853  -0.43500  -0.40704
 Alpha virt. eigenvalues --    0.03005   0.03971   0.04377   0.04794   0.05988
 Alpha virt. eigenvalues --    0.06564   0.06861   0.07097   0.07120   0.09097
 Alpha virt. eigenvalues --    0.09339   0.09458   0.10003   0.10626   0.10945

 Mulliken charges:
               1
     1  C   -0.630148
     2  C    0.434220
     3  C   -0.629559
     4  O   -0.660715
     5  C    0.488105
     6  C   -0.630957
     7  N   -0.775908
     8  O   -0.638735
     9  H    0.161256
    10  H    0.202104
    11  H    0.190229
    12  H    0.210997
    13  H    0.181740
    14  H    0.165087
    15  H    0.374957
    16  H    0.180506
    17  H    0.185930
    18  H    0.199449
    19  H    0.291662
    20  H    0.300895
    21  H    0.398886
 Sum of Mulliken charges =  -0.00000

 Dipole moment (field-independent basis, Debye):
    X=              1.6905    Y=              0.1925    Z=              0.3393  Tot=              1.7350
 Quadrupole moment (field-independent basis, Debye-Ang):
   XX=            -46.4033   YY=            -51.6360   ZZ=            -53.1763
   XY=             -1.4081   XZ=             -3.3791   YZ=             -1.3202

 Normal termination of Gaussian 09 at Fri Aug 26 10:05:52 2022.
