 Gaussian 09, Revision E.01,
 Gaussian 09:  ES64L-G09RevE.01 30-Nov-2015

 -----
 #P G4
 -----

 ---------
 Frag_1045
 ---------
 Symbolic Z-matrix:
 Charge =  0 Multiplicity = 1

 SCF Done:  E(RB3LYP) =  -355.383411830     A.U. after   14 cycles
 SCF Done:  E(RB3LYP) =  -355.402670270     A.U. after   12 cycles
 SCF Done:  E(RB3LYP) =  -355.404313902     A.U. after   12 cycles
 SCF Done:  E(RB3LYP) =  -355.404686180     A.U. after   11 cycles
 SCF Done:  E(RB3LYP) =  -355.404906814     A.U. after   11 cycles
 SCF Done:  E(RB3LYP) =  -355.405110072     A.U. after   11 cycles
 SCF Done:  E(RB3LYP) =  -355.405272435     A.U. after   11 cycles
 SCF Done:  E(RB3LYP) =  -355.405522343     A.U. after   11 cycles
 SCF Done:  E(RB3LYP) =  -355.405955764     A.U. after   12 cycles
 SCF Done:  E(RB3LYP) =  -355.406107485     A.U. after   11 cycles
 SCF Done:  E(RB3LYP) =  -355.406640019     A.U. after   11 cycles
 SCF Done:  E(RB3LYP) =  -355.406641068     A.U. after    7 cycles
 SCF Done:  E(RB3LYP) =  -355.406641214     A.U. after    7 cycles
 Optimization completed.
    -- Stationary point found.
 Normal termination of Gaussian 09 at Sun Aug 21 17:12:03 2022.

 ----------------------------------------------------------
 #P Geom=AllCheck Guess=TCheck SCRF=Check B3LYP/GTBas3 Freq
 ----------------------------------------------------------

 Structure from the checkpoint file:  "G4.Frag_1045.chk"
 ---------
 Frag_1045
 ---------
 Charge =  0 Multiplicity = 1

 SCF Done:  E(RB3LYP) =  -355.406641214     A.U. after    1 cycles

  Exact polarizability:  64.442  -2.180  62.718  -0.570  -0.912  47.254
 Approx polarizability:  87.098  -6.067 100.294   0.313  -2.226  68.686

                      1                      2                      3
                      A                      A                      A
 Frequencies --     85.6228               175.3261               258.7058
 Red. masses --      4.3887                 1.1803                 2.2574
 Frc consts  --      0.0190                 0.0214                 0.0890
 IR Inten    --      2.3163                35.2723                 6.8690

                      4                      5                      6
                      A                      A                      A
 Frequencies --    290.8405               336.8747               362.0605
 Red. masses --      2.0882                 1.1927                 1.6768
 Frc consts  --      0.1041                 0.0797                 0.1295
 IR Inten    --     13.0383                36.7378                12.1506

                      7                      8                      9
                      A                      A                      A
 Frequencies --    405.7409               434.5857               464.6632
 Red. masses --      3.7067                 2.4348                 2.0422
 Frc consts  --      0.3595                 0.2709                 0.2598
 IR Inten    --      1.2406                 2.6961                 9.5387

                     10                     11                     12
                      A                      A                      A
 Frequencies --    495.1242               543.4922               576.0441
 Red. masses --      1.2781                 2.7574                 2.8444
 Frc consts  --      0.1846                 0.4799                 0.5561
 IR Inten    --     50.8566                25.4192                21.1465

                     13                     14                     15
                      A                      A                      A
 Frequencies --    644.7557               733.6819               737.8462
 Red. masses --      1.2844                 3.4803                 3.5427
 Frc consts  --      0.3146                 1.1038                 1.1364
 IR Inten    --    175.5959                14.7139                18.3683

                     16                     17                     18
                      A                      A                      A
 Frequencies --    769.6425               859.1740               870.6288
 Red. masses --      1.3379                 1.7454                 1.3945
 Frc consts  --      0.4669                 0.7591                 0.6228
 IR Inten    --    150.4058                83.6482               149.9101

                     19                     20                     21
                      A                      A                      A
 Frequencies --    923.6840               956.3734              1049.2607
 Red. masses --      1.8036                 1.5107                 2.0156
 Frc consts  --      0.9066                 0.8141                 1.3074
 IR Inten    --    169.3919                24.1456                50.0947

                     22                     23                     24
                      A                      A                      A
 Frequencies --   1103.8507              1128.1235              1155.8794
 Red. masses --      1.8573                 1.4817                 1.4668
 Frc consts  --      1.3334                 1.1110                 1.1546
 IR Inten    --      4.8217                46.1833                19.7118

                     25                     26                     27
                      A                      A                      A
 Frequencies --   1258.1680              1324.1140              1353.2946
 Red. masses --      2.0449                 1.6964                 1.7851
 Frc consts  --      1.9072                 1.7524                 1.9261
 IR Inten    --     54.5832                71.6979                 6.6517

                     28                     29                     30
                      A                      A                      A
 Frequencies --   1423.8835              1609.9168              1616.1206
 Red. masses --      2.6278                 1.1568                 1.1205
 Frc consts  --      3.1390                 1.7664                 1.7243
 IR Inten    --     71.9072                46.1090               124.8296

                     31                     32                     33
                      A                      A                      A
 Frequencies --   1627.0677              1638.7948              1732.6170
 Red. masses --      1.1305                 1.1221                 6.4566
 Frc consts  --      1.7634                 1.7756                11.4199
 IR Inten    --     33.6812                31.7346               148.5114

                     34                     35                     36
                      A                      A                      A
 Frequencies --   3444.5076              3483.7993              3503.6043
 Red. masses --      1.0746                 1.0481                 1.0493
 Frc consts  --      7.5116                 7.4946                 7.5887
 IR Inten    --      9.0166                 2.2465                 1.5810

                     37                     38                     39
                      A                      A                      A
 Frequencies --   3520.7442              3534.4577              3577.2675
 Red. masses --      1.0477                 1.0478                 1.0937
 Frc consts  --      7.6514                 7.7122                 8.2458
 IR Inten    --     13.8903                38.1976                 3.1561

                     40                     41                     42
                      A                      A                      A
 Frequencies --   3597.6972              3624.8467              3659.5349
 Red. masses --      1.0922                 1.0954                 1.0974
 Frc consts  --      8.3293                 8.4802                 8.6591
 IR Inten    --      4.9850                15.2164                32.6492

 - Thermochemistry -
 -------------------
 Temperature   298.150 Kelvin.  Pressure   1.00000 Atm.
 Atom     1 has atomic number  7 and mass  14.00307

 Molecular mass:   103.08580 amu.
 Principal axes and moments of inertia in atomic units:
                           1         2         3
     Eigenvalues --   526.78289 725.91260 902.39076
           X            0.99930   0.03486  -0.01343
           Y           -0.03503   0.99930  -0.01298
           Z            0.01297   0.01344   0.99983
 This molecule is an asymmetric top.
 Rotational symmetry number  1.
 Warning -- assumption of classical behavior for rotation
           may cause significant error
 Rotational temperatures (Kelvin)      0.16442     0.11932     0.09598
 Rotational constants (GHZ):           3.42597     2.48617     1.99996
 Zero-point vibrational energy     364217.5 (Joules/Mol)
                                   87.05008 (Kcal/Mol)
 Warning -- explicit consideration of  12 degrees of freedom as
           vibrations may cause significant error
 Vibrational temperatures:    123.19   252.25   372.22   418.45   484.69
          (Kelvin)            520.92   583.77   625.27   668.55   712.37
                              781.96   828.80   927.66  1055.60  1061.59
                             1107.34  1236.16  1252.64  1328.97  1376.01
                             1509.65  1588.19  1623.12  1663.05  1810.22
                             1905.10  1947.09  2048.65  2316.31  2325.23
                             2340.98  2357.86  2492.85  4955.87  5012.40
                             5040.90  5065.56  5085.29  5146.88  5176.28
                             5215.34  5265.25

 Zero-point correction=                           0.138723 (Hartree/Particle)
 Thermal correction to Energy=                    0.146766
 Thermal correction to Enthalpy=                  0.147710
 Thermal correction to Gibbs Free Energy=         0.107279
 Sum of electronic and zero-point Energies=           -355.267918
 Sum of electronic and thermal Energies=              -355.259875
 Sum of electronic and thermal Enthalpies=            -355.258931
 Sum of electronic and thermal Free Energies=         -355.299363

                     E (Thermal)             CV                S
                      KCal/Mol        Cal/Mol-Kelvin    Cal/Mol-Kelvin
 Total                   92.097             31.074             85.095
 Electronic               0.000              0.000              0.000
 Translational            0.889              2.981             39.809
 Rotational               0.889              2.981             27.336
 Vibrational             90.319             25.113             17.950
 Vibration     1          0.601              1.959              3.758
 Vibration     2          0.627              1.873              2.378
 Vibration     3          0.668              1.748              1.670
 Vibration     4          0.687              1.691              1.469
 Vibration     5          0.718              1.602              1.227
 Vibration     6          0.736              1.550              1.113
 Vibration     7          0.771              1.458              0.942
 Vibration     8          0.795              1.395              0.844
 Vibration     9          0.822              1.328              0.753
 Vibration    10          0.851              1.261              0.670
 Vibration    11          0.899              1.154              0.558
 Vibration    12          0.932              1.083              0.493

 Optimization completed.
    -- Stationary point found.
 Normal termination of Gaussian 09 at Sun Aug 21 17:16:37 2022.

 -----------------------------------------------------------------
 #P Geom=AllCheck Guess=TCheck SCRF=Check CCSD(T,E4T,FrzG4)/GTBas1
 -----------------------------------------------------------------

 Structure from the checkpoint file:  "G4.Frag_1045.chk"
 ---------
 Frag_1045
 ---------
 Charge =  0 Multiplicity = 1

 SCF Done:  E(RHF) =  -353.193155356     A.U. after   13 cycles
 E2 =    -0.1078025440D+01 EUMP2 =    -0.35427118079575D+03
 CCSD(T)
 CCSD(T)= -0.35435688738D+03
 TQ=-354.357641\MP4SDQ=-354.3224026\CCSD=-354.3226996\CCSD(T)=-354.3568
 Normal termination of Gaussian 09 at Sun Aug 21 17:31:00 2022.

 ---------------------------------------------------------
 #P Geom=AllCheck Guess=TCheck SCRF=Check MP4=FrzG4/GTBas2
 ---------------------------------------------------------

 Structure from the checkpoint file:  "G4.Frag_1045.chk"
 ---------
 Frag_1045
 ---------
 Charge =  0 Multiplicity = 1

 SCF Done:  E(RHF) =  -353.209047384     A.U. after   13 cycles
 E2 =    -0.1098547967D+01 EUMP2 =    -0.35430759535149D+03
 Normal termination of Gaussian 09 at Sun Aug 21 17:50:09 2022.

 ---------------------------------------------------------
 #P Geom=AllCheck Guess=TCheck SCRF=Check MP4=FrzG4/GTBas3
 ---------------------------------------------------------

 Structure from the checkpoint file:  "G4.Frag_1045.chk"
 ---------
 Frag_1045
 ---------
 Charge =  0 Multiplicity = 1

 SCF Done:  E(RHF) =  -353.249007144     A.U. after   11 cycles
 E2 =    -0.1308264658D+01 EUMP2 =    -0.35455727180227D+03
 Normal termination of Gaussian 09 at Sun Aug 21 22:07:05 2022.

 -----------------------------------------------------------
 #P Geom=AllCheck Guess=TCheck SCRF=Check MP2=Full/GTLargeXP
 -----------------------------------------------------------

 Structure from the checkpoint file:  "G4.Frag_1045.chk"
 ---------
 Frag_1045
 ---------
 Charge =  0 Multiplicity = 1

 SCF Done:  E(RHF) =  -353.344504942     A.U. after   12 cycles
 E2 =    -0.1704842674D+01 EUMP2 =    -0.35504934761605D+03
 Normal termination of Gaussian 09 at Sun Aug 21 22:18:31 2022.
 SCF Done:  E(RHF) =  -353.371160007     A.U. after    8 cycles
 Normal termination of Gaussian 09 at Sun Aug 21 22:27:17 2022.

                         Standard orientation:
 ---------------------------------------------------------------------
 Center     Atomic      Atomic             Coordinates (Angstroms)
 Number     Number       Type             X           Y           Z
 ---------------------------------------------------------------------
      1          7           0       -1.497284    1.294769   -0.000520
      2          6           0       -0.943896    0.144284   -0.006338
      3          7           0       -1.560942   -1.089996    0.048340
      4          6           0        0.602349    0.026843    0.005707
      5          7           0        0.955164   -0.948930   -1.043066
      6          7           0        1.175006    1.351595   -0.103088
      7          7           0        1.106634   -0.565083    1.249193
      8          1           0       -2.516716    1.225838    0.007468
      9          1           0       -2.553544   -1.105387   -0.131213
     10          1           0       -1.032152   -1.822048   -0.410234
     11          1           0        0.861551   -0.521350   -1.960140
     12          1           0        1.927780   -1.209641   -0.907506
     13          1           0        0.505325    1.991337   -0.515309
     14          1           0        2.038076    1.334660   -0.630393
     15          1           0        0.533287   -1.358129    1.521832
     16          1           0        1.035631    0.141479    1.973265
 ---------------------------------------------------------------------

 SCF Done:  E(RHF) =  -353.376977142     A.U. after    8 cycles

 The electronic state is 1-A.
 Alpha  occ. eigenvalues --  -15.57254 -15.55214 -15.53981 -15.53105 -15.52862
 Alpha  occ. eigenvalues --  -11.32948 -11.31513  -1.29085  -1.23161  -1.15431
 Alpha  occ. eigenvalues --   -1.13142  -1.11943  -0.89078  -0.76508  -0.72110
 Alpha  occ. eigenvalues --   -0.71315  -0.67435  -0.66127  -0.63903  -0.58528
 Alpha  occ. eigenvalues --   -0.57335  -0.54993  -0.51543  -0.46796  -0.43963
 Alpha  occ. eigenvalues --   -0.40082  -0.38389  -0.37740
 Alpha virt. eigenvalues --    0.03246   0.04335   0.05077   0.05427   0.06709
 Alpha virt. eigenvalues --    0.07057   0.07150   0.08973   0.09472   0.11142
 Alpha virt. eigenvalues --    0.11638   0.12395   0.12703   0.13175   0.13460

 Mulliken charges:
               1
     1  N   -0.702159
     2  C    0.379535
     3  N   -0.737635
     4  C    0.525000
     5  N   -0.800653
     6  N   -0.764045
     7  N   -0.721742
     8  H    0.256635
     9  H    0.305353
    10  H    0.359959
    11  H    0.302485
    12  H    0.331081
    13  H    0.343698
    14  H    0.291297
    15  H    0.305794
    16  H    0.325398
 Sum of Mulliken charges =  -0.00000

 Dipole moment (field-independent basis, Debye):
    X=             -1.0866    Y=             -1.9392    Z=             -1.9879  Tot=              2.9820
 Quadrupole moment (field-independent basis, Debye-Ang):
   XX=            -37.7533   YY=            -47.5678   ZZ=            -41.1654
   XY=              3.4316   XZ=             -2.9675   YZ=             -1.2983

 Normal termination of Gaussian 09 at Mon Aug 22 02:52:28 2022.
