 Gaussian 09, Revision E.01,
 Gaussian 09:  ES64L-G09RevE.01 30-Nov-2015

 -----
 #P G4
 -----

 --------
 Frag_483
 --------
 Symbolic Z-matrix:
 Charge =  0 Multiplicity = 1

 SCF Done:  E(RB3LYP) =  -209.194201513     A.U. after   13 cycles
 SCF Done:  E(RB3LYP) =  -209.206637543     A.U. after   12 cycles
 SCF Done:  E(RB3LYP) =  -209.207134177     A.U. after   10 cycles
 SCF Done:  E(RB3LYP) =  -209.207384814     A.U. after   11 cycles
 SCF Done:  E(RB3LYP) =  -209.207566528     A.U. after   10 cycles
 SCF Done:  E(RB3LYP) =  -209.207600410     A.U. after   10 cycles
 SCF Done:  E(RB3LYP) =  -209.207613647     A.U. after    8 cycles
 SCF Done:  E(RB3LYP) =  -209.207615553     A.U. after    7 cycles
 SCF Done:  E(RB3LYP) =  -209.207615636     A.U. after    7 cycles
 Optimization completed.
    -- Stationary point found.
 Normal termination of Gaussian 09 at Tue Aug 23 02:51:45 2022.

 ----------------------------------------------------------
 #P Geom=AllCheck Guess=TCheck SCRF=Check B3LYP/GTBas3 Freq
 ----------------------------------------------------------

 Structure from the checkpoint file:  "G4.Frag_483.chk"
 --------
 Frag_483
 --------
 Charge =  0 Multiplicity = 1

 SCF Done:  E(RB3LYP) =  -209.207615636     A.U. after    1 cycles

  Exact polarizability:  38.242   5.016  37.097  -0.001  -0.001  22.693
 Approx polarizability:  50.990  10.189  58.910  -0.002  -0.001  32.862

                      1                      2                      3
                      A                      A                      A
 Frequencies --    180.4484               385.0894               423.3210
 Red. masses --      1.0645                 1.1523                 2.5621
 Frc consts  --      0.0204                 0.1007                 0.2705
 IR Inten    --      0.0054               101.4849                 2.9259

                      4                      5                      6
                      A                      A                      A
 Frequencies --    538.7226               545.5048               859.1815
 Red. masses --      3.2830                 2.0447                 4.0334
 Frc consts  --      0.5614                 0.3585                 1.7542
 IR Inten    --     25.3425                10.9145                33.3984

                      7                      8                      9
                      A                      A                      A
 Frequencies --    921.2495              1011.6635              1075.2097
 Red. masses --      1.3529                 1.5368                 1.5175
 Frc consts  --      0.6765                 0.9267                 1.0336
 IR Inten    --     62.6572                 3.1679                 0.6926

                     10                     11                     12
                      A                      A                      A
 Frequencies --   1121.9752              1237.6787              1361.4688
 Red. masses --      1.8234                 1.2130                 1.7731
 Frc consts  --      1.3524                 1.0948                 1.9364
 IR Inten    --     41.6897                49.2733               227.0037

                     13                     14                     15
                      A                      A                      A
 Frequencies --   1413.7814              1477.9755              1487.1564
 Red. masses --      1.6209                 1.0584                 1.0436
 Frc consts  --      1.9088                 1.3622                 1.3599
 IR Inten    --     92.4942                 0.7550                 7.1668

                     16                     17                     18
                      A                      A                      A
 Frequencies --   1784.5998              3032.3120              3086.5629
 Red. masses --      7.0332                 1.0402                 1.0994
 Frc consts  --     13.1973                 5.6355                 6.1708
 IR Inten    --    154.0110                12.2575                13.8291

                     19                     20                     21
                      A                      A                      A
 Frequencies --   3167.2025              3462.8321              3811.7707
 Red. masses --      1.0976                 1.0735                 1.0661
 Frc consts  --      6.4870                 7.5843                 9.1265
 IR Inten    --      3.9177                 1.0968                35.2676

 - Thermochemistry -
 -------------------
 Temperature   298.150 Kelvin.  Pressure   1.00000 Atm.
 Atom     1 has atomic number  6 and mass  12.00000

 Molecular mass:    59.03711 amu.
 Principal axes and moments of inertia in atomic units:
                           1         2         3
     Eigenvalues --   169.18312 193.27976 351.19024
           X            0.99497   0.10017   0.00000
           Y           -0.10017   0.99497  -0.00002
           Z           -0.00001   0.00002   1.00000
 This molecule is an asymmetric top.
 Rotational symmetry number  1.
 Rotational temperatures (Kelvin)      0.51195     0.44813     0.24663
 Rotational constants (GHZ):          10.66738     9.33746     5.13893
 Zero-point vibrational energy     193709.5 (Joules/Mol)
                                   46.29769 (Kcal/Mol)
 Warning -- explicit consideration of   5 degrees of freedom as
           vibrations may cause significant error
 Vibrational temperatures:    259.62   554.06   609.06   775.10   784.86
          (Kelvin)           1236.17  1325.47  1455.56  1546.99  1614.27
                             1780.74  1958.85  2034.11  2126.47  2139.68
                             2567.64  4362.82  4440.87  4556.89  4982.24
                             5484.28

 Zero-point correction=                           0.073780 (Hartree/Particle)
 Thermal correction to Energy=                    0.078446
 Thermal correction to Enthalpy=                  0.079390
 Thermal correction to Gibbs Free Energy=         0.047054
 Sum of electronic and zero-point Energies=           -209.133836
 Sum of electronic and thermal Energies=              -209.129169
 Sum of electronic and thermal Enthalpies=            -209.128225
 Sum of electronic and thermal Free Energies=         -209.160562

                     E (Thermal)             CV                S
                      KCal/Mol        Cal/Mol-Kelvin    Cal/Mol-Kelvin
 Total                   49.226             15.611             68.058
 Electronic               0.000              0.000              0.000
 Translational            0.889              2.981             38.147
 Rotational               0.889              2.981             23.955
 Vibrational             47.448              9.649              5.955
 Vibration     1          0.629              1.866              2.324
 Vibration     2          0.754              1.502              1.019
 Vibration     3          0.785              1.420              0.881
 Vibration     4          0.894              1.164              0.568
 Vibration     5          0.901              1.150              0.554

 Optimization completed.
    -- Stationary point found.
 Normal termination of Gaussian 09 at Tue Aug 23 02:52:17 2022.

 -----------------------------------------------------------------
 #P Geom=AllCheck Guess=TCheck SCRF=Check CCSD(T,E4T,FrzG4)/GTBas1
 -----------------------------------------------------------------

 Structure from the checkpoint file:  "G4.Frag_483.chk"
 --------
 Frag_483
 --------
 Charge =  0 Multiplicity = 1

 SCF Done:  E(RHF) =  -207.944762278     A.U. after   13 cycles
 E2 =    -0.5962512895D+00 EUMP2 =    -0.20854101356705D+03
 CCSD(T)
 CCSD(T)= -0.20859039940D+03
 3\CCSD=-208.5716491\CCSD(T)=-208.5903994\RMSD=3.689e-09\PG=C01 [X(C2H5
 Normal termination of Gaussian 09 at Tue Aug 23 02:52:40 2022.

 ---------------------------------------------------------
 #P Geom=AllCheck Guess=TCheck SCRF=Check MP4=FrzG4/GTBas2
 ---------------------------------------------------------

 Structure from the checkpoint file:  "G4.Frag_483.chk"
 --------
 Frag_483
 --------
 Charge =  0 Multiplicity = 1

 SCF Done:  E(RHF) =  -207.952264682     A.U. after   12 cycles
 E2 =    -0.6052744396D+00 EUMP2 =    -0.20855753912137D+03
 Normal termination of Gaussian 09 at Tue Aug 23 02:52:51 2022.

 ---------------------------------------------------------
 #P Geom=AllCheck Guess=TCheck SCRF=Check MP4=FrzG4/GTBas3
 ---------------------------------------------------------

 Structure from the checkpoint file:  "G4.Frag_483.chk"
 --------
 Frag_483
 --------
 Charge =  0 Multiplicity = 1

 SCF Done:  E(RHF) =  -207.975077746     A.U. after   11 cycles
 E2 =    -0.7304044587D+00 EUMP2 =    -0.20870548220492D+03
 Normal termination of Gaussian 09 at Tue Aug 23 02:56:46 2022.

 -----------------------------------------------------------
 #P Geom=AllCheck Guess=TCheck SCRF=Check MP2=Full/GTLargeXP
 -----------------------------------------------------------

 Structure from the checkpoint file:  "G4.Frag_483.chk"
 --------
 Frag_483
 --------
 Charge =  0 Multiplicity = 1

 SCF Done:  E(RHF) =  -208.031856995     A.U. after   12 cycles
 E2 =    -0.9569372101D+00 EUMP2 =    -0.20898879420556D+03
 Normal termination of Gaussian 09 at Tue Aug 23 02:57:28 2022.
 SCF Done:  E(RHF) =  -208.048756645     A.U. after    8 cycles
 Normal termination of Gaussian 09 at Tue Aug 23 02:58:47 2022.

                         Standard orientation:
 ---------------------------------------------------------------------
 Center     Atomic      Atomic             Coordinates (Angstroms)
 Number     Number       Type             X           Y           Z
 ---------------------------------------------------------------------
      1          6           0        1.380569   -0.201231    0.000016
      2          6           0       -0.120422   -0.100757   -0.000015
      3          7           0       -0.866220   -1.121601   -0.000010
      4          8           0       -0.627578    1.169728    0.000090
      5          1           0        1.801726    0.290590    0.884832
      6          1           0        1.801796    0.290271   -0.884956
      7          1           0        1.677688   -1.248726    0.000190
      8          1           0       -1.848567   -0.838580   -0.000145
      9          1           0        0.090634    1.811756   -0.000571
 ---------------------------------------------------------------------

 SCF Done:  E(RHF) =  -208.052379319     A.U. after    8 cycles

 The electronic state is 1-A.
 Alpha  occ. eigenvalues --  -20.60261 -15.53144 -11.34293 -11.24509  -1.42559
 Alpha  occ. eigenvalues --   -1.19397  -1.00643  -0.80577  -0.72541  -0.67009
 Alpha  occ. eigenvalues --   -0.63016  -0.56958  -0.55673  -0.53634  -0.44258
 Alpha  occ. eigenvalues --   -0.40685
 Alpha virt. eigenvalues --    0.03319   0.04652   0.05576   0.05711   0.07588
 Alpha virt. eigenvalues --    0.07935   0.08081   0.11551   0.12596   0.14019
 Alpha virt. eigenvalues --    0.15182   0.15332   0.15565   0.16864   0.18077

 Mulliken charges:
               1
     1  C   -0.524753
     2  C    0.410964
     3  N   -0.636466
     4  O   -0.529864
     5  H    0.192634
     6  H    0.192609
     7  H    0.224729
     8  H    0.292334
     9  H    0.377812
 Sum of Mulliken charges =  -0.00000

 Dipole moment (field-independent basis, Debye):
    X=              2.2015    Y=              2.4888    Z=             -0.0013  Tot=              3.3227
 Quadrupole moment (field-independent basis, Debye-Ang):
   XX=            -22.1961   YY=            -26.5199   ZZ=            -25.3257
   XY=              1.1964   XZ=              0.0002   YZ=             -0.0024

 Normal termination of Gaussian 09 at Tue Aug 23 03:39:44 2022.
