 Gaussian 09, Revision E.01,
 Gaussian 09:  ES64L-G09RevE.01 30-Nov-2015

 -----
 #P G4
 -----

 --------
 Frag_935
 --------
 Symbolic Z-matrix:
 Charge =  0 Multiplicity = 1

 SCF Done:  E(RB3LYP) =  -343.148202366     A.U. after   13 cycles
 SCF Done:  E(RB3LYP) =  -343.156041963     A.U. after   11 cycles
 SCF Done:  E(RB3LYP) =  -343.159296145     A.U. after   12 cycles
 SCF Done:  E(RB3LYP) =  -343.162495869     A.U. after   12 cycles
 SCF Done:  E(RB3LYP) =  -343.164225887     A.U. after   11 cycles
 SCF Done:  E(RB3LYP) =  -343.167361184     A.U. after   11 cycles
 SCF Done:  E(RB3LYP) =  -343.170027415     A.U. after   11 cycles
 SCF Done:  E(RB3LYP) =  -343.171591209     A.U. after   11 cycles
 SCF Done:  E(RB3LYP) =  -343.172366594     A.U. after   11 cycles
 SCF Done:  E(RB3LYP) =  -343.172899937     A.U. after   11 cycles
 SCF Done:  E(RB3LYP) =  -343.174571787     A.U. after    7 cycles
 SCF Done:  E(RB3LYP) =  -343.174571914     A.U. after    7 cycles
 SCF Done:  E(RB3LYP) =  -343.174571949     A.U. after    6 cycles
 Optimization completed.
    -- Stationary point found.
 Normal termination of Gaussian 09 at Fri Aug 26 12:39:33 2022.

 ----------------------------------------------------------
 #P Geom=AllCheck Guess=TCheck SCRF=Check B3LYP/GTBas3 Freq
 ----------------------------------------------------------

 Structure from the checkpoint file:  "G4.Frag_935.chk"
 --------
 Frag_935
 --------
 Charge =  0 Multiplicity = 1

 SCF Done:  E(RB3LYP) =  -343.174571949     A.U. after    1 cycles

  Exact polarizability:  65.336   3.161  71.246  -0.127   0.185  49.742
 Approx polarizability:  87.460   8.445 108.793   0.227  -1.240  74.216

                      1                      2                      3
                      A                      A                      A
 Frequencies --     70.9756               176.0066               192.8274
 Red. masses --      3.1776                 1.1227                 1.0613
 Frc consts  --      0.0094                 0.0205                 0.0232
 IR Inten    --      0.4654                16.1018                 0.5798

                      4                      5                      6
                      A                      A                      A
 Frequencies --    215.4677               261.9915               294.5679
 Red. masses --      1.2403                 2.3905                 2.9537
 Frc consts  --      0.0339                 0.0967                 0.1510
 IR Inten    --     20.4877                 3.6602                 7.8264

                      7                      8                      9
                      A                      A                      A
 Frequencies --    374.4381               381.5744               402.7880
 Red. masses --      1.6135                 2.0562                 2.8477
 Frc consts  --      0.1333                 0.1764                 0.2722
 IR Inten    --     42.1471                13.8037                25.9334

                     10                     11                     12
                      A                      A                      A
 Frequencies --    505.1985               528.6184               554.1612
 Red. masses --      2.5947                 2.4984                 3.2582
 Frc consts  --      0.3902                 0.4113                 0.5895
 IR Inten    --      7.9651                 3.9921                15.4871

                     13                     14                     15
                      A                      A                      A
 Frequencies --    586.8352               721.6363               761.1725
 Red. masses --      2.3131                 2.9085                 1.2366
 Frc consts  --      0.4693                 0.8924                 0.4221
 IR Inten    --     12.9098                45.9542                 6.8082

                     16                     17                     18
                      A                      A                      A
 Frequencies --    788.4092               894.6889               926.5716
 Red. masses --      1.4687                 1.5041                 2.4517
 Frc consts  --      0.5379                 0.7094                 1.2401
 IR Inten    --    144.1857               187.6364                23.3833

                     19                     20                     21
                      A                      A                      A
 Frequencies --    934.2604               972.9636              1013.7639
 Red. masses --      1.3812                 1.9365                 1.4790
 Frc consts  --      0.7103                 1.0801                 0.8955
 IR Inten    --     36.1835                30.3625                42.2199

                     22                     23                     24
                      A                      A                      A
 Frequencies --   1052.9454              1071.6350              1103.7956
 Red. masses --      2.0246                 1.5082                 1.9176
 Frc consts  --      1.3225                 1.0204                 1.3765
 IR Inten    --     76.4494                 9.8068                92.6816

                     25                     26                     27
                      A                      A                      A
 Frequencies --   1251.9167              1282.8547              1322.6174
 Red. masses --      2.1520                 1.8370                 1.9601
 Frc consts  --      1.9872                 1.7812                 2.0202
 IR Inten    --     27.4540                33.6767                32.9027

                     28                     29                     30
                      A                      A                      A
 Frequencies --   1395.5034              1407.1354              1445.9147
 Red. masses --      1.6618                 1.2825                 1.1886
 Frc consts  --      1.9068                 1.4962                 1.4640
 IR Inten    --     55.0663                 1.0340                 2.7884

                     31                     32                     33
                      A                      A                      A
 Frequencies --   1476.6691              1493.6974              1620.3956
 Red. masses --      1.0472                 1.0622                 1.1026
 Frc consts  --      1.3453                 1.3963                 1.7057
 IR Inten    --      7.7046                14.6453                47.8909

                     34                     35                     36
                      A                      A                      A
 Frequencies --   1645.8249              1715.3971              3034.4555
 Red. masses --      1.1315                 5.4656                 1.0397
 Frc consts  --      1.8058                 9.4758                 5.6406
 IR Inten    --     23.0996                 7.5245                21.8839

                     37                     38                     39
                      A                      A                      A
 Frequencies --   3094.7362              3125.5470              3147.6293
 Red. masses --      1.0932                 1.1028                 1.0607
 Frc consts  --      6.1687                 6.3474                 6.1915
 IR Inten    --     17.7402                15.3039                 7.2471

                     40                     41                     42
                      A                      A                      A
 Frequencies --   3224.6840              3492.8604              3539.3783
 Red. masses --      1.1138                 1.0504                 1.0478
 Frc consts  --      6.8240                 7.5505                 7.7333
 IR Inten    --     14.0731                 1.7977                 2.8313

                     43                     44                     45
                      A                      A                      A
 Frequencies --   3584.6653              3639.4012              3796.7997
 Red. masses --      1.0908                 1.0956                 1.0648
 Frc consts  --      8.2585                 8.5496                 9.0437
 IR Inten    --      3.2340                 8.6463                40.0746

 - Thermochemistry -
 -------------------
 Temperature   298.150 Kelvin.  Pressure   1.00000 Atm.
 Atom     1 has atomic number  6 and mass  12.00000

 Molecular mass:   102.07931 amu.
 Principal axes and moments of inertia in atomic units:
                           1         2         3
     Eigenvalues --   535.80732 755.35369 930.86861
           X            0.99895  -0.04572  -0.00029
           Y            0.04571   0.99857   0.02775
           Z           -0.00098  -0.02774   0.99961
 This molecule is an asymmetric top.
 Rotational symmetry number  1.
 Warning -- assumption of classical behavior for rotation
           may cause significant error
 Rotational temperatures (Kelvin)      0.16165     0.11467     0.09305
 Rotational constants (GHZ):           3.36827     2.38927     1.93877
 Zero-point vibrational energy     385947.5 (Joules/Mol)
                                   92.24366 (Kcal/Mol)
 Warning -- explicit consideration of  13 degrees of freedom as
           vibrations may cause significant error
 Vibrational temperatures:    102.12   253.23   277.44   310.01   376.95
          (Kelvin)            423.82   538.73   549.00   579.52   726.87
                              760.56   797.31   844.32  1038.27  1095.16
                             1134.34  1287.26  1333.13  1344.19  1399.88
                             1458.58  1514.95  1541.84  1588.11  1801.23
                             1845.74  1902.95  2007.82  2024.55  2080.35
                             2124.59  2149.09  2331.38  2367.97  2468.07
                             4365.90  4452.63  4496.96  4528.73  4639.60
                             5025.44  5092.37  5157.53  5236.28  5462.74

 Zero-point correction=                           0.147000 (Hartree/Particle)
 Thermal correction to Energy=                    0.155638
 Thermal correction to Enthalpy=                  0.156582
 Thermal correction to Gibbs Free Energy=         0.114773
 Sum of electronic and zero-point Energies=           -343.027572
 Sum of electronic and thermal Energies=              -343.018934
 Sum of electronic and thermal Enthalpies=            -343.017990
 Sum of electronic and thermal Free Energies=         -343.059799

                     E (Thermal)             CV                S
                      KCal/Mol        Cal/Mol-Kelvin    Cal/Mol-Kelvin
 Total                   97.664             32.341             87.995
 Electronic               0.000              0.000              0.000
 Translational            0.889              2.981             39.779
 Rotational               0.889              2.981             27.424
 Vibrational             95.887             26.379             20.791
 Vibration     1          0.598              1.968              4.126
 Vibration     2          0.628              1.872              2.370
 Vibration     3          0.635              1.850              2.200
 Vibration     4          0.645              1.817              1.997
 Vibration     5          0.669              1.742              1.648
 Vibration     6          0.689              1.684              1.448
 Vibration     7          0.746              1.525              1.062
 Vibration     8          0.751              1.509              1.033
 Vibration     9          0.768              1.464              0.952
 Vibration    10          0.860              1.238              0.645
 Vibration    11          0.884              1.187              0.590
 Vibration    12          0.910              1.131              0.536
 Vibration    13          0.944              1.060              0.473

 Optimization completed.
    -- Stationary point found.
 Normal termination of Gaussian 09 at Fri Aug 26 12:40:25 2022.

 -----------------------------------------------------------------
 #P Geom=AllCheck Guess=TCheck SCRF=Check CCSD(T,E4T,FrzG4)/GTBas1
 -----------------------------------------------------------------

 Structure from the checkpoint file:  "G4.Frag_935.chk"
 --------
 Frag_935
 --------
 Charge =  0 Multiplicity = 1

 SCF Done:  E(RHF) =  -341.014636032     A.U. after   12 cycles
 E2 =    -0.1026396881D+01 EUMP2 =    -0.34204103291330D+03
 CCSD(T)
 CCSD(T)= -0.34213354487D+03
 342.0998864\CCSD=-342.1007105\CCSD(T)=-342.1335449\RMSD=6.987e-09\PG=C
 Normal termination of Gaussian 09 at Fri Aug 26 12:44:46 2022.

 ---------------------------------------------------------
 #P Geom=AllCheck Guess=TCheck SCRF=Check MP4=FrzG4/GTBas2
 ---------------------------------------------------------

 Structure from the checkpoint file:  "G4.Frag_935.chk"
 --------
 Frag_935
 --------
 Charge =  0 Multiplicity = 1

 SCF Done:  E(RHF) =  -341.028327455     A.U. after   13 cycles
 E2 =    -0.1043857645D+01 EUMP2 =    -0.34207218509983D+03
 Normal termination of Gaussian 09 at Fri Aug 26 12:46:09 2022.

 ---------------------------------------------------------
 #P Geom=AllCheck Guess=TCheck SCRF=Check MP4=FrzG4/GTBas3
 ---------------------------------------------------------

 Structure from the checkpoint file:  "G4.Frag_935.chk"
 --------
 Frag_935
 --------
 Charge =  0 Multiplicity = 1

 SCF Done:  E(RHF) =  -341.065452490     A.U. after   11 cycles
 E2 =    -0.1261551635D+01 EUMP2 =    -0.34232700412475D+03
 Normal termination of Gaussian 09 at Fri Aug 26 12:56:57 2022.

 -----------------------------------------------------------
 #P Geom=AllCheck Guess=TCheck SCRF=Check MP2=Full/GTLargeXP
 -----------------------------------------------------------

 Structure from the checkpoint file:  "G4.Frag_935.chk"
 --------
 Frag_935
 --------
 Charge =  0 Multiplicity = 1

 SCF Done:  E(RHF) =  -341.154789782     A.U. after   13 cycles
 E2 =    -0.1652865568D+01 EUMP2 =    -0.34280765534964D+03
 Normal termination of Gaussian 09 at Fri Aug 26 13:00:39 2022.
 SCF Done:  E(RHF) =  -341.181485917     A.U. after    8 cycles
 Normal termination of Gaussian 09 at Fri Aug 26 13:04:02 2022.

                         Standard orientation:
 ---------------------------------------------------------------------
 Center     Atomic      Atomic             Coordinates (Angstroms)
 Number     Number       Type             X           Y           Z
 ---------------------------------------------------------------------
      1          6           0       -1.406230   -1.451444    0.037107
      2          6           0       -0.904960   -0.219150   -0.034423
      3          6           0       -1.786792    1.002578   -0.057129
      4          6           0        0.609213    0.042522   -0.024147
      5          7           0        1.086173    0.408650    1.322119
      6          7           0        1.438085   -1.058838   -0.475157
      7          8           0        0.822570    1.151208   -0.876792
      8          1           0       -2.476591   -1.622774    0.087362
      9          1           0       -0.775627   -2.333497    0.059225
     10          1           0       -2.841444    0.728192    0.023241
     11          1           0       -1.546656    1.682401    0.768908
     12          1           0       -1.633498    1.569533   -0.979422
     13          1           0        0.602721   -0.146142    2.023863
     14          1           0        0.836760    1.378636    1.485328
     15          1           0        0.944384   -1.678537   -1.105005
     16          1           0        1.815320   -1.580257    0.304999
     17          1           0        1.756881    1.097068   -1.111349
 ---------------------------------------------------------------------

 SCF Done:  E(RHF) =  -341.187293488     A.U. after    8 cycles

 The electronic state is 1-A.
 Alpha  occ. eigenvalues --  -20.55328 -15.54698 -15.54502 -11.35025 -11.24475
 Alpha  occ. eigenvalues --  -11.22111 -11.21992  -1.38497  -1.20841  -1.13633
 Alpha  occ. eigenvalues --   -1.07435  -0.93532  -0.86878  -0.74400  -0.71305
 Alpha  occ. eigenvalues --   -0.67922  -0.66663  -0.63310  -0.59291  -0.57786
 Alpha  occ. eigenvalues --   -0.56603  -0.54871  -0.53096  -0.50301  -0.47731
 Alpha  occ. eigenvalues --   -0.43466  -0.40016  -0.36028
 Alpha virt. eigenvalues --    0.03200   0.04247   0.04635   0.05101   0.06465
 Alpha virt. eigenvalues --    0.06822   0.07157   0.07586   0.07734   0.09382
 Alpha virt. eigenvalues --    0.10503   0.10823   0.11445   0.11590   0.11707

 Mulliken charges:
               1
     1  C   -0.490663
     2  C    0.153584
     3  C   -0.575510
     4  C    0.498094
     5  N   -0.741191
     6  N   -0.774115
     7  O   -0.609833
     8  H    0.184298
     9  H    0.181281
    10  H    0.162245
    11  H    0.165569
    12  H    0.211972
    13  H    0.302152
    14  H    0.314206
    15  H    0.306059
    16  H    0.315524
    17  H    0.396328
 Sum of Mulliken charges =  -0.00000

 Dipole moment (field-independent basis, Debye):
    X=             -1.0336    Y=             -1.1116    Z=              1.0491  Tot=              1.8451
 Quadrupole moment (field-independent basis, Debye-Ang):
   XX=            -45.7734   YY=            -40.7906   ZZ=            -44.1661
   XY=             -0.6025   XZ=             -1.3954   YZ=              0.9501

 Normal termination of Gaussian 09 at Fri Aug 26 13:16:39 2022.
