 Gaussian 09, Revision E.01,
 Gaussian 09:  ES64L-G09RevE.01 30-Nov-2015

 -----
 #P G4
 -----

 ---------
 Frag_1144
 ---------
 Symbolic Z-matrix:
 Charge =  0 Multiplicity = 1

 SCF Done:  E(RB3LYP) =  -209.165522562     A.U. after   13 cycles
 SCF Done:  E(RB3LYP) =  -209.168941726     A.U. after   12 cycles
 SCF Done:  E(RB3LYP) =  -209.169353074     A.U. after   12 cycles
 SCF Done:  E(RB3LYP) =  -209.170013809     A.U. after   13 cycles
 SCF Done:  E(RB3LYP) =  -209.170636358     A.U. after   13 cycles
 SCF Done:  E(RB3LYP) =  -209.171146076     A.U. after   12 cycles
 SCF Done:  E(RB3LYP) =  -209.171719733     A.U. after   12 cycles
 SCF Done:  E(RB3LYP) =  -209.171829925     A.U. after   11 cycles
 SCF Done:  E(RB3LYP) =  -209.171924954     A.U. after   10 cycles
 SCF Done:  E(RB3LYP) =  -209.172012627     A.U. after   11 cycles
 SCF Done:  E(RB3LYP) =  -209.172037350     A.U. after   11 cycles
 SCF Done:  E(RB3LYP) =  -209.172045895     A.U. after    9 cycles
 SCF Done:  E(RB3LYP) =  -209.172046647     A.U. after    8 cycles
 Optimization completed.
    -- Stationary point found.
 Normal termination of Gaussian 09 at Fri Aug 26 08:27:43 2022.

 ----------------------------------------------------------
 #P Geom=AllCheck Guess=TCheck SCRF=Check B3LYP/GTBas3 Freq
 ----------------------------------------------------------

 Structure from the checkpoint file:  "G4.Frag_1144.chk"
 ---------
 Frag_1144
 ---------
 Charge =  0 Multiplicity = 1

 SCF Done:  E(RB3LYP) =  -209.172046647     A.U. after    1 cycles

  Exact polarizability:  45.164   0.637  31.038  -4.284  -2.635  25.321
 Approx polarizability:  61.856   3.871  44.443  -7.043  -5.235  37.851

                      1                      2                      3
                      A                      A                      A
 Frequencies --    113.6810               269.4368               420.4879
 Red. masses --      3.5722                 1.2301                 1.9077
 Frc consts  --      0.0272                 0.0526                 0.1987
 IR Inten    --      7.1140                96.0840                48.3975

                      4                      5                      6
                      A                      A                      A
 Frequencies --    503.2319               724.4243               957.7324
 Red. masses --      2.8211                 1.3061                 3.2068
 Frc consts  --      0.4209                 0.4039                 1.7330
 IR Inten    --      9.2820                 3.3136                28.3560

                      7                      8                      9
                      A                      A                      A
 Frequencies --   1062.7967              1073.6775              1112.8151
 Red. masses --      1.6697                 1.3770                 3.6612
 Frc consts  --      1.1112                 0.9353                 2.6712
 IR Inten    --     65.4620                23.7834                80.1841

                     10                     11                     12
                      A                      A                      A
 Frequencies --   1201.9793              1264.9532              1375.1064
 Red. masses --      1.2427                 1.3367                 1.2579
 Frc consts  --      1.0578                 1.2602                 1.4014
 IR Inten    --     10.2191                17.4492                 6.3154

                     13                     14                     15
                      A                      A                      A
 Frequencies --   1432.8194              1501.4024              1512.7279
 Red. masses --      1.2005                 1.1284                 1.1199
 Frc consts  --      1.4521                 1.4986                 1.5099
 IR Inten    --     84.4619                16.6909                 5.8071

                     16                     17                     18
                      A                      A                      A
 Frequencies --   1749.4425              2958.0881              3003.7782
 Red. masses --      6.5446                 1.0590                 1.0675
 Frc consts  --     11.8013                 5.4599                 5.6748
 IR Inten    --     31.4196                61.0302                33.5138

                     19                     20                     21
                      A                      A                      A
 Frequencies --   3010.1569              3134.0466              3799.9718
 Red. masses --      1.0996                 1.1049                 1.0652
 Frc consts  --      5.8702                 6.3940                 9.0626
 IR Inten    --     63.9400                30.0914                25.0666

 - Thermochemistry -
 -------------------
 Temperature   298.150 Kelvin.  Pressure   1.00000 Atm.
 Atom     1 has atomic number  6 and mass  12.00000

 Molecular mass:    59.03711 amu.
 Principal axes and moments of inertia in atomic units:
                           1         2         3
     Eigenvalues --    58.79295 381.56673 399.39636
           X            0.99960   0.00730  -0.02742
           Y           -0.00892   0.99820  -0.05938
           Z            0.02693   0.05960   0.99786
 This molecule is an asymmetric top.
 Rotational symmetry number  1.
 Rotational temperatures (Kelvin)      1.47320     0.22700     0.21686
 Rotational constants (GHZ):          30.69656     4.72982     4.51867
 Zero-point vibrational energy     192495.6 (Joules/Mol)
                                   46.00756 (Kcal/Mol)
 Warning -- explicit consideration of   4 degrees of freedom as
           vibrations may cause significant error
 Vibrational temperatures:    163.56   387.66   604.99   724.04  1042.28
          (Kelvin)           1377.96  1529.13  1544.78  1601.09  1729.38
                             1819.98  1978.47  2061.50  2160.18  2176.48
                             2517.05  4256.02  4321.76  4330.94  4509.19
                             5467.30

 Zero-point correction=                           0.073318 (Hartree/Particle)
 Thermal correction to Energy=                    0.078113
 Thermal correction to Enthalpy=                  0.079057
 Thermal correction to Gibbs Free Energy=         0.046308
 Sum of electronic and zero-point Energies=           -209.098729
 Sum of electronic and thermal Energies=              -209.093934
 Sum of electronic and thermal Enthalpies=            -209.092990
 Sum of electronic and thermal Free Energies=         -209.125739

                     E (Thermal)             CV                S
                      KCal/Mol        Cal/Mol-Kelvin    Cal/Mol-Kelvin
 Total                   49.017             15.150             68.927
 Electronic               0.000              0.000              0.000
 Translational            0.889              2.981             38.147
 Rotational               0.889              2.981             23.709
 Vibrational             47.239              9.188              7.071
 Vibration     1          0.607              1.938              3.205
 Vibration     2          0.674              1.729              1.600
 Vibration     3          0.783              1.426              0.890
 Vibration     4          0.859              1.243              0.650

 Optimization completed.
    -- Stationary point found.
 Normal termination of Gaussian 09 at Fri Aug 26 08:27:56 2022.

 -----------------------------------------------------------------
 #P Geom=AllCheck Guess=TCheck SCRF=Check CCSD(T,E4T,FrzG4)/GTBas1
 -----------------------------------------------------------------

 Structure from the checkpoint file:  "G4.Frag_1144.chk"
 ---------
 Frag_1144
 ---------
 Charge =  0 Multiplicity = 1

 SCF Done:  E(RHF) =  -207.913012467     A.U. after   13 cycles
 E2 =    -0.5936967353D+00 EUMP2 =    -0.20850670920261D+03
 CCSD(T)
 CCSD(T)= -0.20855826443D+03
 8.5389194\CCSD=-208.5394781\CCSD(T)=-208.5582644\RMSD=5.272e-09\PG=C01
 Normal termination of Gaussian 09 at Fri Aug 26 08:28:20 2022.

 ---------------------------------------------------------
 #P Geom=AllCheck Guess=TCheck SCRF=Check MP4=FrzG4/GTBas2
 ---------------------------------------------------------

 Structure from the checkpoint file:  "G4.Frag_1144.chk"
 ---------
 Frag_1144
 ---------
 Charge =  0 Multiplicity = 1

 SCF Done:  E(RHF) =  -207.921525281     A.U. after   12 cycles
 E2 =    -0.6034689203D+00 EUMP2 =    -0.20852499420104D+03
 Normal termination of Gaussian 09 at Fri Aug 26 08:28:26 2022.

 ---------------------------------------------------------
 #P Geom=AllCheck Guess=TCheck SCRF=Check MP4=FrzG4/GTBas3
 ---------------------------------------------------------

 Structure from the checkpoint file:  "G4.Frag_1144.chk"
 ---------
 Frag_1144
 ---------
 Charge =  0 Multiplicity = 1

 SCF Done:  E(RHF) =  -207.940465186     A.U. after   12 cycles
 E2 =    -0.7272112113D+00 EUMP2 =    -0.20866767639727D+03
 Normal termination of Gaussian 09 at Fri Aug 26 08:28:54 2022.

 -----------------------------------------------------------
 #P Geom=AllCheck Guess=TCheck SCRF=Check MP2=Full/GTLargeXP
 -----------------------------------------------------------

 Structure from the checkpoint file:  "G4.Frag_1144.chk"
 ---------
 Frag_1144
 ---------
 Charge =  0 Multiplicity = 1

 SCF Done:  E(RHF) =  -207.998286122     A.U. after   12 cycles
 E2 =    -0.9538609547D+00 EUMP2 =    -0.20895214707639D+03
 Normal termination of Gaussian 09 at Fri Aug 26 08:29:12 2022.
 SCF Done:  E(RHF) =  -208.014997368     A.U. after    9 cycles
 Normal termination of Gaussian 09 at Fri Aug 26 08:29:37 2022.

                         Standard orientation:
 ---------------------------------------------------------------------
 Center     Atomic      Atomic             Coordinates (Angstroms)
 Number     Number       Type             X           Y           Z
 ---------------------------------------------------------------------
      1          6           0        1.717702   -0.004815   -0.185394
      2          7           0        0.617919   -0.403898    0.290097
      3          6           0       -0.527926    0.485414    0.216220
      4          8           0       -1.642810   -0.194637   -0.299643
      5          1           0        2.594200   -0.652355   -0.131771
      6          1           0        1.857993    0.976082   -0.662055
      7          1           0       -0.361315    1.351605   -0.441924
      8          1           0       -0.711554    0.855543    1.238836
      9          1           0       -1.700940   -1.030094    0.178423
 ---------------------------------------------------------------------

 SCF Done:  E(RHF) =  -208.018563877     A.U. after    8 cycles

 The electronic state is 1-A.
 Alpha  occ. eigenvalues --  -20.55913 -15.57223 -11.31018 -11.28715  -1.37558
 Alpha  occ. eigenvalues --   -1.23090  -0.94294  -0.81646  -0.70593  -0.67206
 Alpha  occ. eigenvalues --   -0.65247  -0.58100  -0.55333  -0.46914  -0.43550
 Alpha  occ. eigenvalues --   -0.42137
 Alpha virt. eigenvalues --    0.03878   0.04629   0.05007   0.05591   0.06859
 Alpha virt. eigenvalues --    0.07633   0.08074   0.11794   0.12254   0.13746
 Alpha virt. eigenvalues --    0.14383   0.15532   0.15980   0.16391   0.17928

 Mulliken charges:
               1
     1  C   -0.216333
     2  N   -0.297324
     3  C    0.026308
     4  O   -0.556017
     5  H    0.210080
     6  H    0.168496
     7  H    0.142198
     8  H    0.149617
     9  H    0.372976
 Sum of Mulliken charges =  -0.00000

 Dipole moment (field-independent basis, Debye):
    X=              1.8287    Y=              0.8931    Z=              0.4266  Tot=              2.0793
 Quadrupole moment (field-independent basis, Debye-Ang):
   XX=            -23.4294   YY=            -23.3372   ZZ=            -25.6300
   XY=              2.3174   XZ=             -3.6272   YZ=             -0.3153

 Normal termination of Gaussian 09 at Fri Aug 26 08:32:01 2022.
