 Gaussian 09, Revision E.01,
 Gaussian 09:  ES64L-G09RevE.01 30-Nov-2015

 -----
 #P G4
 -----

 --------
 Frag_750
 --------
 Symbolic Z-matrix:
 Charge =  0 Multiplicity = 1

 SCF Done:  E(RB3LYP) =  -234.614736486     A.U. after   13 cycles
 SCF Done:  E(RB3LYP) =  -234.616542170     A.U. after   11 cycles
 SCF Done:  E(RB3LYP) =  -234.616564142     A.U. after    8 cycles
 SCF Done:  E(RB3LYP) =  -234.616552187     A.U. after    9 cycles
 SCF Done:  E(RB3LYP) =  -234.616567915     A.U. after    9 cycles
 SCF Done:  E(RB3LYP) =  -234.616569406     A.U. after    8 cycles
 SCF Done:  E(RB3LYP) =  -234.616566369     A.U. after    7 cycles
 SCF Done:  E(RB3LYP) =  -234.616567035     A.U. after    7 cycles
 SCF Done:  E(RB3LYP) =  -234.616585925     A.U. after    6 cycles
 Optimization completed.
    -- Stationary point found.
 Normal termination of Gaussian 09 at Fri Aug 26 07:58:58 2022.

 ----------------------------------------------------------
 #P Geom=AllCheck Guess=TCheck SCRF=Check B3LYP/GTBas3 Freq
 ----------------------------------------------------------

 Structure from the checkpoint file:  "G4.Frag_750.chk"
 --------
 Frag_750
 --------
 Charge =  0 Multiplicity = 1

 SCF Done:  E(RB3LYP) =  -234.616585925     A.U. after    1 cycles

  Exact polarizability:  78.318   0.001  53.918   0.004   0.000  53.916
 Approx polarizability: 119.879  -0.000  73.654   0.008   0.003  73.652

                      1                      2                      3
                      A                      A                      A
 Frequencies --    177.6559               178.9544               219.5797
 Red. masses --      2.8499                 2.8950                 1.0141
 Frc consts  --      0.0530                 0.0546                 0.0288
 IR Inten    --      0.2704                 0.2683                 0.0001

                      4                      5                      6
                      A                      A                      A
 Frequencies --    273.1122               275.8274               351.5661
 Red. masses --      1.0587                 1.0545                 2.2687
 Frc consts  --      0.0465                 0.0473                 0.1652
 IR Inten    --      0.0002                 0.0020                 0.3724

                      7                      8                      9
                      A                      A                      A
 Frequencies --    354.9458               379.5777               552.6067
 Red. masses --      2.2658                 2.4565                 4.5958
 Frc consts  --      0.1682                 0.2085                 0.8269
 IR Inten    --      0.3717                 0.0929                 2.8275

                     10                     11                     12
                      A                      A                      A
 Frequencies --    553.0607               625.4981               625.5505
 Red. masses --      4.5831                 1.2180                 1.2180
 Frc consts  --      0.8260                 0.2808                 0.2808
 IR Inten    --      2.8281                43.9139                43.9141

                     13                     14                     15
                      A                      A                      A
 Frequencies --    695.0008               893.3539               931.7730
 Red. masses --      3.8834                 2.1309                 1.8008
 Frc consts  --      1.1052                 1.0020                 0.9212
 IR Inten    --      0.5344                 0.8208                 0.3419

                     16                     17                     18
                      A                      A                      A
 Frequencies --    934.2056               965.4263              1050.2563
 Red. masses --      1.7945                 1.1975                 1.3965
 Frc consts  --      0.9228                 0.6576                 0.9076
 IR Inten    --      0.3381                 0.0003                 0.2705

                     19                     20                     21
                      A                      A                      A
 Frequencies --   1051.0100              1224.1997              1226.1632
 Red. masses --      1.4001                 2.6598                 2.6642
 Frc consts  --      0.9112                 2.3486                 2.3600
 IR Inten    --      0.2734                 6.0352                 6.0519

                     22                     23                     24
                      A                      A                      A
 Frequencies --   1273.2411              1394.1855              1395.0252
 Red. masses --      2.6960                 1.2074                 1.2099
 Frc consts  --      2.5751                 1.3828                 1.3873
 IR Inten    --     21.5347                 3.0358                 3.0014

                     25                     26                     27
                      A                      A                      A
 Frequencies --   1426.8091              1474.2707              1485.5084
 Red. masses --      1.2143                 1.0489                 1.0441
 Frc consts  --      1.4565                 1.3432                 1.3576
 IR Inten    --      0.4003                 0.0051                 0.2295

                     28                     29                     30
                      A                      A                      A
 Frequencies --   1486.0223              1498.2214              1498.4655
 Red. masses --      1.0442                 1.0514                 1.0515
 Frc consts  --      1.3586                 1.3905                 1.3911
 IR Inten    --      0.2063                 5.0539                 4.9339

                     31                     32                     33
                      A                      A                      A
 Frequencies --   1517.5411              2230.2141              3032.8072
 Red. masses --      1.0605                 5.9332                 1.0345
 Frc consts  --      1.4389                17.3873                 5.6061
 IR Inten    --      5.3026                 2.7942                21.2982

                     34                     35                     36
                      A                      A                      A
 Frequencies --   3033.0534              3039.4185              3105.3697
 Red. masses --      1.0346                 1.0354                 1.1013
 Frc consts  --      5.6075                 5.6355                 6.2571
 IR Inten    --     21.1486                23.7259                 5.0005

                     37                     38                     39
                      A                      A                      A
 Frequencies --   3105.5763              3111.7417              3115.3738
 Red. masses --      1.1013                 1.1006                 1.1032
 Frc consts  --      6.2578                 6.2787                 6.3084
 IR Inten    --      4.9138                59.2180                 0.1799

                     40                     41                     42
                      A                      A                      A
 Frequencies --   3119.2442              3119.6433              3502.7694
 Red. masses --      1.1022                 1.1022                 1.1614
 Frc consts  --      6.3185                 6.3202                 8.3956
 IR Inten    --     35.5233                35.1241                63.8833

 - Thermochemistry -
 -------------------
 Temperature   298.150 Kelvin.  Pressure   1.00000 Atm.
 Atom     1 has atomic number  6 and mass  12.00000

 Molecular mass:    82.07825 amu.
 Principal axes and moments of inertia in atomic units:
                           1         2         3
     Eigenvalues --   400.16522 672.33540 672.37163
           X            1.00000  -0.00004  -0.00002
           Y            0.00004   0.99994   0.01130
           Z            0.00002  -0.01130   0.99994
 This molecule is an asymmetric top.
 Rotational symmetry number  1.
 Rotational temperatures (Kelvin)      0.21645     0.12883     0.12882
 Rotational constants (GHZ):           4.50999     2.68429     2.68414
 Zero-point vibrational energy     367874.6 (Joules/Mol)
                                   87.92413 (Kcal/Mol)
 Warning -- explicit consideration of  10 degrees of freedom as
           vibrations may cause significant error
 Vibrational temperatures:    255.61   257.48   315.93   392.95   396.85
          (Kelvin)            505.82   510.69   546.13   795.08   795.73
                              899.95   900.03   999.95  1285.34  1340.61
                             1344.11  1389.03  1511.08  1512.17  1761.35
                             1764.17  1831.91  2005.92  2007.13  2052.86
                             2121.14  2137.31  2138.05  2155.60  2155.95
                             2183.40  3208.78  4363.53  4363.88  4373.04
                             4467.93  4468.23  4477.10  4482.32  4487.89
                             4488.47  5039.70

 Zero-point correction=                           0.140116 (Hartree/Particle)
 Thermal correction to Energy=                    0.147753
 Thermal correction to Enthalpy=                  0.148698
 Thermal correction to Gibbs Free Energy=         0.109717
 Sum of electronic and zero-point Energies=           -234.476470
 Sum of electronic and thermal Energies=              -234.468833
 Sum of electronic and thermal Enthalpies=            -234.467888
 Sum of electronic and thermal Free Energies=         -234.506869

                     E (Thermal)             CV                S
                      KCal/Mol        Cal/Mol-Kelvin    Cal/Mol-Kelvin
 Total                   92.717             28.472             82.043
 Electronic               0.000              0.000              0.000
 Translational            0.889              2.981             39.129
 Rotational               0.889              2.981             26.695
 Vibrational             90.939             22.511             16.218
 Vibration     1          0.628              1.870              2.353
 Vibration     2          0.629              1.868              2.339
 Vibration     3          0.647              1.811              1.963
 Vibration     4          0.676              1.723              1.576
 Vibration     5          0.677              1.718              1.559
 Vibration     6          0.728              1.572              1.159
 Vibration     7          0.731              1.565              1.144
 Vibration     8          0.750              1.514              1.041
 Vibration     9          0.908              1.134              0.539
 Vibration    10          0.908              1.133              0.538

 Normal termination of Gaussian 09 at Fri Aug 26 07:59:36 2022.

 -----------------------------------------------------------------
 #P Geom=AllCheck Guess=TCheck SCRF=Check CCSD(T,E4T,FrzG4)/GTBas1
 -----------------------------------------------------------------

 Structure from the checkpoint file:  "G4.Frag_750.chk"
 --------
 Frag_750
 --------
 Charge =  0 Multiplicity = 1

 SCF Done:  E(RHF) =  -232.967471887     A.U. after   11 cycles
 E2 =    -0.7780506703D+00 EUMP2 =    -0.23374552255712D+03
 CCSD(T)
 CCSD(T)= -0.23383399461D+03
 233.8336649\MP4SDQ=-233.803138\CCSD=-233.8041217\CCSD(T)=-233.8339946\
 Normal termination of Gaussian 09 at Fri Aug 26 08:01:37 2022.

 ---------------------------------------------------------
 #P Geom=AllCheck Guess=TCheck SCRF=Check MP4=FrzG4/GTBas2
 ---------------------------------------------------------

 Structure from the checkpoint file:  "G4.Frag_750.chk"
 --------
 Frag_750
 --------
 Charge =  0 Multiplicity = 1

 SCF Done:  E(RHF) =  -232.973851183     A.U. after   11 cycles
 E2 =    -0.7851536651D+00 EUMP2 =    -0.23375900484807D+03
 Normal termination of Gaussian 09 at Fri Aug 26 08:02:16 2022.

 ---------------------------------------------------------
 #P Geom=AllCheck Guess=TCheck SCRF=Check MP4=FrzG4/GTBas3
 ---------------------------------------------------------

 Structure from the checkpoint file:  "G4.Frag_750.chk"
 --------
 Frag_750
 --------
 Charge =  0 Multiplicity = 1

 SCF Done:  E(RHF) =  -232.997439683     A.U. after   10 cycles
 E2 =    -0.9559982830D+00 EUMP2 =    -0.23395343796638D+03
 Normal termination of Gaussian 09 at Fri Aug 26 08:06:11 2022.

 -----------------------------------------------------------
 #P Geom=AllCheck Guess=TCheck SCRF=Check MP2=Full/GTLargeXP
 -----------------------------------------------------------

 Structure from the checkpoint file:  "G4.Frag_750.chk"
 --------
 Frag_750
 --------
 Charge =  0 Multiplicity = 1

 SCF Done:  E(RHF) =  -233.046886427     A.U. after   10 cycles
 E2 =    -0.1266183717D+01 EUMP2 =    -0.23431307014450D+03
 Normal termination of Gaussian 09 at Fri Aug 26 08:08:21 2022.
 SCF Done:  E(RHF) =  -233.065138396     A.U. after    8 cycles
 Normal termination of Gaussian 09 at Fri Aug 26 08:10:33 2022.

                         Standard orientation:
 ---------------------------------------------------------------------
 Center     Atomic      Atomic             Coordinates (Angstroms)
 Number     Number       Type             X           Y           Z
 ---------------------------------------------------------------------
      1          6           0        2.373607    0.000381    0.000378
      2          6           0        1.171073    0.000470    0.000299
      3          6           0       -0.296532   -0.000026    0.000071
      4          6           0       -0.805179   -1.403478    0.400051
      5          6           0       -0.806521    1.048066    1.014914
      6          6           0       -0.805197    0.354845   -1.415419
      7          1           0        3.435412    0.000227    0.000493
      8          1           0       -0.452537   -2.162288   -0.304093
      9          1           0       -0.453075   -1.676895    1.398627
     10          1           0       -1.900361   -1.418885    0.404184
     11          1           0       -1.901734    1.059282    1.024179
     12          1           0       -0.455520    0.817769    2.024731
     13          1           0       -0.453876    2.049622    0.753146
     14          1           0       -1.900409    0.358534   -1.431348
     15          1           0       -0.452853    1.344208   -1.720300
     16          1           0       -0.452551   -0.373122   -2.151375
 ---------------------------------------------------------------------

 SCF Done:  E(RHF) =  -233.068770027     A.U. after    7 cycles

 The electronic state is 1-A.
 Alpha  occ. eigenvalues --  -11.26283 -11.22573 -11.22037 -11.22035 -11.22034
 Alpha  occ. eigenvalues --  -11.21471  -1.11877  -1.00301  -0.93729  -0.93727
 Alpha  occ. eigenvalues --   -0.81766  -0.70420  -0.64695  -0.60535  -0.60532
 Alpha  occ. eigenvalues --   -0.54914  -0.54911  -0.51990  -0.51138  -0.48275
 Alpha  occ. eigenvalues --   -0.48271  -0.38072  -0.38071
 Alpha virt. eigenvalues --    0.03456   0.04004   0.04394   0.04394   0.06139
 Alpha virt. eigenvalues --    0.06964   0.06964   0.07003   0.07004   0.08952
 Alpha virt. eigenvalues --    0.09742   0.09743   0.09988   0.10836   0.12452

 Mulliken charges:
               1
     1  C   -0.560799
     2  C    0.063947
     3  C    0.389343
     4  C   -0.559786
     5  C   -0.559782
     6  C   -0.559771
     7  H    0.242985
     8  H    0.174270
     9  H    0.174257
    10  H    0.166089
    11  H    0.166113
    12  H    0.174237
    13  H    0.174286
    14  H    0.166072
    15  H    0.174276
    16  H    0.174262
 Sum of Mulliken charges =  -0.00000

 Dipole moment (field-independent basis, Debye):
    X=             -0.7394    Y=             -0.0007    Z=             -0.0002  Tot=              0.7394
 Quadrupole moment (field-independent basis, Debye-Ang):
   XX=            -35.5621   YY=            -40.0082   ZZ=            -40.0087
   XY=             -0.0010   XZ=              0.0009   YZ=              0.0009

 Normal termination of Gaussian 09 at Fri Aug 26 08:18:10 2022.
