 Gaussian 09, Revision E.01,
 Gaussian 09:  ES64L-G09RevE.01 30-Nov-2015

 -----
 #P G4
 -----

 ---------
 Frag_1109
 ---------
 Symbolic Z-matrix:
 Charge =  0 Multiplicity = 1

 SCF Done:  E(RB3LYP) =  -264.427426666     A.U. after   14 cycles
 SCF Done:  E(RB3LYP) =  -264.438300658     A.U. after   12 cycles
 SCF Done:  E(RB3LYP) =  -264.443567547     A.U. after   12 cycles
 SCF Done:  E(RB3LYP) =  -264.449621046     A.U. after   13 cycles
 SCF Done:  E(RB3LYP) =  -264.452988257     A.U. after   13 cycles
 SCF Done:  E(RB3LYP) =  -264.456764019     A.U. after   13 cycles
 SCF Done:  E(RB3LYP) =  -264.458085863     A.U. after   12 cycles
 SCF Done:  E(RB3LYP) =  -264.458734112     A.U. after   12 cycles
 SCF Done:  E(RB3LYP) =  -264.458913651     A.U. after   10 cycles
 SCF Done:  E(RB3LYP) =  -264.458944274     A.U. after   10 cycles
 SCF Done:  E(RB3LYP) =  -264.458964996     A.U. after    8 cycles
 SCF Done:  E(RB3LYP) =  -264.458966787     A.U. after    8 cycles
 SCF Done:  E(RB3LYP) =  -264.458967494     A.U. after    7 cycles
 Optimization completed.
    -- Stationary point found.
 Normal termination of Gaussian 09 at Fri Aug 26 11:41:49 2022.

 ----------------------------------------------------------
 #P Geom=AllCheck Guess=TCheck SCRF=Check B3LYP/GTBas3 Freq
 ----------------------------------------------------------

 Structure from the checkpoint file:  "G4.Frag_1109.chk"
 ---------
 Frag_1109
 ---------
 Charge =  0 Multiplicity = 1

 SCF Done:  E(RB3LYP) =  -264.458967494     A.U. after    2 cycles

  Exact polarizability:  58.802  -2.882  42.223   2.448   0.235  28.119
 Approx polarizability:  81.760  -8.141  62.671   6.873  -1.279  43.410

                      1                      2                      3
                      A                      A                      A
 Frequencies --    153.7082               277.7531               311.5814
 Red. masses --      2.2602                 1.2055                 3.1207
 Frc consts  --      0.0315                 0.0548                 0.1785
 IR Inten    --      6.8643                64.5479                 6.1636

                      4                      5                      6
                      A                      A                      A
 Frequencies --    368.5589               457.4986               482.2917
 Red. masses --      1.3958                 1.6245                 2.5547
 Frc consts  --      0.1117                 0.2003                 0.3501
 IR Inten    --     45.6051                19.3309                32.3236

                      7                      8                      9
                      A                      A                      A
 Frequencies --    586.2483               743.9341               779.3728
 Red. masses --      2.8396                 1.6825                 5.9840
 Frc consts  --      0.5750                 0.5486                 2.1416
 IR Inten    --      9.9579                 5.6031                31.7682

                     10                     11                     12
                      A                      A                      A
 Frequencies --    880.3457               897.6154               948.0791
 Red. masses --      1.3914                 2.5790                 1.9136
 Frc consts  --      0.6353                 1.2243                 1.0134
 IR Inten    --     45.4216               141.3057                 3.2715

                     13                     14                     15
                      A                      A                      A
 Frequencies --   1012.6456              1143.8068              1255.4578
 Red. masses --      1.1120                 2.2727                 2.4012
 Frc consts  --      0.6718                 1.7518                 2.2299
 IR Inten    --     18.1372                15.9078                17.4281

                     16                     17                     18
                      A                      A                      A
 Frequencies --   1315.1371              1327.5094              1376.9343
 Red. masses --      1.1612                 1.2299                 1.2433
 Frc consts  --      1.1833                 1.2770                 1.3889
 IR Inten    --     18.9575                26.2326                41.9554

                     19                     20                     21
                      A                      A                      A
 Frequencies --   1434.8412              1683.6579              1715.9665
 Red. masses --      1.2392                 1.2008                 3.4820
 Frc consts  --      1.5032                 2.0055                 6.0409
 IR Inten    --      2.0444                12.0674                67.7711

                     22                     23                     24
                      A                      A                      A
 Frequencies --   3179.2023              3207.8801              3273.8339
 Red. masses --      1.0579                 1.0936                 1.1151
 Frc consts  --      6.3001                 6.6307                 7.0417
 IR Inten    --      0.8451                 3.4012                 4.5798

                     25                     26                     27
                      A                      A                      A
 Frequencies --   3407.4781              3549.6898              3792.4659
 Red. masses --      1.0546                 1.0862                 1.0680
 Frc consts  --      7.2146                 8.0638                 9.0506
 IR Inten    --     11.2999                 2.2520                41.7311

 - Thermochemistry -
 -------------------
 Temperature   298.150 Kelvin.  Pressure   1.00000 Atm.
 Atom     1 has atomic number  6 and mass  12.00000

 Molecular mass:    74.04801 amu.
 Principal axes and moments of inertia in atomic units:
                           1         2         3
     Eigenvalues --   197.00568 416.15299 573.22094
           X            1.00000   0.00265   0.00134
           Y           -0.00268   0.99970   0.02431
           Z           -0.00127  -0.02431   0.99970
 This molecule is an asymmetric top.
 Rotational symmetry number  1.
 Rotational temperatures (Kelvin)      0.43965     0.20813     0.15110
 Rotational constants (GHZ):           9.16086     4.33673     3.14842
 Zero-point vibrational energy     236642.2 (Joules/Mol)
                                   56.55885 (Kcal/Mol)
 Warning -- explicit consideration of   7 degrees of freedom as
           vibrations may cause significant error
 Vibrational temperatures:    221.15   399.62   448.30   530.27   658.24
          (Kelvin)            693.91   843.48  1070.35  1121.34  1266.62
                             1291.47  1364.07  1456.97  1645.68  1806.32
                             1892.19  1909.99  1981.10  2064.41  2422.41
                             2468.89  4574.16  4615.42  4710.31  4902.59
                             5107.21  5456.51

 Zero-point correction=                           0.090132 (Hartree/Particle)
 Thermal correction to Energy=                    0.095908
 Thermal correction to Enthalpy=                  0.096852
 Thermal correction to Gibbs Free Energy=         0.061739
 Sum of electronic and zero-point Energies=           -264.368835
 Sum of electronic and thermal Energies=              -264.363060
 Sum of electronic and thermal Enthalpies=            -264.362116
 Sum of electronic and thermal Free Energies=         -264.397229

                     E (Thermal)             CV                S
                      KCal/Mol        Cal/Mol-Kelvin    Cal/Mol-Kelvin
 Total                   60.183             20.697             73.901
 Electronic               0.000              0.000              0.000
 Translational            0.889              2.981             38.822
 Rotational               0.889              2.981             25.355
 Vibrational             58.405             14.735              9.724
 Vibration     1          0.619              1.899              2.626
 Vibration     2          0.679              1.715              1.547
 Vibration     3          0.700              1.652              1.354
 Vibration     4          0.741              1.537              1.086
 Vibration     5          0.816              1.344              0.773
 Vibration     6          0.839              1.289              0.704
 Vibration     7          0.943              1.061              0.474

 Optimization completed.
    -- Stationary point found.
 Normal termination of Gaussian 09 at Fri Aug 26 11:42:09 2022.

 -----------------------------------------------------------------
 #P Geom=AllCheck Guess=TCheck SCRF=Check CCSD(T,E4T,FrzG4)/GTBas1
 -----------------------------------------------------------------

 Structure from the checkpoint file:  "G4.Frag_1109.chk"
 ---------
 Frag_1109
 ---------
 Charge =  0 Multiplicity = 1

 SCF Done:  E(RHF) =  -262.856968542     A.U. after   13 cycles
 E2 =    -0.7626572632D+00 EUMP2 =    -0.26361962580558D+03
 CCSD(T)
 CCSD(T)= -0.26368466912D+03
 41079\MP4SDQ=-263.6591027\CCSD=-263.6597081\CCSD(T)=-263.6846691\RMSD=
 Normal termination of Gaussian 09 at Fri Aug 26 11:43:03 2022.

 ---------------------------------------------------------
 #P Geom=AllCheck Guess=TCheck SCRF=Check MP4=FrzG4/GTBas2
 ---------------------------------------------------------

 Structure from the checkpoint file:  "G4.Frag_1109.chk"
 ---------
 Frag_1109
 ---------
 Charge =  0 Multiplicity = 1

 SCF Done:  E(RHF) =  -262.868440516     A.U. after   12 cycles
 E2 =    -0.7759060704D+00 EUMP2 =    -0.26364434658605D+03
 Normal termination of Gaussian 09 at Fri Aug 26 11:43:19 2022.

 ---------------------------------------------------------
 #P Geom=AllCheck Guess=TCheck SCRF=Check MP4=FrzG4/GTBas3
 ---------------------------------------------------------

 Structure from the checkpoint file:  "G4.Frag_1109.chk"
 ---------
 Frag_1109
 ---------
 Charge =  0 Multiplicity = 1

 SCF Done:  E(RHF) =  -262.892991051     A.U. after   12 cycles
 E2 =    -0.9309258394D+00 EUMP2 =    -0.26382391689020D+03
 Normal termination of Gaussian 09 at Fri Aug 26 11:44:34 2022.

 -----------------------------------------------------------
 #P Geom=AllCheck Guess=TCheck SCRF=Check MP2=Full/GTLargeXP
 -----------------------------------------------------------

 Structure from the checkpoint file:  "G4.Frag_1109.chk"
 ---------
 Frag_1109
 ---------
 Charge =  0 Multiplicity = 1

 SCF Done:  E(RHF) =  -262.966226696     A.U. after   12 cycles
 E2 =    -0.1215671317D+01 EUMP2 =    -0.26418189801249D+03
 Normal termination of Gaussian 09 at Fri Aug 26 11:45:20 2022.
 SCF Done:  E(RHF) =  -262.987746061     A.U. after   10 cycles
 Normal termination of Gaussian 09 at Fri Aug 26 11:46:21 2022.

                         Standard orientation:
 ---------------------------------------------------------------------
 Center     Atomic      Atomic             Coordinates (Angstroms)
 Number     Number       Type             X           Y           Z
 ---------------------------------------------------------------------
      1          6           0       -1.928833   -0.035958   -0.150972
      2          6           0       -0.793321   -0.650700    0.166894
      3          7           0        0.459297   -0.038432    0.389619
      4          7           0        1.499391   -0.789140   -0.178398
      5          8           0        0.453488    1.306313   -0.127839
      6          1           0       -1.968342    1.028649   -0.334488
      7          1           0       -2.846343   -0.605675   -0.223317
      8          1           0       -0.733964   -1.718024    0.347280
      9          1           0        1.515462   -0.644857   -1.190756
     10          1           0        2.372993   -0.434701    0.197826
     11          1           0        0.654400    1.837052    0.652090
 ---------------------------------------------------------------------

 SCF Done:  E(RHF) =  -262.992262392     A.U. after    8 cycles

 The electronic state is 1-A.
 Alpha  occ. eigenvalues --  -20.59556 -15.65360 -15.58887 -11.26377 -11.21288
 Alpha  occ. eigenvalues --   -1.42917  -1.24686  -1.08438  -0.95788  -0.78112
 Alpha  occ. eigenvalues --   -0.73341  -0.68759  -0.67046  -0.62827  -0.59300
 Alpha  occ. eigenvalues --   -0.52935  -0.51021  -0.46535  -0.43924  -0.33806
 Alpha virt. eigenvalues --    0.04370   0.04812   0.05375   0.06166   0.07416
 Alpha virt. eigenvalues --    0.07937   0.08245   0.09412   0.09587   0.11457
 Alpha virt. eigenvalues --    0.11788   0.13369   0.15677   0.16230   0.16696

 Mulliken charges:
               1
     1  C   -0.453043
     2  C   -0.102027
     3  N    0.032067
     4  N   -0.576120
     5  O   -0.529122
     6  H    0.204770
     7  H    0.195976
     8  H    0.226955
     9  H    0.297134
    10  H    0.305709
    11  H    0.397700
 Sum of Mulliken charges =  -0.00000

 Dipole moment (field-independent basis, Debye):
    X=              1.1027    Y=              0.6660    Z=              0.2927  Tot=              1.3210
 Quadrupole moment (field-independent basis, Debye-Ang):
   XX=            -26.3825   YY=            -29.8803   ZZ=            -31.6271
   XY=              1.9467   XZ=              0.1872   YZ=              2.8062

 Normal termination of Gaussian 09 at Fri Aug 26 11:51:39 2022.
