 Gaussian 09, Revision E.01,
 Gaussian 09:  ES64L-G09RevE.01 30-Nov-2015

 -----
 #P G4
 -----

 --------
 Frag_929
 --------
 Symbolic Z-matrix:
 Charge =  0 Multiplicity = 1

 SCF Done:  E(RB3LYP) =  -280.463451034     A.U. after   15 cycles
 SCF Done:  E(RB3LYP) =  -280.496263245     A.U. after   13 cycles
 SCF Done:  E(RB3LYP) =  -280.500548031     A.U. after   13 cycles
 SCF Done:  E(RB3LYP) =  -280.500863817     A.U. after   11 cycles
 SCF Done:  E(RB3LYP) =  -280.500893878     A.U. after    9 cycles
 SCF Done:  E(RB3LYP) =  -280.500895415     A.U. after    8 cycles
 SCF Done:  E(RB3LYP) =  -280.500891260     A.U. after    9 cycles
 SCF Done:  E(RB3LYP) =  -280.500899888     A.U. after    8 cycles
 SCF Done:  E(RB3LYP) =  -280.468692778     A.U. after   15 cycles
 SCF Done:  E(RB3LYP) =  -280.501035836     A.U. after   11 cycles
 SCF Done:  E(RB3LYP) =  -280.506608847     A.U. after    9 cycles
 SCF Done:  E(RB3LYP) =  -280.506610737     A.U. after    9 cycles
 SCF Done:  E(RB3LYP) =  -280.506611091     A.U. after    8 cycles
 Optimization completed.
    -- Stationary point found.
 Normal termination of Gaussian 09 at Fri Aug 26 13:43:12 2022.

 ----------------------------------------------------------
 #P Geom=AllCheck Guess=TCheck SCRF=Check B3LYP/GTBas3 Freq
 ----------------------------------------------------------

 Structure from the checkpoint file:  "G4.Frag_929.chk"
 --------
 Frag_929
 --------
 Charge =  0 Multiplicity = 1

 SCF Done:  E(RB3LYP) =  -280.506611091     A.U. after    1 cycles

  Exact polarizability:  54.763  -1.842  40.017   0.699   0.094  25.037
 Approx polarizability:  75.990 -11.662  77.481  -0.145  -0.092  36.714

                      1                      2                      3
                      A                      A                      A
 Frequencies --    174.1727               243.2669               313.6254
 Red. masses --      1.0689                 3.0152                 2.1319
 Frc consts  --      0.0191                 0.1051                 0.1235
 IR Inten    --      0.2672                13.2835                33.3804

                      4                      5                      6
                      A                      A                      A
 Frequencies --    341.4923               531.5378               655.8555
 Red. masses --      1.3572                 3.8272                 5.2799
 Frc consts  --      0.0932                 0.6371                 1.3381
 IR Inten    --     11.3522                 3.8646                29.3499

                      7                      8                      9
                      A                      A                      A
 Frequencies --    718.8606               869.6019               969.7363
 Red. masses --      4.3655                 1.9295                 2.6992
 Frc consts  --      1.3292                 0.8597                 1.4955
 IR Inten    --     23.5368               226.6496                14.4438

                     10                     11                     12
                      A                      A                      A
 Frequencies --   1076.4771              1105.4144              1192.9341
 Red. masses --      3.0661                 1.3443                 1.8646
 Frc consts  --      2.0934                 0.9678                 1.5634
 IR Inten    --     23.3494                 0.6086                 0.7272

                     13                     14                     15
                      A                      A                      A
 Frequencies --   1275.3230              1386.9164              1431.2991
 Red. masses --      1.6113                 8.2405                 1.2096
 Frc consts  --      1.5440                 9.3391                 1.4600
 IR Inten    --     59.6338               120.6379                23.3565

                     16                     17                     18
                      A                      A                      A
 Frequencies --   1475.1265              1478.7332              1604.1151
 Red. masses --      1.0481                 1.0445                 1.1127
 Frc consts  --      1.3438                 1.3457                 1.6869
 IR Inten    --      2.4374                 6.2238                52.8771

                     19                     20                     21
                      A                      A                      A
 Frequencies --   1653.3237              3017.8406              3070.9293
 Red. masses --      4.9412                 1.0360                 1.1009
 Frc consts  --      7.9580                 5.5592                 6.1167
 IR Inten    --    200.3176                20.9184                19.0055

                     22                     23                     24
                      A                      A                      A
 Frequencies --   3146.0754              3509.6604              3632.1949
 Red. masses --      1.1001                 1.0446                 1.1000
 Frc consts  --      6.4153                 7.5807                 8.5506
 IR Inten    --     17.1929                19.0788                31.2588

 - Thermochemistry -
 -------------------
 Temperature   298.150 Kelvin.  Pressure   1.00000 Atm.
 Atom     1 has atomic number  6 and mass  12.00000

 Molecular mass:    75.04326 amu.
 Principal axes and moments of inertia in atomic units:
                           1         2         3
     Eigenvalues --   158.85390 406.16251 551.15287
           X            0.99955   0.02740   0.01211
           Y           -0.02753   0.99957   0.01017
           Z           -0.01183  -0.01050   0.99987
 This molecule is an asymmetric top.
 Rotational symmetry number  1.
 Rotational temperatures (Kelvin)      0.54524     0.21325     0.15715
 Rotational constants (GHZ):          11.36101     4.44340     3.27448
 Zero-point vibrational energy     208595.9 (Joules/Mol)
                                   49.85562 (Kcal/Mol)
 Warning -- explicit consideration of   5 degrees of freedom as
           vibrations may cause significant error
 Vibrational temperatures:    250.60   350.01   451.24   491.33   764.76
          (Kelvin)            943.63  1034.28  1251.16  1395.23  1548.81
                             1590.44  1716.36  1834.90  1995.46  2059.32
                             2122.38  2127.56  2307.96  2378.76  4341.99
                             4418.38  4526.50  5049.61  5225.91

 Zero-point correction=                           0.079450 (Hartree/Particle)
 Thermal correction to Energy=                    0.084808
 Thermal correction to Enthalpy=                  0.085752
 Thermal correction to Gibbs Free Energy=         0.051339
 Sum of electronic and zero-point Energies=           -280.427161
 Sum of electronic and thermal Energies=              -280.421803
 Sum of electronic and thermal Enthalpies=            -280.420859
 Sum of electronic and thermal Free Energies=         -280.455272

                     E (Thermal)             CV                S
                      KCal/Mol        Cal/Mol-Kelvin    Cal/Mol-Kelvin
 Total                   53.218             18.104             72.429
 Electronic               0.000              0.000              0.000
 Translational            0.889              2.981             38.862
 Rotational               0.889              2.981             25.078
 Vibrational             51.440             12.143              8.488
 Vibration     1          0.627              1.874              2.390
 Vibration     2          0.659              1.774              1.779
 Vibration     3          0.701              1.648              1.343
 Vibration     4          0.721              1.593              1.205
 Vibration     5          0.887              1.180              0.584

 Normal termination of Gaussian 09 at Fri Aug 26 13:43:30 2022.

 -----------------------------------------------------------------
 #P Geom=AllCheck Guess=TCheck SCRF=Check CCSD(T,E4T,FrzG4)/GTBas1
 -----------------------------------------------------------------

 Structure from the checkpoint file:  "G4.Frag_929.chk"
 --------
 Frag_929
 --------
 Charge =  0 Multiplicity = 1

 SCF Done:  E(RHF) =  -278.842527929     A.U. after   14 cycles
 E2 =    -0.8210794020D+00 EUMP2 =    -0.27966360733062D+03
 CCSD(T)
 CCSD(T)= -0.27971486445D+03
 Normal termination of Gaussian 09 at Fri Aug 26 13:44:24 2022.

 ---------------------------------------------------------
 #P Geom=AllCheck Guess=TCheck SCRF=Check MP4=FrzG4/GTBas2
 ---------------------------------------------------------

 Structure from the checkpoint file:  "G4.Frag_929.chk"
 --------
 Frag_929
 --------
 Charge =  0 Multiplicity = 1

 SCF Done:  E(RHF) =  -278.852964687     A.U. after   14 cycles
 E2 =    -0.8330386295D+00 EUMP2 =    -0.27968600331689D+03
 Normal termination of Gaussian 09 at Fri Aug 26 13:44:39 2022.

 ---------------------------------------------------------
 #P Geom=AllCheck Guess=TCheck SCRF=Check MP4=FrzG4/GTBas3
 ---------------------------------------------------------

 Structure from the checkpoint file:  "G4.Frag_929.chk"
 --------
 Frag_929
 --------
 Charge =  0 Multiplicity = 1

 SCF Done:  E(RHF) =  -278.877847548     A.U. after   13 cycles
 E2 =    -0.9894426916D+00 EUMP2 =    -0.27986729023966D+03
 Normal termination of Gaussian 09 at Fri Aug 26 13:45:45 2022.

 -----------------------------------------------------------
 #P Geom=AllCheck Guess=TCheck SCRF=Check MP2=Full/GTLargeXP
 -----------------------------------------------------------

 Structure from the checkpoint file:  "G4.Frag_929.chk"
 --------
 Frag_929
 --------
 Charge =  0 Multiplicity = 1

 SCF Done:  E(RHF) =  -278.953463282     A.U. after   13 cycles
 E2 =    -0.1277449462D+01 EUMP2 =    -0.28023091274474D+03
 Normal termination of Gaussian 09 at Fri Aug 26 13:46:30 2022.
 SCF Done:  E(RHF) =  -278.976425020     A.U. after   11 cycles
 Normal termination of Gaussian 09 at Fri Aug 26 13:47:25 2022.

                         Standard orientation:
 ---------------------------------------------------------------------
 Center     Atomic      Atomic             Coordinates (Angstroms)
 Number     Number       Type             X           Y           Z
 ---------------------------------------------------------------------
      1          6           0        1.844115   -0.102854   -0.006229
      2          7           0        0.551772   -0.770950   -0.004335
      3          7           0       -0.404475    0.057553    0.008070
      4          7           0       -1.681777   -0.516332    0.105707
      5          8           0       -0.363237    1.296634   -0.002994
      6          1           0        1.962510    0.538756    0.875718
      7          1           0        2.611601   -0.876991   -0.007730
      8          1           0        1.961285    0.539507   -0.888062
      9          1           0       -2.314384    0.099766   -0.393155
     10          1           0       -1.638447   -1.448885   -0.291530
 ---------------------------------------------------------------------

 SCF Done:  E(RHF) =  -278.981093739     A.U. after    8 cycles

 The electronic state is 1-A.
 Alpha  occ. eigenvalues --  -20.56482 -15.82122 -15.63078 -15.61120 -11.25759
 Alpha  occ. eigenvalues --   -1.55009  -1.30156  -1.23026  -0.99505  -0.83875
 Alpha  occ. eigenvalues --   -0.74395  -0.73310  -0.70956  -0.66854  -0.57960
 Alpha  occ. eigenvalues --   -0.57104  -0.49405  -0.47129  -0.46232  -0.38658
 Alpha virt. eigenvalues --    0.03919   0.04910   0.05761   0.06170   0.07921
 Alpha virt. eigenvalues --    0.08058   0.08302   0.10949   0.11577   0.12213
 Alpha virt. eigenvalues --    0.12939   0.13344   0.15217   0.17202   0.17972

 Mulliken charges:
               1
     1  C   -0.436780
     2  N   -0.268949
     3  N    0.527920
     4  N   -0.525537
     5  O   -0.554673
     6  H    0.193115
     7  H    0.194296
     8  H    0.189139
     9  H    0.342070
    10  H    0.339398
 Sum of Mulliken charges =  -0.00000

 Dipole moment (field-independent basis, Debye):
    X=             -0.5524    Y=             -1.7307    Z=             -1.3253  Tot=              2.2488
 Quadrupole moment (field-independent basis, Debye-Ang):
   XX=            -22.7093   YY=            -33.9311   ZZ=            -30.4984
   XY=              2.3807   XZ=              3.1808   YZ=              0.8933

 Normal termination of Gaussian 09 at Fri Aug 26 13:52:16 2022.
