 Gaussian 09, Revision E.01,
 Gaussian 09:  ES64L-G09RevE.01 30-Nov-2015

 -----
 #P G4
 -----

 ---------
 Frag_1135
 ---------
 Symbolic Z-matrix:
 Charge =  0 Multiplicity = 1

 SCF Done:  E(RB3LYP) =  -316.357106668     A.U. after   15 cycles
 SCF Done:  E(RB3LYP) =  -316.359322160     A.U. after   12 cycles
 SCF Done:  E(RB3LYP) =  -316.360384828     A.U. after   12 cycles
 SCF Done:  E(RB3LYP) =  -316.361681348     A.U. after   14 cycles
 SCF Done:  E(RB3LYP) =  -316.365606910     A.U. after   14 cycles
 SCF Done:  E(RB3LYP) =  -316.367692759     A.U. after   13 cycles
 SCF Done:  E(RB3LYP) =  -316.368303321     A.U. after   12 cycles
 SCF Done:  E(RB3LYP) =  -316.368509497     A.U. after   12 cycles
 SCF Done:  E(RB3LYP) =  -316.368529325     A.U. after    9 cycles
 SCF Done:  E(RB3LYP) =  -316.368532721     A.U. after    8 cycles
 SCF Done:  E(RB3LYP) =  -316.368534117     A.U. after    8 cycles
 Optimization completed.
    -- Stationary point found.
 Normal termination of Gaussian 09 at Fri Sep  2 19:32:31 2022.

 ----------------------------------------------------------
 #P Geom=AllCheck Guess=TCheck SCRF=Check B3LYP/GTBas3 Freq
 ----------------------------------------------------------

 Structure from the checkpoint file:  "G4.Frag_1135.chk"
 ---------
 Frag_1135
 ---------
 Charge =  0 Multiplicity = 1

 SCF Done:  E(RB3LYP) =  -316.368534117     A.U. after    1 cycles

  Exact polarizability:  48.843  -0.449  30.952   0.000  -0.000  20.077
 Approx polarizability:  89.620  -3.117  53.478   0.001  -0.002  29.756

                      1                      2                      3
                      A                      A                      A
 Frequencies --    214.5774               281.9620               417.6328
 Red. masses --      1.2359                 3.5071                 3.7265
 Frc consts  --      0.0335                 0.1643                 0.3829
 IR Inten    --     16.8012                 0.0405                 6.1531

                      4                      5                      6
                      A                      A                      A
 Frequencies --    605.9017               696.2160               740.7045
 Red. masses --     10.1969                 6.3767                10.6002
 Frc consts  --      2.2056                 1.8211                 3.4265
 IR Inten    --      1.6822                 6.9259                 4.7517

                      7                      8                      9
                      A                      A                      A
 Frequencies --    844.4049               862.1488              1008.8738
 Red. masses --     11.6495                 1.0930                 1.7461
 Frc consts  --      4.8939                 0.4787                 1.0471
 IR Inten    --     51.2446                94.3151                75.4983

                     10                     11                     12
                      A                      A                      A
 Frequencies --   1052.7710              1264.0441              1310.6978
 Red. masses --      7.0497                 1.1402                 3.3360
 Frc consts  --      4.6035                 1.0734                 3.3766
 IR Inten    --     56.8481                 2.0126                 5.6947

                     13                     14                     15
                      A                      A                      A
 Frequencies --   1445.5309              1651.7271              1726.8424
 Red. masses --      1.6239                 1.0924                 4.2710
 Frc consts  --      1.9992                 1.7559                 7.5039
 IR Inten    --    244.7746                 7.4102               454.6892

                     16                     17                     18
                      A                      A                      A
 Frequencies --   3248.2332              3462.2260              3530.8766
 Red. masses --      1.0625                 1.0485                 1.0944
 Frc consts  --      6.6053                 7.4051                 8.0391
 IR Inten    --    206.1700                 7.4131                13.8763

 - Thermochemistry -
 -------------------
 Temperature   298.150 Kelvin.  Pressure   1.00000 Atm.
 Atom     1 has atomic number  7 and mass  14.00307

 Molecular mass:    77.02253 amu.
 Principal axes and moments of inertia in atomic units:
                           1         2         3
     Eigenvalues --   157.05343 378.53797 526.02400
           X            0.99999  -0.00517   0.00001
           Y            0.00517   0.99999   0.00000
           Z           -0.00001  -0.00000   1.00000
 This molecule is an asymmetric top.
 Rotational symmetry number  1.
 Rotational temperatures (Kelvin)      0.55149     0.22881     0.16466
 Rotational constants (GHZ):          11.49126     4.76766     3.43091
 Zero-point vibrational energy     145737.3 (Joules/Mol)
                                   34.83205 (Kcal/Mol)
 Warning -- explicit consideration of   4 degrees of freedom as
           vibrations may cause significant error
 Vibrational temperatures:    308.73   405.68   600.88   871.76  1001.70
          (Kelvin)           1065.71  1214.91  1240.44  1451.54  1514.70
                             1818.68  1885.80  2079.79  2376.46  2484.54
                             4673.48  4981.36  5080.14

 Zero-point correction=                           0.055508 (Hartree/Particle)
 Thermal correction to Energy=                    0.060212
 Thermal correction to Enthalpy=                  0.061156
 Thermal correction to Gibbs Free Energy=         0.027938
 Sum of electronic and zero-point Energies=           -316.313026
 Sum of electronic and thermal Energies=              -316.308322
 Sum of electronic and thermal Enthalpies=            -316.307378
 Sum of electronic and thermal Free Energies=         -316.340596

                     E (Thermal)             CV                S
                      KCal/Mol        Cal/Mol-Kelvin    Cal/Mol-Kelvin
 Total                   37.784             15.830             69.914
 Electronic               0.000              0.000              0.000
 Translational            0.889              2.981             38.940
 Rotational               0.889              2.981             24.951
 Vibrational             36.006              9.868              6.023
 Vibration     1          0.645              1.819              2.004
 Vibration     2          0.681              1.707              1.522
 Vibration     3          0.781              1.432              0.900
 Vibration     4          0.965              1.019              0.440

 Optimization completed.
    -- Stationary point found.
 Normal termination of Gaussian 09 at Fri Sep  2 19:32:47 2022.

 -----------------------------------------------------------------
 #P Geom=AllCheck Guess=TCheck SCRF=Check CCSD(T,E4T,FrzG4)/GTBas1
 -----------------------------------------------------------------

 Structure from the checkpoint file:  "G4.Frag_1135.chk"
 ---------
 Frag_1135
 ---------
 Charge =  0 Multiplicity = 1

 SCF Done:  E(RHF) =  -314.599469970     A.U. after   15 cycles
 E2 =    -0.8814990913D+00 EUMP2 =    -0.31548096906126D+03
 CCSD(T)
 CCSD(T)= -0.31552140557D+03
 5297349\MP4SDQ=-315.4900394\CCSD=-315.4874351\CCSD(T)=-315.5214056\RMS
 Normal termination of Gaussian 09 at Fri Sep  2 19:33:33 2022.

 ---------------------------------------------------------
 #P Geom=AllCheck Guess=TCheck SCRF=Check MP4=FrzG4/GTBas2
 ---------------------------------------------------------

 Structure from the checkpoint file:  "G4.Frag_1135.chk"
 ---------
 Frag_1135
 ---------
 Charge =  0 Multiplicity = 1

 SCF Done:  E(RHF) =  -314.611082276     A.U. after   13 cycles
 E2 =    -0.8952640051D+00 EUMP2 =    -0.31550634628144D+03
 Normal termination of Gaussian 09 at Fri Sep  2 19:33:46 2022.

 ---------------------------------------------------------
 #P Geom=AllCheck Guess=TCheck SCRF=Check MP4=FrzG4/GTBas3
 ---------------------------------------------------------

 Structure from the checkpoint file:  "G4.Frag_1135.chk"
 ---------
 Frag_1135
 ---------
 Charge =  0 Multiplicity = 1

 SCF Done:  E(RHF) =  -314.642168093     A.U. after   13 cycles
 E2 =    -0.1057452335D+01 EUMP2 =    -0.31569962042742D+03
 Normal termination of Gaussian 09 at Fri Sep  2 19:34:40 2022.

 -----------------------------------------------------------
 #P Geom=AllCheck Guess=TCheck SCRF=Check MP2=Full/GTLargeXP
 -----------------------------------------------------------

 Structure from the checkpoint file:  "G4.Frag_1135.chk"
 ---------
 Frag_1135
 ---------
 Charge =  0 Multiplicity = 1

 SCF Done:  E(RHF) =  -314.731148128     A.U. after   13 cycles
 E2 =    -0.1356563690D+01 EUMP2 =    -0.31608771181814D+03
 Normal termination of Gaussian 09 at Fri Sep  2 19:35:13 2022.
 SCF Done:  E(RHF) =  -314.758922235     A.U. after   11 cycles
 Normal termination of Gaussian 09 at Fri Sep  2 19:35:54 2022.

                         Standard orientation:
 ---------------------------------------------------------------------
 Center     Atomic      Atomic             Coordinates (Angstroms)
 Number     Number       Type             X           Y           Z
 ---------------------------------------------------------------------
      1          7           0        1.681209    0.005954   -0.000003
      2          7           0        0.519773   -0.846966    0.000065
      3          7           0       -0.540243   -0.109567   -0.000315
      4          8           0       -0.417224    1.269640    0.000064
      5          8           0       -1.665762   -0.541422    0.000134
      6          1           0        2.230683   -0.259007    0.815465
      7          1           0        2.231055   -0.259753   -0.814977
      8          1           0        0.576976    1.347072   -0.000302
 ---------------------------------------------------------------------

 SCF Done:  E(RHF) =  -314.764360609     A.U. after    8 cycles

 The electronic state is 1-A.
 Alpha  occ. eigenvalues --  -20.65612 -20.59309 -15.87065 -15.64938 -15.63405
 Alpha  occ. eigenvalues --   -1.61286  -1.42006  -1.33972  -1.15859  -0.89370
 Alpha  occ. eigenvalues --   -0.78627  -0.76118  -0.74561  -0.69587  -0.67959
 Alpha  occ. eigenvalues --   -0.57060  -0.54626  -0.50402  -0.45376  -0.40712
 Alpha virt. eigenvalues --    0.03574   0.06260   0.06457   0.06925   0.09195
 Alpha virt. eigenvalues --    0.09576   0.10132   0.11685   0.12689   0.13042
 Alpha virt. eigenvalues --    0.14754   0.15897   0.16507   0.16675   0.18471

 Mulliken charges:
               1
     1  N   -0.607299
     2  N   -0.236423
     3  N    0.585753
     4  O   -0.421993
     5  O   -0.413936
     6  H    0.332587
     7  H    0.332624
     8  H    0.428686
 Sum of Mulliken charges =  -0.00000

 Dipole moment (field-independent basis, Debye):
    X=              4.9570    Y=              1.2015    Z=             -0.0005  Tot=              5.1005
 Quadrupole moment (field-independent basis, Debye-Ang):
   XX=            -26.2986   YY=            -31.9684   ZZ=            -26.8407
   XY=             -0.7118   XZ=              0.0017   YZ=              0.0004

 Normal termination of Gaussian 09 at Fri Sep  2 19:39:25 2022.
