 Gaussian 09, Revision E.01,
 Gaussian 09:  ES64L-G09RevE.01 30-Nov-2015

 -----
 #P G4
 -----

 --------
 Frag_723
 --------
 Symbolic Z-matrix:
 Charge =  0 Multiplicity = 1

 SCF Done:  E(RB3LYP) =  -307.249013271     A.U. after   13 cycles
 SCF Done:  E(RB3LYP) =  -307.255247781     A.U. after   12 cycles
 SCF Done:  E(RB3LYP) =  -307.255729035     A.U. after   11 cycles
 SCF Done:  E(RB3LYP) =  -307.255988770     A.U. after   11 cycles
 SCF Done:  E(RB3LYP) =  -307.256269305     A.U. after   11 cycles
 SCF Done:  E(RB3LYP) =  -307.256319040     A.U. after    9 cycles
 SCF Done:  E(RB3LYP) =  -307.256332374     A.U. after    8 cycles
 SCF Done:  E(RB3LYP) =  -307.256356072     A.U. after   10 cycles
 SCF Done:  E(RB3LYP) =  -307.256329425     A.U. after   10 cycles
 SCF Done:  E(RB3LYP) =  -307.256933936     A.U. after   12 cycles
 SCF Done:  E(RB3LYP) =  -307.259322388     A.U. after   10 cycles
 SCF Done:  E(RB3LYP) =  -307.259322860     A.U. after    8 cycles
 SCF Done:  E(RB3LYP) =  -307.259323370     A.U. after    7 cycles
 Optimization completed.
    -- Stationary point found.
 Normal termination of Gaussian 09 at Fri Aug 26 11:09:00 2022.

 ----------------------------------------------------------
 #P Geom=AllCheck Guess=TCheck SCRF=Check B3LYP/GTBas3 Freq
 ----------------------------------------------------------

 Structure from the checkpoint file:  "G4.Frag_723.chk"
 --------
 Frag_723
 --------
 Charge =  0 Multiplicity = 1

 SCF Done:  E(RB3LYP) =  -307.259323370     A.U. after    1 cycles

  Exact polarizability:  73.886  -2.809  78.325   0.335  -0.341  55.752
 Approx polarizability:  98.845  -8.302 118.324  -0.623  -0.947  83.662

                      1                      2                      3
                      A                      A                      A
 Frequencies --     70.7119               203.0850               233.3988
 Red. masses --      2.9141                 1.0366                 1.4345
 Frc consts  --      0.0086                 0.0252                 0.0460
 IR Inten    --      0.2934                 3.7031                21.7304

                      4                      5                      6
                      A                      A                      A
 Frequencies --    257.9800               280.2652               297.0074
 Red. masses --      1.8520                 1.2132                 1.5321
 Frc consts  --      0.0726                 0.0561                 0.0796
 IR Inten    --      1.1795                24.2587                 2.5693

                      7                      8                      9
                      A                      A                      A
 Frequencies --    326.1688               376.7085               400.5642
 Red. masses --      1.3059                 2.6223                 2.5390
 Frc consts  --      0.0819                 0.2193                 0.2400
 IR Inten    --     23.1585                 5.3906                 0.6207

                     10                     11                     12
                      A                      A                      A
 Frequencies --    402.5325               500.3919               517.1382
 Red. masses --      2.5875                 2.2107                 2.8379
 Frc consts  --      0.2470                 0.3261                 0.4472
 IR Inten    --     17.3848                 9.3792                 7.6463

                     13                     14                     15
                      A                      A                      A
 Frequencies --    564.8796               696.7164               747.1710
 Red. masses --      2.1761                 3.3713                 1.1665
 Frc consts  --      0.4091                 0.9642                 0.3837
 IR Inten    --      2.4576                 8.1289                 2.5965

                     16                     17                     18
                      A                      A                      A
 Frequencies --    861.3167               884.6547               911.0916
 Red. masses --      2.4900                 1.7151                 1.6721
 Frc consts  --      1.0884                 0.7908                 0.8178
 IR Inten    --     34.5972               152.4503                86.9873

                     19                     20                     21
                      A                      A                      A
 Frequencies --    935.3367               959.4631               992.9711
 Red. masses --      1.3432                 1.6556                 1.3645
 Frc consts  --      0.6924                 0.8979                 0.7927
 IR Inten    --     33.4296                11.0000                24.6163

                     22                     23                     24
                      A                      A                      A
 Frequencies --   1008.7047              1040.4614              1067.9610
 Red. masses --      1.4592                 1.4679                 1.5110
 Frc consts  --      0.8748                 0.9363                 1.0154
 IR Inten    --      3.1215                13.8825                 1.4407

                     25                     26                     27
                      A                      A                      A
 Frequencies --   1110.8155              1159.7927              1239.9376
 Red. masses --      1.4594                 2.5038                 2.0790
 Frc consts  --      1.0609                 1.9843                 1.8833
 IR Inten    --     19.5672                50.8469                10.2014

                     28                     29                     30
                      A                      A                      A
 Frequencies --   1312.3512              1377.2355              1403.7331
 Red. masses --      2.1731                 1.6527                 1.2430
 Frc consts  --      2.2051                 1.8470                 1.4431
 IR Inten    --     23.4731                 6.1636                 8.6259

                     31                     32                     33
                      A                      A                      A
 Frequencies --   1409.3702              1453.4661              1486.1611
 Red. masses --      1.5488                 1.1733                 1.0520
 Frc consts  --      1.8126                 1.4604                 1.3690
 IR Inten    --      9.3559                 3.9256                 5.2862

                     34                     35                     36
                      A                      A                      A
 Frequencies --   1488.4039              1495.8378              1505.6760
 Red. masses --      1.0531                 1.0489                 1.0676
 Frc consts  --      1.3745                 1.3828                 1.4260
 IR Inten    --      1.4963                 8.8271                 6.8168

                     37                     38                     39
                      A                      A                      A
 Frequencies --   1648.2587              1664.5182              1714.3602
 Red. masses --      1.0992                 1.0924                 5.3095
 Frc consts  --      1.7594                 1.7832                 9.1940
 IR Inten    --     23.3576                28.3300                11.0130

                     40                     41                     42
                      A                      A                      A
 Frequencies --   3021.9093              3050.4581              3072.3693
 Red. masses --      1.0395                 1.0355                 1.0974
 Frc consts  --      5.5930                 5.6769                 6.1034
 IR Inten    --     26.0763                13.1649                18.8317

                     43                     44                     45
                      A                      A                      A
 Frequencies --   3115.9518              3117.7410              3142.2587
 Red. masses --      1.1008                 1.0983                 1.1022
 Frc consts  --      6.2970                 6.2900                 6.4123
 IR Inten    --     10.3067                31.1026                15.7778

                     46                     47                     48
                      A                      A                      A
 Frequencies --   3152.2689              3235.2456              3464.4867
 Red. masses --      1.0632                 1.1113                 1.0491
 Frc consts  --      6.2248                 6.8534                 7.4192
 IR Inten    --     10.5960                12.6245                 1.8467

                     49                     50                     51
                      A                      A                      A
 Frequencies --   3484.2783              3546.6183              3559.4264
 Red. masses --      1.0493                 1.0913                 1.0907
 Frc consts  --      7.5056                 8.0873                 8.1415
 IR Inten    --      0.4806                 0.8181                 0.4745

 - Thermochemistry -
 -------------------
 Temperature   298.150 Kelvin.  Pressure   1.00000 Atm.
 Atom     1 has atomic number  6 and mass  12.00000

 Molecular mass:   100.10005 amu.
 Principal axes and moments of inertia in atomic units:
                           1         2         3
     Eigenvalues --   554.31698 777.94958 955.62009
           X            0.99779   0.06562   0.01056
           Y           -0.06570   0.99781   0.00772
           Z           -0.01003  -0.00839   0.99991
 This molecule is an asymmetric top.
 Rotational symmetry number  1.
 Warning -- assumption of classical behavior for rotation
           may cause significant error
 Rotational temperatures (Kelvin)      0.15625     0.11134     0.09064
 Rotational constants (GHZ):           3.25579     2.31987     1.88856
 Zero-point vibrational energy     448417.8 (Joules/Mol)
                                  107.17444 (Kcal/Mol)
 Warning -- explicit consideration of  13 degrees of freedom as
           vibrations may cause significant error
 Vibrational temperatures:    101.74   292.19   335.81   371.18   403.24
          (Kelvin)            427.33   469.28   542.00   576.32   579.15
                              719.95   744.05   812.73  1002.42  1075.01
                             1239.24  1272.82  1310.86  1345.74  1380.45
                             1428.66  1451.30  1496.99  1536.56  1598.21
                             1668.68  1783.99  1888.18  1981.53  2019.66
                             2027.77  2091.21  2138.25  2141.48  2152.17
                             2166.33  2371.47  2394.87  2466.58  4347.85
                             4388.92  4420.45  4483.15  4485.73  4521.00
                             4535.41  4654.79  4984.62  5013.09  5102.79
                             5121.21

 Zero-point correction=                           0.170793 (Hartree/Particle)
 Thermal correction to Energy=                    0.179510
 Thermal correction to Enthalpy=                  0.180454
 Thermal correction to Gibbs Free Energy=         0.138699
 Sum of electronic and zero-point Energies=           -307.088530
 Sum of electronic and thermal Energies=              -307.079813
 Sum of electronic and thermal Enthalpies=            -307.078869
 Sum of electronic and thermal Free Energies=         -307.120624

                     E (Thermal)             CV                S
                      KCal/Mol        Cal/Mol-Kelvin    Cal/Mol-Kelvin
 Total                  112.644             33.414             87.881
 Electronic               0.000              0.000              0.000
 Translational            0.889              2.981             39.721
 Rotational               0.889              2.981             27.513
 Vibrational            110.867             27.452             20.647
 Vibration     1          0.598              1.968              4.133
 Vibration     2          0.639              1.836              2.105
 Vibration     3          0.654              1.790              1.853
 Vibration     4          0.667              1.749              1.675
 Vibration     5          0.680              1.710              1.532
 Vibration     6          0.691              1.679              1.434
 Vibration     7          0.710              1.623              1.279
 Vibration     8          0.747              1.520              1.052
 Vibration     9          0.766              1.469              0.961
 Vibration    10          0.768              1.465              0.953
 Vibration    11          0.856              1.249              0.657
 Vibration    12          0.872              1.212              0.617
 Vibration    13          0.921              1.107              0.514

 Normal termination of Gaussian 09 at Fri Aug 26 11:10:00 2022.

 -----------------------------------------------------------------
 #P Geom=AllCheck Guess=TCheck SCRF=Check CCSD(T,E4T,FrzG4)/GTBas1
 -----------------------------------------------------------------

 Structure from the checkpoint file:  "G4.Frag_723.chk"
 --------
 Frag_723
 --------
 Charge =  0 Multiplicity = 1

 SCF Done:  E(RHF) =  -305.184495393     A.U. after   12 cycles
 E2 =    -0.9832998334D+00 EUMP2 =    -0.30616779522599D+03
 CCSD(T)
 CCSD(T)= -0.30627196885D+03
 .2700175\MP4SDQ=-306.2370218\CCSD=-306.2384833\CCSD(T)=-306.2719688\RM
 Normal termination of Gaussian 09 at Fri Aug 26 11:14:57 2022.

 ---------------------------------------------------------
 #P Geom=AllCheck Guess=TCheck SCRF=Check MP4=FrzG4/GTBas2
 ---------------------------------------------------------

 Structure from the checkpoint file:  "G4.Frag_723.chk"
 --------
 Frag_723
 --------
 Charge =  0 Multiplicity = 1

 SCF Done:  E(RHF) =  -305.195191724     A.U. after   13 cycles
 E2 =    -0.9976420860D+00 EUMP2 =    -0.30619283380999D+03
 Normal termination of Gaussian 09 at Fri Aug 26 11:16:30 2022.

 ---------------------------------------------------------
 #P Geom=AllCheck Guess=TCheck SCRF=Check MP4=FrzG4/GTBas3
 ---------------------------------------------------------

 Structure from the checkpoint file:  "G4.Frag_723.chk"
 --------
 Frag_723
 --------
 Charge =  0 Multiplicity = 1

 SCF Done:  E(RHF) =  -305.229218114     A.U. after   11 cycles
 E2 =    -0.1210722815D+01 EUMP2 =    -0.30643994092910D+03
 Normal termination of Gaussian 09 at Fri Aug 26 11:29:17 2022.

 -----------------------------------------------------------
 #P Geom=AllCheck Guess=TCheck SCRF=Check MP2=Full/GTLargeXP
 -----------------------------------------------------------

 Structure from the checkpoint file:  "G4.Frag_723.chk"
 --------
 Frag_723
 --------
 Charge =  0 Multiplicity = 1

 SCF Done:  E(RHF) =  -305.302142253     A.U. after   13 cycles
 E2 =    -0.1590583488D+01 EUMP2 =    -0.30689272574112D+03
 Normal termination of Gaussian 09 at Fri Aug 26 11:34:19 2022.
 SCF Done:  E(RHF) =  -305.325906268     A.U. after    9 cycles
 Normal termination of Gaussian 09 at Fri Aug 26 11:39:14 2022.

                         Standard orientation:
 ---------------------------------------------------------------------
 Center     Atomic      Atomic             Coordinates (Angstroms)
 Number     Number       Type             X           Y           Z
 ---------------------------------------------------------------------
      1          6           0       -1.392169    1.489834    0.020299
      2          6           0       -0.904866    0.249672    0.039604
      3          6           0       -1.842738   -0.935891    0.046875
      4          6           0        0.598912   -0.065654    0.008604
      5          6           0        1.476254    1.153122    0.312068
      6          7           0        1.013973   -0.566058   -1.329997
      7          7           0        0.885049   -1.072698    1.031851
      8          1           0       -2.462466    1.669454   -0.010594
      9          1           0       -0.762851    2.370808    0.039514
     10          1           0       -2.876922   -0.616276   -0.099954
     11          1           0       -1.793432   -1.472089    1.001777
     12          1           0       -1.606368   -1.660019   -0.742840
     13          1           0        2.525215    0.844358    0.310628
     14          1           0        1.229736    1.571087    1.289551
     15          1           0        1.362996    1.930372   -0.448515
     16          1           0        0.466994   -1.389014   -1.572103
     17          1           0        0.791238    0.131526   -2.037594
     18          1           0        0.356302   -1.920468    0.848089
     19          1           0        1.864055   -1.334949    0.944355
 ---------------------------------------------------------------------

 SCF Done:  E(RHF) =  -305.330949477     A.U. after    8 cycles

 The electronic state is 1-A.
 Alpha  occ. eigenvalues --  -15.54111 -15.53929 -11.29520 -11.23963 -11.22619
 Alpha  occ. eigenvalues --  -11.21372 -11.20944  -1.23297  -1.12337  -1.06993
 Alpha  occ. eigenvalues --   -0.97962  -0.92770  -0.83247  -0.71750  -0.67705
 Alpha  occ. eigenvalues --   -0.65793  -0.63290  -0.61499  -0.58200  -0.56688
 Alpha  occ. eigenvalues --   -0.54829  -0.52804  -0.51997  -0.50336  -0.48140
 Alpha  occ. eigenvalues --   -0.41013  -0.40528  -0.35309
 Alpha virt. eigenvalues --    0.03063   0.03989   0.04441   0.05230   0.06020
 Alpha virt. eigenvalues --    0.06627   0.07068   0.07265   0.07677   0.09002
 Alpha virt. eigenvalues --    0.09193   0.09961   0.10700   0.10813   0.11438

 Mulliken charges:
               1
     1  C   -0.487305
     2  C    0.169277
     3  C   -0.626187
     4  C    0.411925
     5  C   -0.607234
     6  N   -0.717692
     7  N   -0.737651
     8  H    0.177913
     9  H    0.186019
    10  H    0.175724
    11  H    0.199923
    12  H    0.166019
    13  H    0.182066
    14  H    0.189286
    15  H    0.164913
    16  H    0.280205
    17  H    0.295172
    18  H    0.277956
    19  H    0.299671
 Sum of Mulliken charges =  -0.00000

 Dipole moment (field-independent basis, Debye):
    X=             -0.9397    Y=             -0.5332    Z=             -1.1258  Tot=              1.5604
 Quadrupole moment (field-independent basis, Debye-Ang):
   XX=            -46.0523   YY=            -41.5686   ZZ=            -49.2040
   XY=              1.3546   XZ=              1.6958   YZ=             -0.2661

 Normal termination of Gaussian 09 at Fri Aug 26 11:53:47 2022.
