 Gaussian 09, Revision E.01,
 Gaussian 09:  ES64L-G09RevE.01 30-Nov-2015

 -----
 #P G4
 -----

 --------
 Frag_687
 --------
 Symbolic Z-matrix:
 Charge =  0 Multiplicity = 1

 SCF Done:  E(RB3LYP) =  -335.905405999     A.U. after   14 cycles
 SCF Done:  E(RB3LYP) =  -335.923006502     A.U. after   13 cycles
 SCF Done:  E(RB3LYP) =  -335.923818486     A.U. after   10 cycles
 SCF Done:  E(RB3LYP) =  -335.924106598     A.U. after   11 cycles
 SCF Done:  E(RB3LYP) =  -335.924239615     A.U. after   11 cycles
 SCF Done:  E(RB3LYP) =  -335.924351773     A.U. after   11 cycles
 SCF Done:  E(RB3LYP) =  -335.924517454     A.U. after   11 cycles
 SCF Done:  E(RB3LYP) =  -335.924603402     A.U. after   12 cycles
 SCF Done:  E(RB3LYP) =  -335.924835666     A.U. after   11 cycles
 SCF Done:  E(RB3LYP) =  -335.924921275     A.U. after   10 cycles
 SCF Done:  E(RB3LYP) =  -335.925013843     A.U. after    7 cycles
 SCF Done:  E(RB3LYP) =  -335.925013968     A.U. after    6 cycles
 SCF Done:  E(RB3LYP) =  -335.925014043     A.U. after    7 cycles
 Optimization completed.
    -- Stationary point found.
 Normal termination of Gaussian 09 at Tue Aug 30 09:59:24 2022.

 ----------------------------------------------------------
 #P Geom=AllCheck Guess=TCheck SCRF=Check B3LYP/GTBas3 Freq
 ----------------------------------------------------------

 Structure from the checkpoint file:  "G4.Frag_687.chk"
 --------
 Frag_687
 --------
 Charge =  0 Multiplicity = 1

 SCF Done:  E(RB3LYP) =  -335.925014043     A.U. after    1 cycles

  Exact polarizability:  48.722  -1.747  52.237   1.116   0.835  30.343
 Approx polarizability:  66.517   1.412  79.447   3.064   2.123  46.051

                      1                      2                      3
                      A                      A                      A
 Frequencies --    122.8732               139.2511               241.1003
 Red. masses --      3.8011                 1.3218                 2.6192
 Frc consts  --      0.0338                 0.0151                 0.0897
 IR Inten    --      3.1814                23.3392                23.6551

                      4                      5                      6
                      A                      A                      A
 Frequencies --    304.0533               333.1870               442.1769
 Red. masses --      2.4663                 1.3157                 1.5959
 Frc consts  --      0.1343                 0.0861                 0.1838
 IR Inten    --     44.8201                50.9750                31.7665

                      7                      8                      9
                      A                      A                      A
 Frequencies --    452.4367               544.5722               556.3335
 Red. masses --      1.7795                 2.9932                 1.4277
 Frc consts  --      0.2146                 0.5230                 0.2603
 IR Inten    --     25.5410                 4.2522               147.6809

                     10                     11                     12
                      A                      A                      A
 Frequencies --    619.5305               759.8906               778.0025
 Red. masses --      4.2954                 3.0784                 4.7059
 Frc consts  --      0.9713                 1.0473                 1.6782
 IR Inten    --      9.6293                92.4825                37.3542

                     13                     14                     15
                      A                      A                      A
 Frequencies --    807.0069              1006.0288              1094.4148
 Red. masses --      2.1881                 1.5227                 2.3294
 Frc consts  --      0.8396                 0.9080                 1.6438
 IR Inten    --     13.9015               157.3854                16.3594

                     16                     17                     18
                      A                      A                      A
 Frequencies --   1137.1099              1301.3081              1320.0966
 Red. masses --      2.5604                 2.3947                 1.3418
 Frc consts  --      1.9506                 2.3892                 1.3777
 IR Inten    --     13.8199                 6.5089                 2.7761

                     19                     20                     21
                      A                      A                      A
 Frequencies --   1358.3055              1402.5751              1608.8858
 Red. masses --      1.1833                 4.2269                 1.2063
 Frc consts  --      1.2862                 4.8992                 1.8398
 IR Inten    --      8.6285               239.2693               109.9862

                     22                     23                     24
                      A                      A                      A
 Frequencies --   1677.0408              1710.1479              1787.9536
 Red. masses --      1.0786                 1.0779                 8.2944
 Frc consts  --      1.7874                 1.8574                15.6224
 IR Inten    --      5.1674                25.2796               280.5722

                     25                     26                     27
                      A                      A                      A
 Frequencies --   3450.4240              3464.9554              3518.0824
 Red. masses --      1.0476                 1.0445                 1.0933
 Frc consts  --      7.3485                 7.3884                 7.9729
 IR Inten    --      4.7894                 2.5758                 3.2285

                     28                     29                     30
                      A                      A                      A
 Frequencies --   3559.5584              3583.2135              3699.1392
 Red. masses --      1.0988                 1.0461                 1.1003
 Frc consts  --      8.2026                 7.9138                 8.8707
 IR Inten    --      1.6653                23.0274                28.0605

 - Thermochemistry -
 -------------------
 Temperature   298.150 Kelvin.  Pressure   1.00000 Atm.
 Atom     1 has atomic number  7 and mass  14.00307

 Molecular mass:    90.05416 amu.
 Principal axes and moments of inertia in atomic units:
                           1         2         3
     Eigenvalues --   352.08103 481.98182 808.46797
           X            0.99132  -0.13148  -0.00042
           Y            0.13148   0.99131   0.00386
           Z           -0.00009  -0.00388   0.99999
 This molecule is an asymmetric top.
 Rotational symmetry number  1.
 Rotational temperatures (Kelvin)      0.24601     0.17970     0.10713
 Rotational constants (GHZ):           5.12593     3.74442     2.23230
 Zero-point vibrational energy     255879.2 (Joules/Mol)
                                   61.15659 (Kcal/Mol)
 Warning -- explicit consideration of  10 degrees of freedom as
           vibrations may cause significant error
 Vibrational temperatures:    176.79   200.35   346.89   437.46   479.38
          (Kelvin)            636.19   650.95   783.52   800.44   891.37
                             1093.31  1119.37  1161.10  1447.45  1574.62
                             1636.05  1872.29  1899.32  1954.30  2017.99
                             2314.82  2412.88  2460.52  2572.46  4964.38
                             4985.29  5061.73  5121.40  5155.44  5322.23

 Zero-point correction=                           0.097459 (Hartree/Particle)
 Thermal correction to Energy=                    0.104383
 Thermal correction to Enthalpy=                  0.105327
 Thermal correction to Gibbs Free Energy=         0.067206
 Sum of electronic and zero-point Energies=           -335.827555
 Sum of electronic and thermal Energies=              -335.820631
 Sum of electronic and thermal Enthalpies=            -335.819687
 Sum of electronic and thermal Free Energies=         -335.857808

                     E (Thermal)             CV                S
                      KCal/Mol        Cal/Mol-Kelvin    Cal/Mol-Kelvin
 Total                   65.501             24.477             80.232
 Electronic               0.000              0.000              0.000
 Translational            0.889              2.981             39.406
 Rotational               0.889              2.981             26.420
 Vibrational             63.724             18.515             14.406
 Vibration     1          0.610              1.930              3.055
 Vibration     2          0.615              1.914              2.814
 Vibration     3          0.658              1.777              1.795
 Vibration     4          0.695              1.666              1.394
 Vibration     5          0.715              1.609              1.245
 Vibration     6          0.802              1.378              0.820
 Vibration     7          0.811              1.356              0.788
 Vibration     8          0.900              1.152              0.556
 Vibration     9          0.912              1.126              0.531
 Vibration    10          0.979              0.991              0.417

 Optimization completed.
    -- Stationary point found.
 Normal termination of Gaussian 09 at Tue Aug 30 09:59:52 2022.

 -----------------------------------------------------------------
 #P Geom=AllCheck Guess=TCheck SCRF=Check CCSD(T,E4T,FrzG4)/GTBas1
 -----------------------------------------------------------------

 Structure from the checkpoint file:  "G4.Frag_687.chk"
 --------
 Frag_687
 --------
 Charge =  0 Multiplicity = 1

 SCF Done:  E(RHF) =  -333.956230654     A.U. after   13 cycles
 E2 =    -0.9528625451D+00 EUMP2 =    -0.33490909319942D+03
 CCSD(T)
 CCSD(T)= -0.33497410751D+03
 \CCSD=-334.9444048\CCSD(T)=-334.9741075\RMSD=6.866e-09\PG=C01 [X(C1H6N
 Normal termination of Gaussian 09 at Tue Aug 30 10:01:46 2022.

 ---------------------------------------------------------
 #P Geom=AllCheck Guess=TCheck SCRF=Check MP4=FrzG4/GTBas2
 ---------------------------------------------------------

 Structure from the checkpoint file:  "G4.Frag_687.chk"
 --------
 Frag_687
 --------
 Charge =  0 Multiplicity = 1

 SCF Done:  E(RHF) =  -333.969091427     A.U. after   13 cycles
 E2 =    -0.9697030720D+00 EUMP2 =    -0.33493879449878D+03
 Normal termination of Gaussian 09 at Tue Aug 30 10:02:19 2022.

 ---------------------------------------------------------
 #P Geom=AllCheck Guess=TCheck SCRF=Check MP4=FrzG4/GTBas3
 ---------------------------------------------------------

 Structure from the checkpoint file:  "G4.Frag_687.chk"
 --------
 Frag_687
 --------
 Charge =  0 Multiplicity = 1

 SCF Done:  E(RHF) =  -334.003415283     A.U. after   12 cycles
 E2 =    -0.1157076900D+01 EUMP2 =    -0.33516049218295D+03
 Normal termination of Gaussian 09 at Tue Aug 30 10:05:11 2022.

 -----------------------------------------------------------
 #P Geom=AllCheck Guess=TCheck SCRF=Check MP2=Full/GTLargeXP
 -----------------------------------------------------------

 Structure from the checkpoint file:  "G4.Frag_687.chk"
 --------
 Frag_687
 --------
 Charge =  0 Multiplicity = 1

 SCF Done:  E(RHF) =  -334.096820001     A.U. after   12 cycles
 E2 =    -0.1504941204D+01 EUMP2 =    -0.33560176120517D+03
 Normal termination of Gaussian 09 at Tue Aug 30 10:06:58 2022.
 SCF Done:  E(RHF) =  -334.122748824     A.U. after    9 cycles
 Normal termination of Gaussian 09 at Tue Aug 30 10:08:37 2022.

                         Standard orientation:
 ---------------------------------------------------------------------
 Center     Atomic      Atomic             Coordinates (Angstroms)
 Number     Number       Type             X           Y           Z
 ---------------------------------------------------------------------
      1          7           0       -1.586436    0.817046   -0.022269
      2          6           0       -0.701972   -0.248870    0.037797
      3          8           0       -1.057707   -1.408138   -0.073748
      4          7           0        0.636481    0.104703    0.188011
      5          7           0        1.588606   -0.916154   -0.038950
      6          7           0        1.091835    1.392072   -0.141072
      7          1           0       -2.544802    0.524920    0.095399
      8          1           0       -1.341434    1.668882    0.456647
      9          1           0        1.147135   -1.599737   -0.653910
     10          1           0        1.727414   -1.401701    0.844562
     11          1           0        0.579663    1.768870   -0.934432
     12          1           0        0.992107    2.013417    0.654895
 ---------------------------------------------------------------------

 SCF Done:  E(RHF) =  -334.128351465     A.U. after    8 cycles

 The electronic state is 1-A.
 Alpha  occ. eigenvalues --  -20.52259 -15.63646 -15.59647 -15.59242 -15.57863
 Alpha  occ. eigenvalues --  -11.38507  -1.41532  -1.33178  -1.22256  -1.16724
 Alpha  occ. eigenvalues --   -1.01291  -0.81535  -0.76128  -0.72597  -0.70288
 Alpha  occ. eigenvalues --   -0.65585  -0.64570  -0.61578  -0.58338  -0.48396
 Alpha  occ. eigenvalues --   -0.45610  -0.44284  -0.42424  -0.39502
 Alpha virt. eigenvalues --    0.02985   0.04961   0.05279   0.05629   0.07808
 Alpha virt. eigenvalues --    0.08639   0.08844   0.09239   0.09689   0.11485
 Alpha virt. eigenvalues --    0.12188   0.12723   0.13871   0.15227   0.15614

 Mulliken charges:
               1
     1  N   -0.702813
     2  C    0.640995
     3  O   -0.658183
     4  N   -0.093571
     5  N   -0.542842
     6  N   -0.578421
     7  H    0.349755
     8  H    0.323908
     9  H    0.321724
    10  H    0.304262
    11  H    0.321711
    12  H    0.313473
 Sum of Mulliken charges =  -0.00000

 Dipole moment (field-independent basis, Debye):
    X=             -1.3349    Y=              3.3488    Z=              1.4242  Tot=              3.8762
 Quadrupole moment (field-independent basis, Debye-Ang):
   XX=            -39.3277   YY=            -32.9449   ZZ=            -34.2441
   XY=             -6.9185   XZ=              0.5184   YZ=              1.2258

 Normal termination of Gaussian 09 at Tue Aug 30 10:14:44 2022.
