 Gaussian 09, Revision E.01,
 Gaussian 09:  ES64L-G09RevE.01 30-Nov-2015

 -----
 #P G4
 -----

 --------
 Frag_467
 --------
 Symbolic Z-matrix:
 Charge =  0 Multiplicity = 1

 SCF Done:  E(RB3LYP) =  -186.949361537     A.U. after   15 cycles
 SCF Done:  E(RB3LYP) =  -186.976599054     A.U. after   12 cycles
 SCF Done:  E(RB3LYP) =  -186.980617374     A.U. after   13 cycles
 SCF Done:  E(RB3LYP) =  -186.984248133     A.U. after   14 cycles
 SCF Done:  E(RB3LYP) =  -186.984701134     A.U. after   12 cycles
 SCF Done:  E(RB3LYP) =  -186.984014274     A.U. after   14 cycles
 SCF Done:  E(RB3LYP) =  -186.985222540     A.U. after   11 cycles
 SCF Done:  E(RB3LYP) =  -186.985609653     A.U. after   11 cycles
 SCF Done:  E(RB3LYP) =  -186.985693819     A.U. after   11 cycles
 SCF Done:  E(RB3LYP) =  -186.985722974     A.U. after   10 cycles
 SCF Done:  E(RB3LYP) =  -186.985736890     A.U. after    9 cycles
 SCF Done:  E(RB3LYP) =  -186.985739714     A.U. after    8 cycles
 Optimization completed.
    -- Stationary point found.
 Normal termination of Gaussian 09 at Tue Aug 30 10:44:30 2022.

 ----------------------------------------------------------
 #P Geom=AllCheck Guess=TCheck SCRF=Check B3LYP/GTBas3 Freq
 ----------------------------------------------------------

 Structure from the checkpoint file:  "G4.Frag_467.chk"
 --------
 Frag_467
 --------
 Charge =  0 Multiplicity = 1

 SCF Done:  E(RB3LYP) =  -186.985739714     A.U. after    1 cycles

  Exact polarizability:  31.654   1.769  22.983   0.882  -1.169  19.751
 Approx polarizability:  43.923   2.767  34.834   0.077  -1.726  27.742

                      1                      2                      3
                      A                      A                      A
 Frequencies --    220.1539               407.4569               460.9234
 Red. masses --      1.1363                 3.2360                 1.1521
 Frc consts  --      0.0324                 0.3165                 0.1442
 IR Inten    --     10.4723                20.9928                73.3213

                      4                      5                      6
                      A                      A                      A
 Frequencies --    632.2595               866.8470              1027.9481
 Red. masses --      4.3517                 6.6903                 1.2279
 Frc consts  --      1.0250                 2.9620                 0.7645
 IR Inten    --     14.1316                67.9997                16.4706

                      7                      8                      9
                      A                      A                      A
 Frequencies --   1122.5180              1304.4384              1413.4986
 Red. masses --      1.7687                 1.1301                 1.1308
 Frc consts  --      1.3131                 1.1329                 1.3311
 IR Inten    --     12.4866                22.1823                11.9565

                     10                     11                     12
                      A                      A                      A
 Frequencies --   1582.7544              1661.1609              3092.6505
 Red. masses --      1.0638                 1.0536                 1.0659
 Frc consts  --      1.5701                 1.7130                 6.0065
 IR Inten    --     23.9798                34.5770               126.1154

                     13                     14                     15
                      A                      A                      A
 Frequencies --   3252.0093              3509.4298              3660.4864
 Red. masses --      1.0579                 1.0815                 1.0690
 Frc consts  --      6.5919                 7.8478                 8.4391
 IR Inten    --     28.7134                27.3945                 4.4028

 - Thermochemistry -
 -------------------
 Temperature   298.150 Kelvin.  Pressure   1.00000 Atm.
 Atom     1 has atomic number  7 and mass  14.00307

 Molecular mass:    48.03236 amu.
 Principal axes and moments of inertia in atomic units:
                           1         2         3
     Eigenvalues --    43.98685 173.21186 201.82864
           X            0.99958   0.01599   0.02423
           Y           -0.01496   0.99901  -0.04187
           Z           -0.02487   0.04148   0.99883
 This molecule is an asymmetric top.
 Rotational symmetry number  1.
 Rotational temperatures (Kelvin)      1.96908     0.50005     0.42915
 Rotational constants (GHZ):          41.02911    10.41927     8.94195
 Zero-point vibrational energy     144835.1 (Joules/Mol)
                                   34.61642 (Kcal/Mol)
 Warning -- explicit consideration of   3 degrees of freedom as
           vibrations may cause significant error
 Vibrational temperatures:    316.75   586.24   663.17   909.68  1247.20
          (Kelvin)           1478.99  1615.05  1876.79  2033.71  2277.23
                             2390.04  4449.63  4678.91  5049.28  5266.62

 Zero-point correction=                           0.055165 (Hartree/Particle)
 Thermal correction to Energy=                    0.059368
 Thermal correction to Enthalpy=                  0.060312
 Thermal correction to Gibbs Free Energy=         0.029950
 Sum of electronic and zero-point Energies=           -186.930575
 Sum of electronic and thermal Energies=              -186.926372
 Sum of electronic and thermal Enthalpies=            -186.925427
 Sum of electronic and thermal Free Energies=         -186.955789

                     E (Thermal)             CV                S
                      KCal/Mol        Cal/Mol-Kelvin    Cal/Mol-Kelvin
 Total                   37.254             13.028             63.902
 Electronic               0.000              0.000              0.000
 Translational            0.889              2.981             37.532
 Rotational               0.889              2.981             21.958
 Vibrational             35.477              7.066              4.412
 Vibration     1          0.647              1.810              1.958
 Vibration     2          0.772              1.454              0.936
 Vibration     3          0.819              1.337              0.763

 Normal termination of Gaussian 09 at Tue Aug 30 10:44:39 2022.

 -----------------------------------------------------------------
 #P Geom=AllCheck Guess=TCheck SCRF=Check CCSD(T,E4T,FrzG4)/GTBas1
 -----------------------------------------------------------------

 Structure from the checkpoint file:  "G4.Frag_467.chk"
 --------
 Frag_467
 --------
 Charge =  0 Multiplicity = 1

 SCF Done:  E(RHF) =  -185.903553560     A.U. after   14 cycles
 E2 =    -0.5121497333D+00 EUMP2 =    -0.18641570329348D+03
 CCSD(T)
 CCSD(T)= -0.18645527098D+03
 7\CCSD(T)=-186.455271\RMSD=6.151e-09\PG=C01 [X(H4N2O1)]\\@
 Normal termination of Gaussian 09 at Tue Aug 30 10:44:50 2022.

 ---------------------------------------------------------
 #P Geom=AllCheck Guess=TCheck SCRF=Check MP4=FrzG4/GTBas2
 ---------------------------------------------------------

 Structure from the checkpoint file:  "G4.Frag_467.chk"
 --------
 Frag_467
 --------
 Charge =  0 Multiplicity = 1

 SCF Done:  E(RHF) =  -185.915907917     A.U. after   13 cycles
 E2 =    -0.5243273564D+00 EUMP2 =    -0.18644023527342D+03
 Normal termination of Gaussian 09 at Tue Aug 30 10:44:53 2022.

 ---------------------------------------------------------
 #P Geom=AllCheck Guess=TCheck SCRF=Check MP4=FrzG4/GTBas3
 ---------------------------------------------------------

 Structure from the checkpoint file:  "G4.Frag_467.chk"
 --------
 Frag_467
 --------
 Charge =  0 Multiplicity = 1

 SCF Done:  E(RHF) =  -185.931796746     A.U. after   13 cycles
 E2 =    -0.6288638076D+00 EUMP2 =    -0.18656066055389D+03
 Normal termination of Gaussian 09 at Tue Aug 30 10:45:04 2022.

 -----------------------------------------------------------
 #P Geom=AllCheck Guess=TCheck SCRF=Check MP2=Full/GTLargeXP
 -----------------------------------------------------------

 Structure from the checkpoint file:  "G4.Frag_467.chk"
 --------
 Frag_467
 --------
 Charge =  0 Multiplicity = 1

 SCF Done:  E(RHF) =  -185.991975926     A.U. after   13 cycles
 E2 =    -0.8136306312D+00 EUMP2 =    -0.18680560655726D+03
 Normal termination of Gaussian 09 at Tue Aug 30 10:45:12 2022.
 SCF Done:  E(RHF) =  -186.007836061     A.U. after   10 cycles
 Normal termination of Gaussian 09 at Tue Aug 30 10:45:23 2022.

                         Standard orientation:
 ---------------------------------------------------------------------
 Center     Atomic      Atomic             Coordinates (Angstroms)
 Number     Number       Type             X           Y           Z
 ---------------------------------------------------------------------
      1          7           0       -1.069908   -0.187959    0.007839
      2          7           0        0.109206    0.707525    0.019124
      3          8           0        1.167053   -0.257417   -0.117737
      4          1           0       -1.886064    0.420337   -0.063011
      5          1           0       -1.056987   -0.825683   -0.802926
      6          1           0       -1.190515   -0.795970    0.843679
      7          1           0        1.522050   -0.376312    0.775410
 ---------------------------------------------------------------------

 SCF Done:  E(RHF) =  -186.011354578     A.U. after    9 cycles

 The electronic state is 1-A.
 Alpha  occ. eigenvalues --  -20.54449 -15.68320 -15.54675  -1.36776  -1.26041
 Alpha  occ. eigenvalues --   -0.93603  -0.75152  -0.73726  -0.63810  -0.58970
 Alpha  occ. eigenvalues --   -0.49886  -0.40623  -0.31605
 Alpha virt. eigenvalues --    0.03169   0.06030   0.06657   0.08245   0.10165
 Alpha virt. eigenvalues --    0.12163   0.12652   0.13470   0.14465   0.17748
 Alpha virt. eigenvalues --    0.19201   0.20083   0.21025   0.24115   0.25683

 Mulliken charges:
               1
     1  N   -0.423028
     2  N   -0.428256
     3  O   -0.530623
     4  H    0.349563
     5  H    0.356526
     6  H    0.317451
     7  H    0.358367
 Sum of Mulliken charges =   0.00000

 Dipole moment (field-independent basis, Debye):
    X=             -4.4794    Y=             -2.9756    Z=              1.3872  Tot=              5.5537
 Quadrupole moment (field-independent basis, Debye-Ang):
   XX=            -13.1222   YY=            -20.6688   ZZ=            -17.5465
   XY=              0.4917   XZ=              2.6563   YZ=             -0.7902

 Normal termination of Gaussian 09 at Tue Aug 30 10:46:19 2022.
