 Gaussian 09, Revision E.01,
 Gaussian 09:  ES64L-G09RevE.01 30-Nov-2015

 -----
 #P G4
 -----

 --------
 Frag_783
 --------
 Symbolic Z-matrix:
 Charge =  0 Multiplicity = 1

 SCF Done:  E(RB3LYP) =  -363.041275425     A.U. after   14 cycles
 SCF Done:  E(RB3LYP) =  -363.050953087     A.U. after   12 cycles
 SCF Done:  E(RB3LYP) =  -363.051937416     A.U. after   12 cycles
 SCF Done:  E(RB3LYP) =  -363.052293804     A.U. after   11 cycles
 SCF Done:  E(RB3LYP) =  -363.052580328     A.U. after   11 cycles
 SCF Done:  E(RB3LYP) =  -363.053211065     A.U. after   12 cycles
 SCF Done:  E(RB3LYP) =  -363.053952103     A.U. after   12 cycles
 SCF Done:  E(RB3LYP) =  -363.054771178     A.U. after   11 cycles
 SCF Done:  E(RB3LYP) =  -363.055206490     A.U. after   11 cycles
 SCF Done:  E(RB3LYP) =  -363.055445737     A.U. after   11 cycles
 SCF Done:  E(RB3LYP) =  -363.058509002     A.U. after   10 cycles
 SCF Done:  E(RB3LYP) =  -363.058509692     A.U. after    9 cycles
 SCF Done:  E(RB3LYP) =  -363.058509686     A.U. after    7 cycles
 Optimization completed.
    -- Stationary point found.
 Normal termination of Gaussian 09 at Fri Aug 26 03:44:03 2022.

 ----------------------------------------------------------
 #P Geom=AllCheck Guess=TCheck SCRF=Check B3LYP/GTBas3 Freq
 ----------------------------------------------------------

 Structure from the checkpoint file:  "G4.Frag_783.chk"
 --------
 Frag_783
 --------
 Charge =  0 Multiplicity = 1

 SCF Done:  E(RB3LYP) =  -363.058509686     A.U. after    1 cycles

  Exact polarizability:  61.189  -1.070  62.407   0.803   0.142  48.293
 Approx polarizability:  81.733  -6.035  96.595  -0.969   3.144  70.364

                      1                      2                      3
                      A                      A                      A
 Frequencies --     57.0122               167.5745               217.2642
 Red. masses --      3.8055                 1.0541                 1.5816
 Frc consts  --      0.0073                 0.0174                 0.0440
 IR Inten    --      0.3049                 0.1222                 0.4629

                      4                      5                      6
                      A                      A                      A
 Frequencies --    266.7662               268.0006               274.9818
 Red. masses --      1.8652                 1.0778                 2.5116
 Frc consts  --      0.0782                 0.0456                 0.1119
 IR Inten    --      5.4958               103.7219                 1.9742

                      7                      8                      9
                      A                      A                      A
 Frequencies --    366.8765               386.0745               410.8879
 Red. masses --      2.8527                 1.7491                 2.5099
 Frc consts  --      0.2262                 0.1536                 0.2497
 IR Inten    --      3.7922                26.0464                28.0596

                     10                     11                     12
                      A                      A                      A
 Frequencies --    453.0491               547.7617               566.8906
 Red. masses --      2.3942                 3.4436                 3.4532
 Frc consts  --      0.2895                 0.6088                 0.6538
 IR Inten    --     21.4354                49.0683                36.9668

                     13                     14                     15
                      A                      A                      A
 Frequencies --    602.6542               704.9914               900.0812
 Red. masses --      2.4678                 3.6523                 2.0693
 Frc consts  --      0.5281                 1.0695                 0.9877
 IR Inten    --     15.7719                 1.2359                19.7308

                     16                     17                     18
                      A                      A                      A
 Frequencies --    937.5057               964.2724               988.5287
 Red. masses --      2.1630                 1.8311                 1.6992
 Frc consts  --      1.1201                 1.0031                 0.9783
 IR Inten    --     77.7352                54.2272                 6.6950

                     19                     20                     21
                      A                      A                      A
 Frequencies --   1055.0126              1088.4473              1106.0973
 Red. masses --      1.6007                 1.3961                 1.7445
 Frc consts  --      1.0497                 0.9745                 1.2575
 IR Inten    --     33.7874                 8.8786                25.7192

                     22                     23                     24
                      A                      A                      A
 Frequencies --   1142.2090              1176.4828              1336.6416
 Red. masses --      1.8386                 2.9453                 1.5019
 Frc consts  --      1.4133                 2.4019                 1.5809
 IR Inten    --    101.6928                80.3729                 8.6623

                     25                     26                     27
                      A                      A                      A
 Frequencies --   1360.6644              1389.5098              1411.7159
 Red. masses --      1.3526                 1.4746                 1.5881
 Frc consts  --      1.4755                 1.6774                 1.8647
 IR Inten    --    110.8872                35.1220                18.1422

                     28                     29                     30
                      A                      A                      A
 Frequencies --   1414.1136              1476.8545              1478.4440
 Red. masses --      1.5278                 1.0520                 1.0613
 Frc consts  --      1.8001                 1.3518                 1.3668
 IR Inten    --     67.4809                 5.2175                 7.1419

                     31                     32                     33
                      A                      A                      A
 Frequencies --   1485.3008              1500.5101              1735.7079
 Red. masses --      1.0526                 1.0745                 9.0433
 Frc consts  --      1.3682                 1.4254                16.0521
 IR Inten    --      3.9375                 3.3398                42.3648

                     34                     35                     36
                      A                      A                      A
 Frequencies --   3040.8057              3046.6828              3102.5089
 Red. masses --      1.0401                 1.0382                 1.0939
 Frc consts  --      5.6662                 5.6777                 6.2035
 IR Inten    --      6.8422                12.1901                10.2556

                     37                     38                     39
                      A                      A                      A
 Frequencies --   3120.9816              3145.9657              3152.7238
 Red. masses --      1.0978                 1.1030                 1.1020
 Frc consts  --      6.3004                 6.4318                 6.4536
 IR Inten    --     17.4886                10.8473                 7.8311

                     40                     41                     42
                      A                      A                      A
 Frequencies --   3445.1376              3787.0877              3817.4385
 Red. masses --      1.0721                 1.0656                 1.0657
 Frc consts  --      7.4971                 9.0048                 9.1506
 IR Inten    --      4.9755                22.6824                28.5208

 - Thermochemistry -
 -------------------
 Temperature   298.150 Kelvin.  Pressure   1.00000 Atm.
 Atom     1 has atomic number  6 and mass  12.00000

 Molecular mass:   103.06333 amu.
 Principal axes and moments of inertia in atomic units:
                           1         2         3
     Eigenvalues --   532.17069 752.09538 920.45886
           X            0.99747   0.06479   0.02917
           Y           -0.06267   0.99569  -0.06835
           Z           -0.03347   0.06635   0.99723
 This molecule is an asymmetric top.
 Rotational symmetry number  1.
 Warning -- assumption of classical behavior for rotation
           may cause significant error
 Rotational temperatures (Kelvin)      0.16276     0.11516     0.09410
 Rotational constants (GHZ):           3.39128     2.39962     1.96070
 Zero-point vibrational energy     352289.6 (Joules/Mol)
                                   84.19923 (Kcal/Mol)
 Warning -- explicit consideration of  13 degrees of freedom as
           vibrations may cause significant error
 Vibrational temperatures:     82.03   241.10   312.59   383.82   385.59
          (Kelvin)            395.64   527.85   555.47   591.18   651.84
                              788.11   815.63   867.08  1014.32  1295.01
                             1348.86  1387.37  1422.27  1517.93  1566.03
                             1591.43  1643.38  1692.69  1923.13  1957.69
                             1999.19  2031.14  2034.59  2124.86  2127.15
                             2137.01  2158.90  2497.29  4375.04  4383.49
                             4463.81  4490.39  4526.34  4536.06  4956.78
                             5448.77  5492.44

 Zero-point correction=                           0.134180 (Hartree/Particle)
 Thermal correction to Energy=                    0.142588
 Thermal correction to Enthalpy=                  0.143532
 Thermal correction to Gibbs Free Energy=         0.101938
 Sum of electronic and zero-point Energies=           -362.924330
 Sum of electronic and thermal Energies=              -362.915922
 Sum of electronic and thermal Enthalpies=            -362.914978
 Sum of electronic and thermal Free Energies=         -362.956572

                     E (Thermal)             CV                S
                      KCal/Mol        Cal/Mol-Kelvin    Cal/Mol-Kelvin
 Total                   89.475             30.777             87.542
 Electronic               0.000              0.000              0.000
 Translational            0.889              2.981             39.808
 Rotational               0.889              2.981             27.401
 Vibrational             87.698             24.815             20.333
 Vibration     1          0.596              1.975              4.558
 Vibration     2          0.624              1.882              2.463
 Vibration     3          0.646              1.815              1.982
 Vibration     4          0.672              1.734              1.617
 Vibration     5          0.673              1.732              1.609
 Vibration     6          0.677              1.720              1.565
 Vibration     7          0.740              1.540              1.093
 Vibration     8          0.755              1.500              1.015
 Vibration     9          0.775              1.447              0.923
 Vibration    10          0.812              1.354              0.787
 Vibration    11          0.903              1.145              0.549
 Vibration    12          0.923              1.103              0.510
 Vibration    13          0.961              1.026              0.445

 Optimization completed.
    -- Stationary point found.
 Normal termination of Gaussian 09 at Fri Aug 26 03:44:50 2022.

 -----------------------------------------------------------------
 #P Geom=AllCheck Guess=TCheck SCRF=Check CCSD(T,E4T,FrzG4)/GTBas1
 -----------------------------------------------------------------

 Structure from the checkpoint file:  "G4.Frag_783.chk"
 --------
 Frag_783
 --------
 Charge =  0 Multiplicity = 1

 SCF Done:  E(RHF) =  -360.864044137     A.U. after   13 cycles
 E2 =    -0.1040626413D+01 EUMP2 =    -0.36190467054988D+03
 CCSD(T)
 CCSD(T)= -0.36199118699D+03
 DTQ=-361.9921301\MP4SDQ=-361.9585435\CCSD=-361.9584106\CCSD(T)=-361.99
 Normal termination of Gaussian 09 at Fri Aug 26 03:49:22 2022.

 ---------------------------------------------------------
 #P Geom=AllCheck Guess=TCheck SCRF=Check MP4=FrzG4/GTBas2
 ---------------------------------------------------------

 Structure from the checkpoint file:  "G4.Frag_783.chk"
 --------
 Frag_783
 --------
 Charge =  0 Multiplicity = 1

 SCF Done:  E(RHF) =  -360.876101361     A.U. after   13 cycles
 E2 =    -0.1057700040D+01 EUMP2 =    -0.36193380140131D+03
 Normal termination of Gaussian 09 at Fri Aug 26 03:50:41 2022.

 ---------------------------------------------------------
 #P Geom=AllCheck Guess=TCheck SCRF=Check MP4=FrzG4/GTBas3
 ---------------------------------------------------------

 Structure from the checkpoint file:  "G4.Frag_783.chk"
 --------
 Frag_783
 --------
 Charge =  0 Multiplicity = 1

 SCF Done:  E(RHF) =  -360.912977821     A.U. after   12 cycles
 E2 =    -0.1280931315D+01 EUMP2 =    -0.36219390913593D+03
 Normal termination of Gaussian 09 at Fri Aug 26 04:00:32 2022.

 -----------------------------------------------------------
 #P Geom=AllCheck Guess=TCheck SCRF=Check MP2=Full/GTLargeXP
 -----------------------------------------------------------

 Structure from the checkpoint file:  "G4.Frag_783.chk"
 --------
 Frag_783
 --------
 Charge =  0 Multiplicity = 1

 SCF Done:  E(RHF) =  -361.008410403     A.U. after   12 cycles
 E2 =    -0.1676591623D+01 EUMP2 =    -0.36268500202575D+03
 Normal termination of Gaussian 09 at Fri Aug 26 04:04:28 2022.
 SCF Done:  E(RHF) =  -361.037018786     A.U. after    8 cycles
 Normal termination of Gaussian 09 at Fri Aug 26 04:07:34 2022.

                         Standard orientation:
 ---------------------------------------------------------------------
 Center     Atomic      Atomic             Coordinates (Angstroms)
 Number     Number       Type             X           Y           Z
 ---------------------------------------------------------------------
      1          6           0       -1.820334   -0.968800   -0.047979
      2          6           0       -0.930146    0.242588    0.069703
      3          7           0       -1.440302    1.397794    0.199709
      4          6           0        0.588434   -0.018733   -0.027981
      5          6           0        1.096452   -0.986092    1.039641
      6          8           0        1.218955    1.236950    0.076482
      7          8           0        0.887154   -0.620413   -1.278546
      8          1           0       -2.853215   -0.645482   -0.181025
      9          1           0       -1.763903   -1.583637    0.857816
     10          1           0       -1.511819   -1.601106   -0.885291
     11          1           0       -0.694404    2.095067    0.270013
     12          1           0        0.608755   -1.958966    0.956444
     13          1           0        0.914968   -0.574244    2.034904
     14          1           0        2.172444   -1.139525    0.905715
     15          1           0        2.168965    1.087196    0.022201
     16          1           0        0.585017   -0.009936   -1.962527
 ---------------------------------------------------------------------

 SCF Done:  E(RHF) =  -361.043204596     A.U. after    8 cycles

 The electronic state is 1-A.
 Alpha  occ. eigenvalues --  -20.58006 -20.57790 -15.54281 -11.36003 -11.28389
 Alpha  occ. eigenvalues --  -11.23446 -11.22384  -1.43229  -1.35060  -1.20991
 Alpha  occ. eigenvalues --   -1.03375  -0.98087  -0.87888  -0.76135  -0.74517
 Alpha  occ. eigenvalues --   -0.69847  -0.64847  -0.63594  -0.58935  -0.56692
 Alpha  occ. eigenvalues --   -0.56047  -0.55431  -0.55116  -0.52546  -0.50856
 Alpha  occ. eigenvalues --   -0.48546  -0.42312  -0.40893
 Alpha virt. eigenvalues --    0.03169   0.04023   0.04267   0.05504   0.06234
 Alpha virt. eigenvalues --    0.06788   0.07206   0.07323   0.07964   0.09394
 Alpha virt. eigenvalues --    0.09622   0.10505   0.10719   0.12787   0.13472

 Mulliken charges:
               1
     1  C   -0.564651
     2  C    0.259801
     3  N   -0.622396
     4  C    0.503955
     5  C   -0.559733
     6  O   -0.635120
     7  O   -0.605897
     8  H    0.211007
     9  H    0.177490
    10  H    0.200624
    11  H    0.313822
    12  H    0.183817
    13  H    0.196949
    14  H    0.170199
    15  H    0.384043
    16  H    0.386089
 Sum of Mulliken charges =  -0.00000

 Dipole moment (field-independent basis, Debye):
    X=              2.2157    Y=             -1.4091    Z=              0.0015  Tot=              2.6258
 Quadrupole moment (field-independent basis, Debye-Ang):
   XX=            -43.8581   YY=            -46.1617   ZZ=            -41.2922
   XY=              5.8922   XZ=              2.0298   YZ=             -3.0166

 Normal termination of Gaussian 09 at Fri Aug 26 04:19:16 2022.
