 Gaussian 09, Revision E.01,
 Gaussian 09:  ES64L-G09RevE.01 30-Nov-2015

 -----
 #P G4
 -----

 --------
 Frag_749
 --------
 Symbolic Z-matrix:
 Charge =  0 Multiplicity = 1

 SCF Done:  E(RB3LYP) =  -154.747291823     A.U. after   13 cycles
 SCF Done:  E(RB3LYP) =  -154.748182831     A.U. after   12 cycles
 SCF Done:  E(RB3LYP) =  -154.746735407     A.U. after   12 cycles
 SCF Done:  E(RB3LYP) =  -154.748254543     A.U. after   10 cycles
 SCF Done:  E(RB3LYP) =  -154.748057291     A.U. after   12 cycles
 SCF Done:  E(RB3LYP) =  -154.748286173     A.U. after    9 cycles
 SCF Done:  E(RB3LYP) =  -154.748310288     A.U. after   10 cycles
 SCF Done:  E(RB3LYP) =  -154.748311614     A.U. after    8 cycles
 Optimization completed.
    -- Stationary point found.
 Normal termination of Gaussian 09 at Wed Aug 24 03:12:29 2022.

 ----------------------------------------------------------
 #P Geom=AllCheck Guess=TCheck SCRF=Check B3LYP/GTBas3 Freq
 ----------------------------------------------------------

 Structure from the checkpoint file:  "G4.Frag_749.chk"
 --------
 Frag_749
 --------
 Charge =  0 Multiplicity = 1

 SCF Done:  E(RB3LYP) =  -154.748311614     A.U. after    1 cycles

  Exact polarizability:  71.693  -0.780  32.307   0.000  -0.000  19.078
 Approx polarizability: 124.022  -2.307  48.110  -0.000  -0.000  27.857

                      1                      2                      3
                      A                      A                      A
 Frequencies --    225.1587               327.0235               555.9151
 Red. masses --      3.1442                 2.4562                 3.6749
 Frc consts  --      0.0939                 0.1548                 0.6691
 IR Inten    --      1.6190                 4.5281                 1.9660

                      4                      5                      6
                      A                      A                      A
 Frequencies --    603.6603               640.1837               715.9501
 Red. masses --      1.2668                 1.2104                 1.8656
 Frc consts  --      0.2720                 0.2923                 0.5634
 IR Inten    --     44.3671                43.7928                 0.4990

                      7                      8                      9
                      A                      A                      A
 Frequencies --    894.1152               954.9895              1018.9432
 Red. masses --      2.5841                 1.3687                 1.0960
 Frc consts  --      1.2171                 0.7355                 0.6704
 IR Inten    --      2.0690                30.1653                13.5794

                     10                     11                     12
                      A                      A                      A
 Frequencies --   1111.1760              1322.6724              1447.0299
 Red. masses --      1.6746                 1.2743                 1.2071
 Frc consts  --      1.2182                 1.3135                 1.4892
 IR Inten    --      3.7941                 0.6531                 2.3573

                     13                     14                     15
                      A                      A                      A
 Frequencies --   1674.7551              2223.6559              3145.0672
 Red. masses --      4.3757                 6.0966                 1.0817
 Frc consts  --      7.2310                17.7612                 6.3041
 IR Inten    --      6.6744                 0.2219                 6.8805

                     16                     17                     18
                      A                      A                      A
 Frequencies --   3162.3287              3251.1041              3504.6867
 Red. masses --      1.0655                 1.1165                 1.1588
 Frc consts  --      6.2780                 6.9527                 8.3864
 IR Inten    --      2.7330                 6.5028                68.7541

 - Thermochemistry -
 -------------------
 Temperature   298.150 Kelvin.  Pressure   1.00000 Atm.
 Atom     1 has atomic number  6 and mass  12.00000

 Molecular mass:    52.03130 amu.
 Principal axes and moments of inertia in atomic units:
                           1         2         3
     Eigenvalues --    34.65534 381.27450 415.92984
           X            0.99999   0.00348  -0.00000
           Y           -0.00348   0.99999   0.00000
           Z            0.00000  -0.00000   1.00000
 This molecule is an asymmetric top.
 Rotational symmetry number  1.
 Rotational temperatures (Kelvin)      2.49929     0.22717     0.20824
 Rotational constants (GHZ):          52.07686     4.73344     4.33905
 Zero-point vibrational energy     160170.5 (Joules/Mol)
                                   38.28167 (Kcal/Mol)
 Warning -- explicit consideration of   4 degrees of freedom as
           vibrations may cause significant error
 Vibrational temperatures:    323.95   470.51   799.84   868.53   921.08
          (Kelvin)           1030.09  1286.43  1374.02  1466.03  1598.73
                             1903.03  2081.95  2409.60  3199.34  4525.04
                             4549.88  4677.61  5042.46

 Zero-point correction=                           0.061006 (Hartree/Particle)
 Thermal correction to Energy=                    0.065514
 Thermal correction to Enthalpy=                  0.066458
 Thermal correction to Gibbs Free Energy=         0.034965
 Sum of electronic and zero-point Energies=           -154.687306
 Sum of electronic and thermal Energies=              -154.682798
 Sum of electronic and thermal Enthalpies=            -154.681854
 Sum of electronic and thermal Free Energies=         -154.713346

                     E (Thermal)             CV                S
                      KCal/Mol        Cal/Mol-Kelvin    Cal/Mol-Kelvin
 Total                   41.110             15.121             66.281
 Electronic               0.000              0.000              0.000
 Translational            0.889              2.981             37.771
 Rotational               0.889              2.981             23.223
 Vibrational             39.333              9.160              5.288
 Vibration     1          0.650              1.803              1.917
 Vibration     2          0.711              1.621              1.275
 Vibration     3          0.911              1.127              0.532
 Vibration     4          0.962              1.024              0.443

 Optimization completed.
    -- Stationary point found.
 Normal termination of Gaussian 09 at Wed Aug 24 03:12:54 2022.

 -----------------------------------------------------------------
 #P Geom=AllCheck Guess=TCheck SCRF=Check CCSD(T,E4T,FrzG4)/GTBas1
 -----------------------------------------------------------------

 Structure from the checkpoint file:  "G4.Frag_749.chk"
 --------
 Frag_749
 --------
 Charge =  0 Multiplicity = 1

 SCF Done:  E(RHF) =  -153.706474851     A.U. after   14 cycles
 E2 =    -0.4983218603D+00 EUMP2 =    -0.15420479671118D+03
 CCSD(T)
 CCSD(T)= -0.15425870265D+03
 2584066\MP4SDQ=-154.2351366\CCSD=-154.2359718\CCSD(T)=-154.2587026\RMS
 Normal termination of Gaussian 09 at Wed Aug 24 03:13:12 2022.

 ---------------------------------------------------------
 #P Geom=AllCheck Guess=TCheck SCRF=Check MP4=FrzG4/GTBas2
 ---------------------------------------------------------

 Structure from the checkpoint file:  "G4.Frag_749.chk"
 --------
 Frag_749
 --------
 Charge =  0 Multiplicity = 1

 SCF Done:  E(RHF) =  -153.713889558     A.U. after   15 cycles
 E2 =    -0.5015679684D+00 EUMP2 =    -0.15421545752664D+03
 Normal termination of Gaussian 09 at Wed Aug 24 03:13:19 2022.

 ---------------------------------------------------------
 #P Geom=AllCheck Guess=TCheck SCRF=Check MP4=FrzG4/GTBas3
 ---------------------------------------------------------

 Structure from the checkpoint file:  "G4.Frag_749.chk"
 --------
 Frag_749
 --------
 Charge =  0 Multiplicity = 1

 SCF Done:  E(RHF) =  -153.725464374     A.U. after   12 cycles
 E2 =    -0.5954787288D+00 EUMP2 =    -0.15432094310282D+03
 Normal termination of Gaussian 09 at Wed Aug 24 03:14:27 2022.

 -----------------------------------------------------------
 #P Geom=AllCheck Guess=TCheck SCRF=Check MP2=Full/GTLargeXP
 -----------------------------------------------------------

 Structure from the checkpoint file:  "G4.Frag_749.chk"
 --------
 Frag_749
 --------
 Charge =  0 Multiplicity = 1

 SCF Done:  E(RHF) =  -153.761324987     A.U. after   13 cycles
 E2 =    -0.7970564471D+00 EUMP2 =    -0.15455838143367D+03
 Normal termination of Gaussian 09 at Wed Aug 24 03:15:03 2022.
 SCF Done:  E(RHF) =  -153.773497237     A.U. after   10 cycles
 Normal termination of Gaussian 09 at Wed Aug 24 03:16:22 2022.

                         Standard orientation:
 ---------------------------------------------------------------------
 Center     Atomic      Atomic             Coordinates (Angstroms)
 Number     Number       Type             X           Y           Z
 ---------------------------------------------------------------------
      1          6           0       -1.906080   -0.170933   -0.000000
      2          6           0       -0.734133    0.108845   -0.000017
      3          6           0        0.633385    0.486887    0.000002
      4          6           0        1.659661   -0.369524    0.000003
      5          1           0       -2.934972   -0.433109    0.000052
      6          1           0        0.828914    1.557582    0.000013
      7          1           0        2.683432   -0.013521    0.000015
      8          1           0        1.505628   -1.442605   -0.000009
 ---------------------------------------------------------------------

 SCF Done:  E(RHF) =  -153.775725601     A.U. after    7 cycles

 The electronic state is 1-A.
 Alpha  occ. eigenvalues --  -11.26185 -11.24799 -11.23961 -11.23031  -1.09331
 Alpha  occ. eigenvalues --   -1.00602  -0.84501  -0.72354  -0.67511  -0.62563
 Alpha  occ. eigenvalues --   -0.54248  -0.46720  -0.39750  -0.34570
 Alpha virt. eigenvalues --    0.03968   0.04173   0.04605   0.05870   0.06440
 Alpha virt. eigenvalues --    0.07264   0.07774   0.08584   0.09515   0.10226
 Alpha virt. eigenvalues --    0.10642   0.11049   0.12483   0.14024   0.15090

 Mulliken charges:
               1
     1  C   -0.468781
     2  C    0.161070
     3  C   -0.195118
     4  C   -0.349887
     5  H    0.249380
     6  H    0.211549
     7  H    0.200949
     8  H    0.190838
 Sum of Mulliken charges =  -0.00000

 Dipole moment (field-independent basis, Debye):
    X=              0.5266    Y=             -0.0493    Z=              0.0001  Tot=              0.5289
 Quadrupole moment (field-independent basis, Debye-Ang):
   XX=            -18.0554   YY=            -23.3602   ZZ=            -27.5105
   XY=              1.1115   XZ=             -0.0002   YZ=             -0.0000

 Normal termination of Gaussian 09 at Wed Aug 24 03:45:28 2022.
