 Gaussian 09, Revision E.01,
 Gaussian 09:  ES64L-G09RevE.01 30-Nov-2015

 -----
 #P G4
 -----

 --------
 Frag_753
 --------
 Symbolic Z-matrix:
 Charge =  0 Multiplicity = 1

 SCF Done:  E(RB3LYP) =  -268.369371129     A.U. after   13 cycles
 SCF Done:  E(RB3LYP) =  -268.373241037     A.U. after   13 cycles
 SCF Done:  E(RB3LYP) =  -268.373389585     A.U. after   13 cycles
 SCF Done:  E(RB3LYP) =  -268.374134453     A.U. after   13 cycles
 SCF Done:  E(RB3LYP) =  -268.375727802     A.U. after   13 cycles
 SCF Done:  E(RB3LYP) =  -268.348437333     A.U. after   14 cycles
 SCF Done:  E(RB3LYP) =  -268.376894412     A.U. after   10 cycles
 SCF Done:  E(RB3LYP) =  -268.380848035     A.U. after   12 cycles
 SCF Done:  E(RB3LYP) =  -268.384275733     A.U. after   14 cycles
 SCF Done:  E(RB3LYP) =  -268.382308682     A.U. after   12 cycles
 SCF Done:  E(RB3LYP) =  -268.390100730     A.U. after   10 cycles
 SCF Done:  E(RB3LYP) =  -268.390100762     A.U. after    7 cycles
 SCF Done:  E(RB3LYP) =  -268.390100762     A.U. after    6 cycles
 Optimization completed.
    -- Stationary point found.
 Normal termination of Gaussian 09 at Fri Aug 26 13:20:31 2022.

 ----------------------------------------------------------
 #P Geom=AllCheck Guess=TCheck SCRF=Check B3LYP/GTBas3 Freq
 ----------------------------------------------------------

 Structure from the checkpoint file:  "G4.Frag_753.chk"
 --------
 Frag_753
 --------
 Charge =  0 Multiplicity = 1

 SCF Done:  E(RB3LYP) =  -268.390100762     A.U. after    1 cycles

  Exact polarizability:  44.382  -1.781  43.207   0.000  -0.000  30.406
 Approx polarizability:  55.606  -3.139  69.764   0.000  -0.000  44.510

                      1                      2                      3
                      A                      A                      A
 Frequencies --     29.4430               134.6914               285.5266
 Red. masses --      1.1778                 2.1348                 3.9394
 Frc consts  --      0.0006                 0.0228                 0.1892
 IR Inten    --      0.1605                 3.1725                11.7654

                      4                      5                      6
                      A                      A                      A
 Frequencies --    410.3155               411.8074               494.5332
 Red. masses --      1.2857                 3.7631                 1.5481
 Frc consts  --      0.1275                 0.3760                 0.2231
 IR Inten    --     30.1859                11.1340                39.2977

                      7                      8                      9
                      A                      A                      A
 Frequencies --    620.8251               804.9358               866.2378
 Red. masses --      4.3030                 2.9862                 1.3154
 Frc consts  --      0.9772                 1.1400                 0.5815
 IR Inten    --      9.2623                10.8804                 1.6985

                     10                     11                     12
                      A                      A                      A
 Frequencies --    968.0533              1100.0017              1131.4902
 Red. masses --      2.1713                 2.0853                 4.2911
 Frc consts  --      1.1989                 1.4867                 3.2368
 IR Inten    --     15.4455                 1.2298               125.8040

                     13                     14                     15
                      A                      A                      A
 Frequencies --   1209.8096              1251.6862              1317.6907
 Red. masses --      2.0775                 1.0992                 1.5068
 Frc consts  --      1.7915                 1.0146                 1.5415
 IR Inten    --     22.3522                 0.7614                71.7037

                     16                     17                     18
                      A                      A                      A
 Frequencies --   1387.1286              1452.4862              1464.1423
 Red. masses --      1.3281                 1.2562                 1.0911
 Frc consts  --      1.5056                 1.5615                 1.3780
 IR Inten    --     38.0068                80.6127                 5.8933

                     19                     20                     21
                      A                      A                      A
 Frequencies --   1475.0787              1494.8270              1801.9343
 Red. masses --      1.0471                 1.0905                10.1299
 Frc consts  --      1.3423                 1.4357                19.3790
 IR Inten    --      9.7981                17.5150               127.8220

                     22                     23                     24
                      A                      A                      A
 Frequencies --   2966.9150              2981.0949              3041.2872
 Red. masses --      1.0567                 1.1013                 1.0369
 Frc consts  --      5.4804                 5.7664                 5.6509
 IR Inten    --     37.5134                30.5400                 2.8470

                     25                     26                     27
                      A                      A                      A
 Frequencies --   3101.9707              3155.8664              3673.2559
 Red. masses --      1.0982                 1.1019                 1.0644
 Frc consts  --      6.2262                 6.4661                 8.4615
 IR Inten    --      6.2143                 6.1486                71.9979

 - Thermochemistry -
 -------------------
 Temperature   298.150 Kelvin.  Pressure   1.00000 Atm.
 Atom     1 has atomic number  6 and mass  12.00000

 Molecular mass:    74.03678 amu.
 Principal axes and moments of inertia in atomic units:
                           1         2         3
     Eigenvalues --   177.99391 473.25333 628.91181
           X            0.99927  -0.03833   0.00000
           Y            0.03833   0.99927   0.00000
           Z           -0.00000  -0.00000   1.00000
 This molecule is an asymmetric top.
 Rotational symmetry number  1.
 Rotational temperatures (Kelvin)      0.48661     0.18302     0.13772
 Rotational constants (GHZ):          10.13934     3.81348     2.86963
 Zero-point vibrational energy     233469.4 (Joules/Mol)
                                   55.80052 (Kcal/Mol)
 Warning -- explicit consideration of   6 degrees of freedom as
           vibrations may cause significant error
 Vibrational temperatures:     42.36   193.79   410.81   590.35   592.50
          (Kelvin)            711.52   893.23  1158.12  1246.32  1392.81
                             1582.66  1627.96  1740.64  1800.90  1895.86
                             1995.77  2089.80  2106.57  2122.31  2150.72
                             2592.58  4268.72  4289.13  4375.73  4463.04
                             4540.58  5284.99

 Zero-point correction=                           0.088924 (Hartree/Particle)
 Thermal correction to Energy=                    0.095017
 Thermal correction to Enthalpy=                  0.095961
 Thermal correction to Gibbs Free Energy=         0.058789
 Sum of electronic and zero-point Energies=           -268.301177
 Sum of electronic and thermal Energies=              -268.295084
 Sum of electronic and thermal Enthalpies=            -268.294140
 Sum of electronic and thermal Free Energies=         -268.331311

                     E (Thermal)             CV                S
                      KCal/Mol        Cal/Mol-Kelvin    Cal/Mol-Kelvin
 Total                   59.624             19.825             78.235
 Electronic               0.000              0.000              0.000
 Translational            0.889              2.981             38.822
 Rotational               0.889              2.981             25.475
 Vibrational             57.847             13.863             13.938
 Vibration     1          0.593              1.984              5.867
 Vibration     2          0.613              1.919              2.878
 Vibration     3          0.683              1.701              1.500
 Vibration     4          0.774              1.448              0.926
 Vibration     5          0.776              1.445              0.920
 Vibration     6          0.850              1.262              0.672

 Optimization completed.
    -- Stationary point found.
 Normal termination of Gaussian 09 at Fri Aug 26 13:20:51 2022.

 -----------------------------------------------------------------
 #P Geom=AllCheck Guess=TCheck SCRF=Check CCSD(T,E4T,FrzG4)/GTBas1
 -----------------------------------------------------------------

 Structure from the checkpoint file:  "G4.Frag_753.chk"
 --------
 Frag_753
 --------
 Charge =  0 Multiplicity = 1

 SCF Done:  E(RHF) =  -266.808708171     A.U. after   12 cycles
 E2 =    -0.7394726170D+00 EUMP2 =    -0.26754818078766D+03
 CCSD(T)
 CCSD(T)= -0.26760726630D+03
 4SDQ=-267.5858387\CCSD=-267.5845635\CCSD(T)=-267.6072663\RMSD=8.540e-0
 Normal termination of Gaussian 09 at Fri Aug 26 13:21:45 2022.

 ---------------------------------------------------------
 #P Geom=AllCheck Guess=TCheck SCRF=Check MP4=FrzG4/GTBas2
 ---------------------------------------------------------

 Structure from the checkpoint file:  "G4.Frag_753.chk"
 --------
 Frag_753
 --------
 Charge =  0 Multiplicity = 1

 SCF Done:  E(RHF) =  -266.817766439     A.U. after   12 cycles
 E2 =    -0.7506458784D+00 EUMP2 =    -0.26756841231756D+03
 Normal termination of Gaussian 09 at Fri Aug 26 13:22:00 2022.

 ---------------------------------------------------------
 #P Geom=AllCheck Guess=TCheck SCRF=Check MP4=FrzG4/GTBas3
 ---------------------------------------------------------

 Structure from the checkpoint file:  "G4.Frag_753.chk"
 --------
 Frag_753
 --------
 Charge =  0 Multiplicity = 1

 SCF Done:  E(RHF) =  -266.842451368     A.U. after   11 cycles
 E2 =    -0.9132005631D+00 EUMP2 =    -0.26775565193093D+03
 Normal termination of Gaussian 09 at Fri Aug 26 13:23:14 2022.

 -----------------------------------------------------------
 #P Geom=AllCheck Guess=TCheck SCRF=Check MP2=Full/GTLargeXP
 -----------------------------------------------------------

 Structure from the checkpoint file:  "G4.Frag_753.chk"
 --------
 Frag_753
 --------
 Charge =  0 Multiplicity = 1

 SCF Done:  E(RHF) =  -266.915502342     A.U. after   12 cycles
 E2 =    -0.1197396816D+01 EUMP2 =    -0.26811289915836D+03
 Normal termination of Gaussian 09 at Fri Aug 26 13:24:01 2022.
 SCF Done:  E(RHF) =  -266.937159790     A.U. after    9 cycles
 Normal termination of Gaussian 09 at Fri Aug 26 13:24:54 2022.

                         Standard orientation:
 ---------------------------------------------------------------------
 Center     Atomic      Atomic             Coordinates (Angstroms)
 Number     Number       Type             X           Y           Z
 ---------------------------------------------------------------------
      1          6           0        1.854042   -0.448436    0.000024
      2          6           0        0.472299    0.160506   -0.000025
      3          8           0        0.276206    1.357421   -0.000022
      4          6           0       -0.726783   -0.781390   -0.000050
      5          8           0       -1.928837   -0.073564    0.000057
      6          1           0        1.987174   -1.086647    0.880518
      7          1           0        2.608831    0.338468   -0.000461
      8          1           0        1.986915   -1.087565   -0.879838
      9          1           0       -0.646945   -1.440211   -0.881469
     10          1           0       -0.646892   -1.440376    0.881239
     11          1           0       -1.665382    0.861390    0.000035
 ---------------------------------------------------------------------

 SCF Done:  E(RHF) =  -266.941803969     A.U. after    8 cycles

 The electronic state is 1-A.
 Alpha  occ. eigenvalues --  -20.56533 -20.55694 -11.34819 -11.29639 -11.25138
 Alpha  occ. eigenvalues --   -1.41785  -1.36234  -1.04661  -0.95227  -0.77384
 Alpha  occ. eigenvalues --   -0.71150  -0.66314  -0.65880  -0.60232  -0.59798
 Alpha  occ. eigenvalues --   -0.59066  -0.53167  -0.51598  -0.45620  -0.43658
 Alpha virt. eigenvalues --    0.03171   0.04372   0.04918   0.05725   0.07044
 Alpha virt. eigenvalues --    0.07407   0.07453   0.08422   0.08453   0.10062
 Alpha virt. eigenvalues --    0.12823   0.13690   0.14289   0.15965   0.16330

 Mulliken charges:
               1
     1  C   -0.552395
     2  C    0.478178
     3  O   -0.560337
     4  C   -0.118962
     5  O   -0.588302
     6  H    0.196784
     7  H    0.214951
     8  H    0.196768
     9  H    0.164407
    10  H    0.164410
    11  H    0.404498
 Sum of Mulliken charges =  -0.00000

 Dipole moment (field-independent basis, Debye):
    X=              2.6163    Y=             -2.4689    Z=             -0.0001  Tot=              3.5973
 Quadrupole moment (field-independent basis, Debye-Ang):
   XX=            -33.3469   YY=            -31.8683   ZZ=            -29.5154
   XY=             -2.9095   XZ=              0.0005   YZ=              0.0001

 Normal termination of Gaussian 09 at Fri Aug 26 13:30:11 2022.
