 Gaussian 09, Revision E.01,
 Gaussian 09:  ES64L-G09RevE.01 30-Nov-2015

 -----
 #P G4
 -----

 --------
 Frag_764
 --------
 Symbolic Z-matrix:
 Charge =  0 Multiplicity = 1

 SCF Done:  E(RB3LYP) =  -170.842326961     A.U. after   14 cycles
 SCF Done:  E(RB3LYP) =  -170.842920224     A.U. after   11 cycles
 SCF Done:  E(RB3LYP) =  -170.842965637     A.U. after   11 cycles
 SCF Done:  E(RB3LYP) =  -170.842969955     A.U. after    8 cycles
 SCF Done:  E(RB3LYP) =  -170.842971299     A.U. after    8 cycles
 Optimization completed.
    -- Stationary point found.
 Normal termination of Gaussian 09 at Fri Aug 26 14:05:25 2022.

 ----------------------------------------------------------
 #P Geom=AllCheck Guess=TCheck SCRF=Check B3LYP/GTBas3 Freq
 ----------------------------------------------------------

 Structure from the checkpoint file:  "G4.Frag_764.chk"
 --------
 Frag_764
 --------
 Charge =  0 Multiplicity = 1

 SCF Done:  E(RB3LYP) =  -170.842971299     A.U. after    1 cycles

  Exact polarizability:  56.790   1.943  30.741  -0.000  -0.000  18.200
 Approx polarizability:  99.708   3.735  46.344  -0.000  -0.000  26.866

                      1                      2                      3
                      A                      A                      A
 Frequencies --    239.6171               361.8435               580.6354
 Red. masses --      4.0072                 2.5840                 4.0380
 Frc consts  --      0.1356                 0.1993                 0.8021
 IR Inten    --      3.2586                 0.7882                 0.1087

                      4                      5                      6
                      A                      A                      A
 Frequencies --    721.8261               883.0423               989.4440
 Red. masses --      2.2619                 2.7883                 1.3625
 Frc consts  --      0.6944                 1.2810                 0.7859
 IR Inten    --      9.4111                 1.4101                25.9147

                      7                      8                      9
                      A                      A                      A
 Frequencies --   1014.2873              1107.8591              1320.1515
 Red. masses --      1.0785                 1.6700                 1.2786
 Frc consts  --      0.6537                 1.2076                 1.3129
 IR Inten    --     17.4486                 2.8187                 0.3228

                     10                     11                     12
                      A                      A                      A
 Frequencies --   1446.6604              1680.6671              2343.6305
 Red. masses --      1.2004                 4.4311                12.6261
 Frc consts  --      1.4802                 7.3743                40.8598
 IR Inten    --      6.2517                 0.5700                 6.8508

                     13                     14                     15
                      A                      A                      A
 Frequencies --   3166.5362              3180.7338              3259.7675
 Red. masses --      1.0586                 1.0912                 1.1169
 Frc consts  --      6.2540                 6.5045                 6.9927
 IR Inten    --      0.3203                 1.1447                 1.5728

 - Thermochemistry -
 -------------------
 Temperature   298.150 Kelvin.  Pressure   1.00000 Atm.
 Atom     1 has atomic number  6 and mass  12.00000

 Molecular mass:    53.02655 amu.
 Principal axes and moments of inertia in atomic units:
                           1         2         3
     Eigenvalues --    35.22462 364.30513 399.52975
           X            0.99996   0.00943   0.00000
           Y           -0.00943   0.99996   0.00000
           Z           -0.00000  -0.00000   1.00000
 This molecule is an asymmetric top.
 Rotational symmetry number  1.
 Rotational temperatures (Kelvin)      2.45890     0.23775     0.21679
 Rotational constants (GHZ):          51.23522     4.95393     4.51716
 Zero-point vibrational energy     133363.9 (Joules/Mol)
                                   31.87474 (Kcal/Mol)
 Warning -- explicit consideration of   3 degrees of freedom as
           vibrations may cause significant error
 Vibrational temperatures:    344.76   520.61   835.40  1038.55  1270.50
          (Kelvin)           1423.59  1459.33  1593.96  1899.40  2081.42
                             2418.10  3371.96  4555.93  4576.36  4690.07

 Zero-point correction=                           0.050796 (Hartree/Particle)
 Thermal correction to Energy=                    0.054927
 Thermal correction to Enthalpy=                  0.055871
 Thermal correction to Gibbs Free Energy=         0.024936
 Sum of electronic and zero-point Energies=           -170.792176
 Sum of electronic and thermal Energies=              -170.788045
 Sum of electronic and thermal Enthalpies=            -170.787100
 Sum of electronic and thermal Free Energies=         -170.818035

                     E (Thermal)             CV                S
                      KCal/Mol        Cal/Mol-Kelvin    Cal/Mol-Kelvin
 Total                   34.467             12.973             65.108
 Electronic               0.000              0.000              0.000
 Translational            0.889              2.981             37.827
 Rotational               0.889              2.981             23.154
 Vibrational             32.690              7.011              4.127
 Vibration     1          0.657              1.780              1.806
 Vibration     2          0.736              1.551              1.114
 Vibration     3          0.937              1.073              0.484

 Optimization completed.
    -- Stationary point found.
 Normal termination of Gaussian 09 at Fri Aug 26 14:05:37 2022.

 -----------------------------------------------------------------
 #P Geom=AllCheck Guess=TCheck SCRF=Check CCSD(T,E4T,FrzG4)/GTBas1
 -----------------------------------------------------------------

 Structure from the checkpoint file:  "G4.Frag_764.chk"
 --------
 Frag_764
 --------
 Charge =  0 Multiplicity = 1

 SCF Done:  E(RHF) =  -169.766087312     A.U. after   13 cycles
 E2 =    -0.5306469872D+00 EUMP2 =    -0.17029673429909D+03
 CCSD(T)
 CCSD(T)= -0.17034414505D+03
 66\CCSD(T)=-170.3441451\RMSD=8.268e-09\PG=C01 [X(C3H3N1)]\\@
 Normal termination of Gaussian 09 at Fri Aug 26 14:05:52 2022.

 ---------------------------------------------------------
 #P Geom=AllCheck Guess=TCheck SCRF=Check MP4=FrzG4/GTBas2
 ---------------------------------------------------------

 Structure from the checkpoint file:  "G4.Frag_764.chk"
 --------
 Frag_764
 --------
 Charge =  0 Multiplicity = 1

 SCF Done:  E(RHF) =  -169.771652380     A.U. after   13 cycles
 E2 =    -0.5353070031D+00 EUMP2 =    -0.17030695938317D+03
 Normal termination of Gaussian 09 at Fri Aug 26 14:05:57 2022.

 ---------------------------------------------------------
 #P Geom=AllCheck Guess=TCheck SCRF=Check MP4=FrzG4/GTBas3
 ---------------------------------------------------------

 Structure from the checkpoint file:  "G4.Frag_764.chk"
 --------
 Frag_764
 --------
 Charge =  0 Multiplicity = 1

 SCF Done:  E(RHF) =  -169.783227074     A.U. after   12 cycles
 E2 =    -0.6265404777D+00 EUMP2 =    -0.17040976755143D+03
 Normal termination of Gaussian 09 at Fri Aug 26 14:06:15 2022.

 -----------------------------------------------------------
 #P Geom=AllCheck Guess=TCheck SCRF=Check MP2=Full/GTLargeXP
 -----------------------------------------------------------

 Structure from the checkpoint file:  "G4.Frag_764.chk"
 --------
 Frag_764
 --------
 Charge =  0 Multiplicity = 1

 SCF Done:  E(RHF) =  -169.823408062     A.U. after   13 cycles
 E2 =    -0.8332726305D+00 EUMP2 =    -0.17065668069229D+03
 Normal termination of Gaussian 09 at Fri Aug 26 14:06:30 2022.
 SCF Done:  E(RHF) =  -169.836368084     A.U. after   10 cycles
 Normal termination of Gaussian 09 at Fri Aug 26 14:06:48 2022.

                         Standard orientation:
 ---------------------------------------------------------------------
 Center     Atomic      Atomic             Coordinates (Angstroms)
 Number     Number       Type             X           Y           Z
 ---------------------------------------------------------------------
      1          6           0       -1.606532   -0.354536    0.000000
      2          6           0       -0.583315    0.501715   -0.000000
      3          6           0        0.781563    0.087898    0.000000
      4          7           0        1.897115   -0.223049   -0.000000
      5          1           0       -1.453007   -1.427417   -0.000001
      6          1           0       -2.629552    0.003094    0.000000
      7          1           0       -0.747543    1.575213    0.000000
 ---------------------------------------------------------------------

 SCF Done:  E(RHF) =  -169.838745904     A.U. after    7 cycles

 The electronic state is 1-A.
 Alpha  occ. eigenvalues --  -15.57657 -11.29267 -11.28349 -11.28065  -1.22454
 Alpha  occ. eigenvalues --   -1.10130  -0.88884  -0.72917  -0.66365  -0.58725
 Alpha  occ. eigenvalues --   -0.55568  -0.52110  -0.47118  -0.39899
 Alpha virt. eigenvalues --    0.03087   0.04053   0.05110   0.05136   0.06838
 Alpha virt. eigenvalues --    0.07186   0.07688   0.08281   0.09587   0.09917
 Alpha virt. eigenvalues --    0.10128   0.14031   0.15259   0.15870   0.16250

 Mulliken charges:
               1
     1  C   -0.310258
     2  C   -0.249054
     3  C    0.349572
     4  N   -0.441932
     5  H    0.207074
     6  H    0.215316
     7  H    0.229282
 Sum of Mulliken charges =  -0.00000

 Dipole moment (field-independent basis, Debye):
    X=             -4.3502    Y=              0.7086    Z=              0.0000  Tot=              4.4075
 Quadrupole moment (field-independent basis, Debye-Ang):
   XX=            -27.5051   YY=            -21.3299   ZZ=            -25.3890
   XY=              1.4617   XZ=              0.0000   YZ=              0.0000

 Normal termination of Gaussian 09 at Fri Aug 26 14:08:19 2022.
