 Gaussian 09, Revision E.01,
 Gaussian 09:  ES64L-G09RevE.01 30-Nov-2015

 -----
 #P G4
 -----

 --------
 Frag_659
 --------
 Symbolic Z-matrix:
 Charge =  0 Multiplicity = 1

 SCF Done:  E(RB3LYP) =  -380.299598098     A.U. after   12 cycles
 SCF Done:  E(RB3LYP) =  -380.309098138     A.U. after   11 cycles
 SCF Done:  E(RB3LYP) =  -380.310914419     A.U. after   11 cycles
 SCF Done:  E(RB3LYP) =  -380.313382174     A.U. after   11 cycles
 SCF Done:  E(RB3LYP) =  -380.315215969     A.U. after   12 cycles
 SCF Done:  E(RB3LYP) =  -380.317169709     A.U. after   11 cycles
 SCF Done:  E(RB3LYP) =  -380.321130119     A.U. after   12 cycles
 SCF Done:  E(RB3LYP) =  -380.322749805     A.U. after   10 cycles
 SCF Done:  E(RB3LYP) =  -380.323536137     A.U. after   11 cycles
 SCF Done:  E(RB3LYP) =  -380.323712520     A.U. after   10 cycles
 SCF Done:  E(RB3LYP) =  -380.324092612     A.U. after    8 cycles
 SCF Done:  E(RB3LYP) =  -380.324093193     A.U. after    7 cycles
 SCF Done:  E(RB3LYP) =  -380.324093365     A.U. after    6 cycles
 Optimization completed.
    -- Stationary point found.
 Normal termination of Gaussian 09 at Mon Aug 22 00:45:38 2022.

 ----------------------------------------------------------
 #P Geom=AllCheck Guess=TCheck SCRF=Check B3LYP/GTBas3 Freq
 ----------------------------------------------------------

 Structure from the checkpoint file:  "G4.Frag_659.chk"
 --------
 Frag_659
 --------
 Charge =  0 Multiplicity = 1

 SCF Done:  E(RB3LYP) =  -380.324093365     A.U. after    1 cycles

  Exact polarizability:  59.913   1.978  56.149  -0.545  -0.114  51.720
 Approx polarizability:  78.500   2.535  78.664  -0.115  -0.141  78.509

                      1                      2                      3
                      A                      A                      A
 Frequencies --    101.4844               232.6747               243.7353
 Red. masses --      3.2260                 1.0788                 1.5042
 Frc consts  --      0.0196                 0.0344                 0.0526
 IR Inten    --      4.1603                14.1817                 6.3942

                      4                      5                      6
                      A                      A                      A
 Frequencies --    258.7908               267.2966               322.4775
 Red. masses --      1.9502                 2.1604                 1.3786
 Frc consts  --      0.0770                 0.0909                 0.0845
 IR Inten    --      6.9520                 4.9163                 7.9423

                      7                      8                      9
                      A                      A                      A
 Frequencies --    357.7363               376.2985               444.3448
 Red. masses --      2.6127                 1.6966                 2.7481
 Frc consts  --      0.1970                 0.1415                 0.3197
 IR Inten    --      1.2913                62.0638                24.9617

                     10                     11                     12
                      A                      A                      A
 Frequencies --    461.4085               517.5247               556.7127
 Red. masses --      1.7452                 3.2469                 3.1172
 Frc consts  --      0.2189                 0.5124                 0.5692
 IR Inten    --     66.2552                 0.2659                24.3123

                     13                     14                     15
                      A                      A                      A
 Frequencies --    590.6655               642.8727               753.1965
 Red. masses --      1.7025                 1.7295                 3.4532
 Frc consts  --      0.3500                 0.4211                 1.1542
 IR Inten    --     30.4295                86.9271                 5.1524

                     16                     17                     18
                      A                      A                      A
 Frequencies --    883.8879               915.9142               932.2224
 Red. masses --      2.1617                 1.7916                 1.3327
 Frc consts  --      0.9950                 0.8855                 0.6824
 IR Inten    --     59.0305               147.3853                35.0687

                     19                     20                     21
                      A                      A                      A
 Frequencies --    969.5577              1014.9793              1071.4257
 Red. masses --      2.0759                 1.4464                 3.0383
 Frc consts  --      1.1498                 0.8779                 2.0549
 IR Inten    --     61.4499                 5.3384               182.9341

                     22                     23                     24
                      A                      A                      A
 Frequencies --   1103.4204              1112.5596              1153.9824
 Red. masses --      1.4959                 2.3274                 1.9171
 Frc consts  --      1.0731                 1.6973                 1.5041
 IR Inten    --     10.1098                10.1297                34.5025

                     25                     26                     27
                      A                      A                      A
 Frequencies --   1234.1831              1309.8852              1331.5320
 Red. masses --      1.8553                 1.4479                 1.6894
 Frc consts  --      1.6651                 1.4637                 1.7647
 IR Inten    --     10.2865               129.9840                75.7202

                     28                     29                     30
                      A                      A                      A
 Frequencies --   1357.5698              1398.3128              1407.0108
 Red. masses --      1.5505                 1.2737                 1.2978
 Frc consts  --      1.6836                 1.4673                 1.5137
 IR Inten    --     21.3669                 0.1591                 8.5020

                     31                     32                     33
                      A                      A                      A
 Frequencies --   1460.1451              1490.2381              1507.7450
 Red. masses --      1.6798                 1.0479                 1.0874
 Frc consts  --      2.1101                 1.3711                 1.4564
 IR Inten    --    152.8720                 4.4474                12.2924

                     34                     35                     36
                      A                      A                      A
 Frequencies --   1639.2538              1650.8499              3028.4189
 Red. masses --      1.0939                 1.1083                 1.0833
 Frc consts  --      1.7319                 1.7797                 5.8536
 IR Inten    --     39.1364                36.3619                21.1865

                     37                     38                     39
                      A                      A                      A
 Frequencies --   3032.7982              3098.4972              3120.0747
 Red. masses --      1.0364                 1.1013                 1.1005
 Frc consts  --      5.6164                 6.2293                 6.3119
 IR Inten    --     22.5029                31.1688                18.9362

                     40                     41                     42
                      A                      A                      A
 Frequencies --   3484.2049              3492.1543              3561.5715
 Red. masses --      1.0495                 1.0494                 1.0910
 Frc consts  --      7.5065                 7.5399                 8.1536
 IR Inten    --      1.7774                 1.2109                 2.1767

                     43                     44                     45
                      A                      A                      A
 Frequencies --   3579.8908              3655.0230              3813.2065
 Red. masses --      1.0922                 1.0641                 1.0650
 Frc consts  --      8.2469                 8.3756                 9.1239
 IR Inten    --      3.3343               100.9544                23.7325

 - Thermochemistry -
 -------------------
 Temperature   298.150 Kelvin.  Pressure   1.00000 Atm.
 Atom     1 has atomic number  6 and mass  12.00000

 Molecular mass:   106.07423 amu.
 Principal axes and moments of inertia in atomic units:
                           1         2         3
     Eigenvalues --   543.44495 747.50580 923.41744
           X            0.99986   0.01130  -0.01266
           Y           -0.01139   0.99991  -0.00679
           Z            0.01258   0.00693   0.99990
 This molecule is an asymmetric top.
 Rotational symmetry number  1.
 Warning -- assumption of classical behavior for rotation
           may cause significant error
 Rotational temperatures (Kelvin)      0.15938     0.11587     0.09380
 Rotational constants (GHZ):           3.32093     2.41435     1.95442
 Zero-point vibrational energy     388413.9 (Joules/Mol)
                                   92.83315 (Kcal/Mol)
 Warning -- explicit consideration of  13 degrees of freedom as
           vibrations may cause significant error
 Vibrational temperatures:    146.01   334.77   350.68   372.34   384.58
          (Kelvin)            463.97   514.70   541.41   639.31   663.86
                              744.60   800.98   849.83   924.95  1083.68
                             1271.72  1317.79  1341.26  1394.98  1460.33
                             1541.54  1587.57  1600.72  1660.32  1775.71
                             1884.63  1915.78  1953.24  2011.86  2024.37
                             2100.82  2144.12  2169.31  2358.52  2375.20
                             4357.21  4363.51  4458.04  4489.09  5012.99
                             5024.42  5124.30  5150.66  5258.76  5486.35

 Zero-point correction=                           0.147939 (Hartree/Particle)
 Thermal correction to Energy=                    0.156250
 Thermal correction to Enthalpy=                  0.157194
 Thermal correction to Gibbs Free Energy=         0.116339
 Sum of electronic and zero-point Energies=           -380.176154
 Sum of electronic and thermal Energies=              -380.167843
 Sum of electronic and thermal Enthalpies=            -380.166899
 Sum of electronic and thermal Free Energies=         -380.207755

                     E (Thermal)             CV                S
                      KCal/Mol        Cal/Mol-Kelvin    Cal/Mol-Kelvin
 Total                   98.048             31.874             85.988
 Electronic               0.000              0.000              0.000
 Translational            0.889              2.981             39.894
 Rotational               0.889              2.981             27.419
 Vibrational             96.271             25.913             18.675
 Vibration     1          0.604              1.948              3.426
 Vibration     2          0.653              1.791              1.858
 Vibration     3          0.659              1.773              1.775
 Vibration     4          0.668              1.748              1.670
 Vibration     5          0.672              1.733              1.614
 Vibration     6          0.707              1.630              1.298
 Vibration     7          0.733              1.559              1.132
 Vibration     8          0.747              1.521              1.054
 Vibration     9          0.804              1.373              0.813
 Vibration    10          0.819              1.336              0.762
 Vibration    11          0.873              1.211              0.616
 Vibration    12          0.912              1.125              0.530
 Vibration    13          0.948              1.052              0.466

 Optimization completed.
    -- Stationary point found.
 Normal termination of Gaussian 09 at Mon Aug 22 00:50:40 2022.

 -----------------------------------------------------------------
 #P Geom=AllCheck Guess=TCheck SCRF=Check CCSD(T,E4T,FrzG4)/GTBas1
 -----------------------------------------------------------------

 Structure from the checkpoint file:  "G4.Frag_659.chk"
 --------
 Frag_659
 --------
 Charge =  0 Multiplicity = 1

 SCF Done:  E(RHF) =  -378.036760347     A.U. after   12 cycles
 E2 =    -0.1084815571D+01 EUMP2 =    -0.37912157591805D+03
 CCSD(T)
 CCSD(T)= -0.37920720066D+03
 379.1767156\CCSD=-379.1770521\CCSD(T)=-379.2072007\RMSD=2.936e-09\PG=C
 Normal termination of Gaussian 09 at Mon Aug 22 01:05:57 2022.

 ---------------------------------------------------------
 #P Geom=AllCheck Guess=TCheck SCRF=Check MP4=FrzG4/GTBas2
 ---------------------------------------------------------

 Structure from the checkpoint file:  "G4.Frag_659.chk"
 --------
 Frag_659
 --------
 Charge =  0 Multiplicity = 1

 SCF Done:  E(RHF) =  -378.050370743     A.U. after   11 cycles
 E2 =    -0.1105098854D+01 EUMP2 =    -0.37915546959680D+03
 Normal termination of Gaussian 09 at Mon Aug 22 01:24:00 2022.

 ---------------------------------------------------------
 #P Geom=AllCheck Guess=TCheck SCRF=Check MP4=FrzG4/GTBas3
 ---------------------------------------------------------

 Structure from the checkpoint file:  "G4.Frag_659.chk"
 --------
 Frag_659
 --------
 Charge =  0 Multiplicity = 1

 SCF Done:  E(RHF) =  -378.093005690     A.U. after   10 cycles
 E2 =    -0.1343342567D+01 EUMP2 =    -0.37943634825713D+03
 Normal termination of Gaussian 09 at Mon Aug 22 06:37:58 2022.

 -----------------------------------------------------------
 #P Geom=AllCheck Guess=TCheck SCRF=Check MP2=Full/GTLargeXP
 -----------------------------------------------------------

 Structure from the checkpoint file:  "G4.Frag_659.chk"
 --------
 Frag_659
 --------
 Charge =  0 Multiplicity = 1

 SCF Done:  E(RHF) =  -378.196388824     A.U. after   12 cycles
 E2 =    -0.1748748369D+01 EUMP2 =    -0.37994513719217D+03
 Normal termination of Gaussian 09 at Mon Aug 22 06:52:30 2022.
 SCF Done:  E(RHF) =  -378.226356551     A.U. after    8 cycles
 Normal termination of Gaussian 09 at Mon Aug 22 07:02:07 2022.

                         Standard orientation:
 ---------------------------------------------------------------------
 Center     Atomic      Atomic             Coordinates (Angstroms)
 Number     Number       Type             X           Y           Z
 ---------------------------------------------------------------------
      1          6           0       -1.575356    1.261807   -0.010531
      2          6           0       -0.825791    0.010603   -0.476041
      3          7           0       -1.409643   -1.258830   -0.016879
      4          6           0        0.657804   -0.024192   -0.014178
      5          7           0        1.391270    1.115867   -0.513345
      6          8           0        1.235483   -1.222278   -0.429233
      7          8           0        0.717759    0.006376    1.407536
      8          1           0       -1.084164    2.173106   -0.362041
      9          1           0       -1.619416    1.296018    1.083670
     10          1           0       -2.603804    1.255163   -0.386128
     11          1           0       -0.816832   -0.021738   -1.573165
     12          1           0       -1.486936   -1.232703    0.996836
     13          1           0       -2.344402   -1.381769   -0.390685
     14          1           0        1.352580    1.121907   -1.529162
     15          1           0        2.368817    0.977214   -0.266580
     16          1           0        0.528066   -1.883892   -0.342681
     17          1           0        0.668825    0.935344    1.659592
 ---------------------------------------------------------------------

 SCF Done:  E(RHF) =  -378.233056964     A.U. after    8 cycles

 The electronic state is 1-A.
 Alpha  occ. eigenvalues --  -20.55596 -20.54498 -15.55281 -15.55032 -11.36170
 Alpha  occ. eigenvalues --  -11.26610 -11.22190  -1.41586  -1.32875  -1.19517
 Alpha  occ. eigenvalues --   -1.17611  -1.00436  -0.89371  -0.80420  -0.72315
 Alpha  occ. eigenvalues --   -0.70690  -0.67763  -0.65772  -0.61856  -0.59733
 Alpha  occ. eigenvalues --   -0.57946  -0.55273  -0.54230  -0.53020  -0.50639
 Alpha  occ. eigenvalues --   -0.47898  -0.44660  -0.43432  -0.40821
 Alpha virt. eigenvalues --    0.03187   0.04282   0.04614   0.05095   0.06777
 Alpha virt. eigenvalues --    0.06952   0.07281   0.07505   0.08174   0.09923
 Alpha virt. eigenvalues --    0.11151   0.11855   0.12077   0.12457   0.12865

 Mulliken charges:
               1
     1  C   -0.568937
     2  C    0.049465
     3  N   -0.759027
     4  C    0.613604
     5  N   -0.764665
     6  O   -0.620335
     7  O   -0.638726
     8  H    0.195335
     9  H    0.163322
    10  H    0.163877
    11  H    0.159513
    12  H    0.314778
    13  H    0.298357
    14  H    0.288625
    15  H    0.307787
    16  H    0.408444
    17  H    0.388583
 Sum of Mulliken charges =  -0.00000

 Dipole moment (field-independent basis, Debye):
    X=             -2.3456    Y=              1.5413    Z=             -0.8560  Tot=              2.9343
 Quadrupole moment (field-independent basis, Debye-Ang):
   XX=            -40.6230   YY=            -46.1435   ZZ=            -42.1745
   XY=              4.3389   XZ=             -1.0246   YZ=              0.4455

 Normal termination of Gaussian 09 at Mon Aug 22 11:45:16 2022.
