 Gaussian 09, Revision E.01,
 Gaussian 09:  ES64L-G09RevE.01 30-Nov-2015

 -----
 #P G4
 -----

 --------
 Frag_457
 --------
 Symbolic Z-matrix:
 Charge =  0 Multiplicity = 1

 SCF Done:  E(RB3LYP) =  -269.588768737     A.U. after   12 cycles
 SCF Done:  E(RB3LYP) =  -269.593074141     A.U. after   10 cycles
 SCF Done:  E(RB3LYP) =  -269.593368676     A.U. after   10 cycles
 SCF Done:  E(RB3LYP) =  -269.593507953     A.U. after    9 cycles
 SCF Done:  E(RB3LYP) =  -269.593995254     A.U. after   12 cycles
 SCF Done:  E(RB3LYP) =  -269.594481064     A.U. after   10 cycles
 SCF Done:  E(RB3LYP) =  -269.595095103     A.U. after   10 cycles
 SCF Done:  E(RB3LYP) =  -269.596756258     A.U. after   12 cycles
 SCF Done:  E(RB3LYP) =  -269.600653434     A.U. after   12 cycles
 SCF Done:  E(RB3LYP) =  -269.572626668     A.U. after   12 cycles
 SCF Done:  E(RB3LYP) =  -269.604563660     A.U. after    8 cycles
 SCF Done:  E(RB3LYP) =  -269.604564325     A.U. after    7 cycles
 SCF Done:  E(RB3LYP) =  -269.604564442     A.U. after    6 cycles
 Optimization completed.
    -- Stationary point found.
 Normal termination of Gaussian 09 at Sat Aug 20 00:03:55 2022.

 ----------------------------------------------------------
 #P Geom=AllCheck Guess=TCheck SCRF=Check B3LYP/GTBas3 Freq
 ----------------------------------------------------------

 Structure from the checkpoint file:  "G4.Frag_457.chk"
 --------
 Frag_457
 --------
 Charge =  0 Multiplicity = 1

 SCF Done:  E(RB3LYP) =  -269.604564442     A.U. after    1 cycles

  Exact polarizability:  46.306  -0.536  40.761   0.676   1.168  39.193
 Approx polarizability:  56.996   0.288  56.694   0.244   0.355  57.383

                      1                      2                      3
                      A                      A                      A
 Frequencies --    118.7207               219.9372               244.2514
 Red. masses --      2.2020                 1.1379                 2.6733
 Frc consts  --      0.0183                 0.0324                 0.0940
 IR Inten    --      0.1065                 0.0889                 3.8392

                      4                      5                      6
                      A                      A                      A
 Frequencies --    331.3291               365.2381               455.3821
 Red. masses --      1.1750                 1.2875                 2.9254
 Frc consts  --      0.0760                 0.1012                 0.3574
 IR Inten    --     96.7357                51.3430                 6.9595

                      7                      8                      9
                      A                      A                      A
 Frequencies --    478.1300               584.2752               787.8454
 Red. masses --      2.2116                 3.3281                 1.3722
 Frc consts  --      0.2979                 0.6694                 0.5018
 IR Inten    --     49.3973                39.9561                 0.8873

                     10                     11                     12
                      A                      A                      A
 Frequencies --    870.2888               984.2010              1044.4801
 Red. masses --      1.7371                 2.0003                 4.3761
 Frc consts  --      0.7752                 1.1416                 2.8128
 IR Inten    --     12.1703                60.2783                84.3337

                     13                     14                     15
                      A                      A                      A
 Frequencies --   1070.4608              1082.0758              1143.0421
 Red. masses --      2.5434                 1.4099                 2.3380
 Frc consts  --      1.7171                 0.9727                 1.7998
 IR Inten    --     92.6613                33.3946                48.2740

                     16                     17                     18
                      A                      A                      A
 Frequencies --   1260.0469              1277.6923              1323.0115
 Red. masses --      1.2974                 1.2737                 1.1945
 Frc consts  --      1.2136                 1.2251                 1.2319
 IR Inten    --     20.5020                 9.5589                23.7615

                     19                     20                     21
                      A                      A                      A
 Frequencies --   1365.9383              1408.2236              1424.9126
 Red. masses --      1.4089                 1.2738                 1.2167
 Frc consts  --      1.5488                 1.4883                 1.4555
 IR Inten    --      6.2247                 1.1069                23.5868

                     22                     23                     24
                      A                      A                      A
 Frequencies --   1460.4642              1477.0704              1497.4323
 Red. masses --      1.5034                 1.0784                 1.0413
 Frc consts  --      1.8894                 1.3863                 1.3756
 IR Inten    --     63.8946                 1.0223                 3.5969

                     25                     26                     27
                      A                      A                      A
 Frequencies --   1509.7879              2997.3698              3022.8966
 Red. masses --      1.0715                 1.0831                 1.0657
 Frc consts  --      1.4391                 5.7334                 5.7378
 IR Inten    --      7.6375                34.7393                34.1126

                     28                     29                     30
                      A                      A                      A
 Frequencies --   3038.7372              3079.7078              3102.4848
 Red. masses --      1.0379                 1.0961                 1.1005
 Frc consts  --      5.6464                 6.1251                 6.2410
 IR Inten    --     31.2952                15.6996                38.2594

                     31                     32                     33
                      A                      A                      A
 Frequencies --   3129.6797              3782.9101              3810.8011
 Red. masses --      1.1009                 1.0652                 1.0656
 Frc consts  --      6.3532                 8.9808                 9.1179
 IR Inten    --     24.4171                15.0882                24.0387

 - Thermochemistry -
 -------------------
 Temperature   298.150 Kelvin.  Pressure   1.00000 Atm.
 Atom     1 has atomic number  6 and mass  12.00000

 Molecular mass:    76.05243 amu.
 Principal axes and moments of inertia in atomic units:
                           1         2         3
     Eigenvalues --   209.62737 510.57398 653.43318
           X            0.99979  -0.01922   0.00770
           Y            0.01886   0.99884   0.04436
           Z           -0.00855  -0.04421   0.99899
 This molecule is an asymmetric top.
 Rotational symmetry number  1.
 Rotational temperatures (Kelvin)      0.41318     0.16964     0.13255
 Rotational constants (GHZ):           8.60928     3.53473     2.76194
 Zero-point vibrational energy     297564.1 (Joules/Mol)
                                   71.11952 (Kcal/Mol)
 Warning -- explicit consideration of   8 degrees of freedom as
           vibrations may cause significant error
 Vibrational temperatures:    170.81   316.44   351.42   476.71   525.50
          (Kelvin)            655.19   687.92   840.64  1133.53  1252.15
                             1416.04  1502.77  1540.15  1556.86  1644.58
                             1812.92  1838.31  1903.52  1965.28  2026.12
                             2050.13  2101.28  2125.17  2154.47  2172.25
                             4312.54  4349.27  4372.06  4431.01  4463.78
                             4502.91  5442.76  5482.89

 Zero-point correction=                           0.113336 (Hartree/Particle)
 Thermal correction to Energy=                    0.119656
 Thermal correction to Enthalpy=                  0.120600
 Thermal correction to Gibbs Free Energy=         0.084127
 Sum of electronic and zero-point Energies=           -269.491228
 Sum of electronic and thermal Energies=              -269.484908
 Sum of electronic and thermal Enthalpies=            -269.483964
 Sum of electronic and thermal Free Energies=         -269.520437

                     E (Thermal)             CV                S
                      KCal/Mol        Cal/Mol-Kelvin    Cal/Mol-Kelvin
 Total                   75.085             22.234             76.764
 Electronic               0.000              0.000              0.000
 Translational            0.889              2.981             38.902
 Rotational               0.889              2.981             25.750
 Vibrational             73.308             16.272             12.111
 Vibration     1          0.609              1.934              3.121
 Vibration     2          0.647              1.811              1.960
 Vibration     3          0.660              1.772              1.772
 Vibration     4          0.714              1.613              1.254
 Vibration     5          0.738              1.544              1.100
 Vibration     6          0.814              1.349              0.780
 Vibration     7          0.835              1.299              0.715
 Vibration     8          0.941              1.065              0.478

 Optimization completed.
    -- Stationary point found.
 Normal termination of Gaussian 09 at Sat Aug 20 00:05:36 2022.

 -----------------------------------------------------------------
 #P Geom=AllCheck Guess=TCheck SCRF=Check CCSD(T,E4T,FrzG4)/GTBas1
 -----------------------------------------------------------------

 Structure from the checkpoint file:  "G4.Frag_457.chk"
 --------
 Frag_457
 --------
 Charge =  0 Multiplicity = 1

 SCF Done:  E(RHF) =  -267.976919238     A.U. after   11 cycles
 E2 =    -0.7518091186D+00 EUMP2 =    -0.26872872835679D+03
 CCSD(T)
 CCSD(T)= -0.26879371547D+03
 466\MP4SDTQ=-268.7932464\MP4SDQ=-268.773427\CCSD=-268.7739037\CCSD(T)=
 Normal termination of Gaussian 09 at Sat Aug 20 00:08:09 2022.

 ---------------------------------------------------------
 #P Geom=AllCheck Guess=TCheck SCRF=Check MP4=FrzG4/GTBas2
 ---------------------------------------------------------

 Structure from the checkpoint file:  "G4.Frag_457.chk"
 --------
 Frag_457
 --------
 Charge =  0 Multiplicity = 1

 SCF Done:  E(RHF) =  -267.985910793     A.U. after   11 cycles
 E2 =    -0.7648952149D+00 EUMP2 =    -0.26875080600802D+03
 Normal termination of Gaussian 09 at Sat Aug 20 00:11:42 2022.

 ---------------------------------------------------------
 #P Geom=AllCheck Guess=TCheck SCRF=Check MP4=FrzG4/GTBas3
 ---------------------------------------------------------

 Structure from the checkpoint file:  "G4.Frag_457.chk"
 --------
 Frag_457
 --------
 Charge =  0 Multiplicity = 1

 SCF Done:  E(RHF) =  -268.015216866     A.U. after   10 cycles
 E2 =    -0.9413936959D+00 EUMP2 =    -0.26895661056148D+03
 Normal termination of Gaussian 09 at Sat Aug 20 01:06:24 2022.

 -----------------------------------------------------------
 #P Geom=AllCheck Guess=TCheck SCRF=Check MP2=Full/GTLargeXP
 -----------------------------------------------------------

 Structure from the checkpoint file:  "G4.Frag_457.chk"
 --------
 Frag_457
 --------
 Charge =  0 Multiplicity = 1

 SCF Done:  E(RHF) =  -268.088693899     A.U. after   11 cycles
 E2 =    -0.1230480347D+01 EUMP2 =    -0.26931917424541D+03
 Normal termination of Gaussian 09 at Sat Aug 20 01:10:59 2022.
 SCF Done:  E(RHF) =  -268.111097730     A.U. after    8 cycles
 Normal termination of Gaussian 09 at Sat Aug 20 01:14:17 2022.

                         Standard orientation:
 ---------------------------------------------------------------------
 Center     Atomic      Atomic             Coordinates (Angstroms)
 Number     Number       Type             X           Y           Z
 ---------------------------------------------------------------------
      1          6           0        2.029554    0.052988    0.102328
      2          6           0        0.727656   -0.665909   -0.258232
      3          6           0       -0.513569   -0.000788    0.327793
      4          8           0       -1.691196   -0.737642    0.090067
      5          8           0       -0.596977    1.293717   -0.225534
      6          1           0        2.892687   -0.453713   -0.339166
      7          1           0        2.178684    0.077528    1.187673
      8          1           0        2.012841    1.084493   -0.257225
      9          1           0        0.604944   -0.696361   -1.349572
     10          1           0        0.743992   -1.702032    0.095308
     11          1           0       -0.442819    0.044776    1.425049
     12          1           0       -1.772838   -0.837074   -0.866551
     13          1           0       -1.373958    1.716038    0.156884
 ---------------------------------------------------------------------

 SCF Done:  E(RHF) =  -268.116019600     A.U. after    8 cycles

 The electronic state is 1-A.
 Alpha  occ. eigenvalues --  -20.56385 -20.56373 -11.33327 -11.22493 -11.21460
 Alpha  occ. eigenvalues --   -1.41200  -1.33384  -1.04849  -0.91058  -0.81929
 Alpha  occ. eigenvalues --   -0.74195  -0.66400  -0.62348  -0.61912  -0.58833
 Alpha  occ. eigenvalues --   -0.55620  -0.51069  -0.49619  -0.48809  -0.48620
 Alpha  occ. eigenvalues --   -0.44875
 Alpha virt. eigenvalues --    0.04165   0.04338   0.04530   0.05498   0.07156
 Alpha virt. eigenvalues --    0.07401   0.07777   0.08260   0.09368   0.10382
 Alpha virt. eigenvalues --    0.13207   0.14548   0.14777   0.15223   0.15819

 Mulliken charges:
               1
     1  C   -0.527366
     2  C   -0.235702
     3  C    0.218932
     4  O   -0.585116
     5  O   -0.593594
     6  H    0.162234
     7  H    0.152798
     8  H    0.193284
     9  H    0.146461
    10  H    0.183728
    11  H    0.141165
    12  H    0.364885
    13  H    0.378290
 Sum of Mulliken charges =  -0.00000

 Dipole moment (field-independent basis, Debye):
    X=              0.1992    Y=             -0.0241    Z=             -0.1460  Tot=              0.2482
 Quadrupole moment (field-independent basis, Debye-Ang):
   XX=            -32.3229   YY=            -32.4610   ZZ=            -30.0353
   XY=             -3.4720   XZ=              1.6745   YZ=              3.0077

 Normal termination of Gaussian 09 at Sat Aug 20 02:52:17 2022.
