 Gaussian 09, Revision E.01,
 Gaussian 09:  ES64L-G09RevE.01 30-Nov-2015

 -----
 #P G4
 -----

 --------
 Frag_519
 --------
 Symbolic Z-matrix:
 Charge =  0 Multiplicity = 1

 SCF Done:  E(RB3LYP) =  -249.721426441     A.U. after   12 cycles
 SCF Done:  E(RB3LYP) =  -249.725508336     A.U. after   10 cycles
 SCF Done:  E(RB3LYP) =  -249.725664806     A.U. after   10 cycles
 SCF Done:  E(RB3LYP) =  -249.725720889     A.U. after    9 cycles
 SCF Done:  E(RB3LYP) =  -249.725756897     A.U. after    9 cycles
 SCF Done:  E(RB3LYP) =  -249.725786972     A.U. after    9 cycles
 SCF Done:  E(RB3LYP) =  -249.725820412     A.U. after   10 cycles
 SCF Done:  E(RB3LYP) =  -249.725855059     A.U. after   10 cycles
 SCF Done:  E(RB3LYP) =  -249.725788862     A.U. after   10 cycles
 SCF Done:  E(RB3LYP) =  -249.727661304     A.U. after   13 cycles
 SCF Done:  E(RB3LYP) =  -249.731938927     A.U. after   10 cycles
 SCF Done:  E(RB3LYP) =  -249.731971865     A.U. after    9 cycles
 SCF Done:  E(RB3LYP) =  -249.731972219     A.U. after    7 cycles
 Optimization completed.
    -- Stationary point found.
 Normal termination of Gaussian 09 at Fri Aug 26 07:42:51 2022.

 ----------------------------------------------------------
 #P Geom=AllCheck Guess=TCheck SCRF=Check B3LYP/GTBas3 Freq
 ----------------------------------------------------------

 Structure from the checkpoint file:  "G4.Frag_519.chk"
 --------
 Frag_519
 --------
 Charge =  0 Multiplicity = 1

 SCF Done:  E(RB3LYP) =  -249.731972219     A.U. after    1 cycles

  Exact polarizability:  50.949   0.888  45.207   0.405  -0.283  41.752
 Approx polarizability:  62.248   1.120  63.421   0.271  -1.912  61.381

                      1                      2                      3
                      A                      A                      A
 Frequencies --    121.9550               220.3783               238.8196
 Red. masses --      2.1318                 1.1047                 2.1349
 Frc consts  --      0.0187                 0.0316                 0.0717
 IR Inten    --      1.2377                 2.8014                 8.4051

                      4                      5                      6
                      A                      A                      A
 Frequencies --    252.4358               373.9946               429.3565
 Red. masses --      1.2940                 1.3435                 2.3141
 Frc consts  --      0.0486                 0.1107                 0.2513
 IR Inten    --     22.2110                81.8297                15.3948

                      7                      8                      9
                      A                      A                      A
 Frequencies --    469.6236               564.1001               781.5326
 Red. masses --      2.0557                 2.7423                 1.3970
 Frc consts  --      0.2671                 0.5141                 0.5027
 IR Inten    --     10.5347                27.8861                 2.4364

                     10                     11                     12
                      A                      A                      A
 Frequencies --    844.3534               890.2192               977.8884
 Red. masses --      1.6231                 1.5545                 2.0819
 Frc consts  --      0.6818                 0.7258                 1.1730
 IR Inten    --     60.8898               114.4702                63.5434

                     13                     14                     15
                      A                      A                      A
 Frequencies --   1047.3215              1054.2470              1068.0887
 Red. masses --      1.8138                 2.6334                 1.4425
 Frc consts  --      1.1722                 1.7244                 0.9696
 IR Inten    --     11.3765                23.3310                27.0809

                     16                     17                     18
                      A                      A                      A
 Frequencies --   1166.1530              1241.0861              1281.3923
 Red. masses --      2.5566                 1.5681                 1.2449
 Frc consts  --      2.0484                 1.4230                 1.2044
 IR Inten    --     48.2127                 3.7537                36.5253

                     19                     20                     21
                      A                      A                      A
 Frequencies --   1320.0587              1350.7430              1405.0146
 Red. masses --      1.1469                 1.3833                 1.2649
 Frc consts  --      1.1775                 1.4870                 1.4712
 IR Inten    --     24.3593                 5.9150                 1.1573

                     22                     23                     24
                      A                      A                      A
 Frequencies --   1422.0367              1442.7333              1474.4178
 Red. masses --      1.2977                 1.4702                 1.0811
 Frc consts  --      1.5461                 1.8030                 1.3847
 IR Inten    --      7.8608                34.5579                 1.0717

                     25                     26                     27
                      A                      A                      A
 Frequencies --   1496.6398              1508.9307              1645.6210
 Red. masses --      1.0413                 1.0634                 1.1121
 Frc consts  --      1.3742                 1.4265                 1.7743
 IR Inten    --      3.7500                 5.5441                31.9935

                     28                     29                     30
                      A                      A                      A
 Frequencies --   2943.2643              3019.8990              3035.6843
 Red. masses --      1.0826                 1.0596                 1.0389
 Frc consts  --      5.5257                 5.6937                 5.6409
 IR Inten    --     61.7005                29.0515                27.2619

                     31                     32                     33
                      A                      A                      A
 Frequencies --   3060.6653              3098.2162              3128.8576
 Red. masses --      1.1005                 1.1003                 1.1003
 Frc consts  --      6.0742                 6.2228                 6.3468
 IR Inten    --     28.8596                40.6345                22.2794

                     34                     35                     36
                      A                      A                      A
 Frequencies --   3477.5374              3567.7667              3803.0451
 Red. masses --      1.0495                 1.0917                 1.0651
 Frc consts  --      7.4780                 8.1870                 9.0765
 IR Inten    --      0.0357                 0.5612                23.6904

 - Thermochemistry -
 -------------------
 Temperature   298.150 Kelvin.  Pressure   1.00000 Atm.
 Atom     1 has atomic number  6 and mass  12.00000

 Molecular mass:    75.06841 amu.
 Principal axes and moments of inertia in atomic units:
                           1         2         3
     Eigenvalues --   212.04310 519.93897 663.82245
           X            0.99995   0.00963   0.00333
           Y           -0.00970   0.99972   0.02141
           Z           -0.00312  -0.02144   0.99977
 This molecule is an asymmetric top.
 Rotational symmetry number  1.
 Rotational temperatures (Kelvin)      0.40847     0.16658     0.13048
 Rotational constants (GHZ):           8.51120     3.47106     2.71871
 Zero-point vibrational energy     330313.3 (Joules/Mol)
                                   78.94678 (Kcal/Mol)
 Warning -- explicit consideration of   8 degrees of freedom as
           vibrations may cause significant error
 Vibrational temperatures:    175.47   317.07   343.61   363.20   538.09
          (Kelvin)            617.75   675.68   811.61  1124.45  1214.83
                             1280.83  1406.96  1506.86  1516.82  1536.74
                             1677.83  1785.64  1843.64  1899.27  1943.42
                             2021.50  2045.99  2075.77  2121.36  2153.33
                             2171.01  2367.68  4234.70  4344.96  4367.67
                             4403.61  4457.64  4501.72  5003.39  5133.21
                             5471.73

 Zero-point correction=                           0.125810 (Hartree/Particle)
 Thermal correction to Energy=                    0.132335
 Thermal correction to Enthalpy=                  0.133279
 Thermal correction to Gibbs Free Energy=         0.096453
 Sum of electronic and zero-point Energies=           -249.606163
 Sum of electronic and thermal Energies=              -249.599637
 Sum of electronic and thermal Enthalpies=            -249.598693
 Sum of electronic and thermal Free Energies=         -249.635519

                     E (Thermal)             CV                S
                      KCal/Mol        Cal/Mol-Kelvin    Cal/Mol-Kelvin
 Total                   83.041             23.134             77.506
 Electronic               0.000              0.000              0.000
 Translational            0.889              2.981             38.863
 Rotational               0.889              2.981             25.796
 Vibrational             81.264             17.173             12.847
 Vibration     1          0.609              1.931              3.069
 Vibration     2          0.647              1.810              1.956
 Vibration     3          0.657              1.781              1.812
 Vibration     4          0.664              1.759              1.714
 Vibration     5          0.745              1.525              1.063
 Vibration     6          0.791              1.406              0.861
 Vibration     7          0.827              1.317              0.739
 Vibration     8          0.920              1.109              0.516

 Optimization completed.
    -- Stationary point found.
 Normal termination of Gaussian 09 at Fri Aug 26 07:43:15 2022.

 -----------------------------------------------------------------
 #P Geom=AllCheck Guess=TCheck SCRF=Check CCSD(T,E4T,FrzG4)/GTBas1
 -----------------------------------------------------------------

 Structure from the checkpoint file:  "G4.Frag_519.chk"
 --------
 Frag_519
 --------
 Charge =  0 Multiplicity = 1

 SCF Done:  E(RHF) =  -248.142357047     A.U. after   12 cycles
 E2 =    -0.7382320517D+00 EUMP2 =    -0.24888058909910D+03
 CCSD(T)
 CCSD(T)= -0.24895177181D+03
 DQ=-248.930606\CCSD=-248.9314905\CCSD(T)=-248.9517718\RMSD=3.118e-09\P
 Normal termination of Gaussian 09 at Fri Aug 26 07:44:18 2022.

 ---------------------------------------------------------
 #P Geom=AllCheck Guess=TCheck SCRF=Check MP4=FrzG4/GTBas2
 ---------------------------------------------------------

 Structure from the checkpoint file:  "G4.Frag_519.chk"
 --------
 Frag_519
 --------
 Charge =  0 Multiplicity = 1

 SCF Done:  E(RHF) =  -248.151143653     A.U. after   11 cycles
 E2 =    -0.7504866889D+00 EUMP2 =    -0.24890163034154D+03
 Normal termination of Gaussian 09 at Fri Aug 26 07:44:37 2022.

 ---------------------------------------------------------
 #P Geom=AllCheck Guess=TCheck SCRF=Check MP4=FrzG4/GTBas3
 ---------------------------------------------------------

 Structure from the checkpoint file:  "G4.Frag_519.chk"
 --------
 Frag_519
 --------
 Charge =  0 Multiplicity = 1

 SCF Done:  E(RHF) =  -248.179731425     A.U. after   11 cycles
 E2 =    -0.9210184157D+00 EUMP2 =    -0.24910074984068D+03
 Normal termination of Gaussian 09 at Fri Aug 26 07:46:29 2022.

 -----------------------------------------------------------
 #P Geom=AllCheck Guess=TCheck SCRF=Check MP2=Full/GTLargeXP
 -----------------------------------------------------------

 Structure from the checkpoint file:  "G4.Frag_519.chk"
 --------
 Frag_519
 --------
 Charge =  0 Multiplicity = 1

 SCF Done:  E(RHF) =  -248.244986837     A.U. after   12 cycles
 E2 =    -0.1204222178D+01 EUMP2 =    -0.24944920901430D+03
 Normal termination of Gaussian 09 at Fri Aug 26 07:47:32 2022.
 SCF Done:  E(RHF) =  -248.265221879     A.U. after    8 cycles
 Normal termination of Gaussian 09 at Fri Aug 26 07:48:47 2022.

                         Standard orientation:
 ---------------------------------------------------------------------
 Center     Atomic      Atomic             Coordinates (Angstroms)
 Number     Number       Type             X           Y           Z
 ---------------------------------------------------------------------
      1          6           0        2.048628   -0.002698    0.103637
      2          6           0        0.726102   -0.676073   -0.271202
      3          6           0       -0.502148    0.018109    0.323315
      4          7           0       -1.785966   -0.605715    0.019865
      5          8           0       -0.512657    1.338634   -0.180137
      6          1           0        2.063023    1.033313   -0.242657
      7          1           0        2.899774   -0.528058   -0.340187
      8          1           0        2.192898    0.004927    1.190126
      9          1           0        0.605062   -0.689084   -1.362531
     10          1           0        0.721914   -1.720191    0.065147
     11          1           0       -0.414230    0.022007    1.424435
     12          1           0       -1.903101   -1.459479    0.557398
     13          1           0       -1.817277   -0.864609   -0.963734
     14          1           0       -1.380535    1.696078    0.039547
 ---------------------------------------------------------------------

 SCF Done:  E(RHF) =  -248.269685224     A.U. after    8 cycles

 The electronic state is 1-A.
 Alpha  occ. eigenvalues --  -20.54954 -15.54790 -11.30623 -11.22031 -11.20932
 Alpha  occ. eigenvalues --   -1.36844  -1.17400  -1.03530  -0.89264  -0.80085
 Alpha  occ. eigenvalues --   -0.71350  -0.67565  -0.61351  -0.58967  -0.57631
 Alpha  occ. eigenvalues --   -0.54349  -0.51230  -0.49825  -0.48357  -0.45114
 Alpha  occ. eigenvalues --   -0.40268
 Alpha virt. eigenvalues --    0.03944   0.04358   0.04557   0.05627   0.07055
 Alpha virt. eigenvalues --    0.07528   0.07887   0.07997   0.09220   0.10513
 Alpha virt. eigenvalues --    0.11461   0.11905   0.14827   0.14976   0.15325

 Mulliken charges:
               1
     1  C   -0.536734
     2  C   -0.213380
     3  C    0.169037
     4  N   -0.714715
     5  O   -0.604185
     6  H    0.194017
     7  H    0.158560
     8  H    0.150183
     9  H    0.150177
    10  H    0.149666
    11  H    0.131864
    12  H    0.290343
    13  H    0.288202
    14  H    0.386965
 Sum of Mulliken charges =  -0.00000

 Dipole moment (field-independent basis, Debye):
    X=             -0.2787    Y=             -1.7559    Z=              0.4478  Tot=              1.8334
 Quadrupole moment (field-independent basis, Debye-Ang):
   XX=            -34.0191   YY=            -31.5304   ZZ=            -31.4402
   XY=             -0.1101   XZ=              0.1754   YZ=              0.7491

 Normal termination of Gaussian 09 at Fri Aug 26 07:53:38 2022.
