 Gaussian 09, Revision E.01,
 Gaussian 09:  ES64L-G09RevE.01 30-Nov-2015

 -----
 #P G4
 -----

 ---------
 Frag_1041
 ---------
 Symbolic Z-matrix:
 Charge =  0 Multiplicity = 1

 SCF Done:  E(RB3LYP) =  -317.219635121     A.U. after   12 cycles
 SCF Done:  E(RB3LYP) =  -317.227565048     A.U. after   11 cycles
 SCF Done:  E(RB3LYP) =  -317.228379094     A.U. after   10 cycles
 SCF Done:  E(RB3LYP) =  -317.228669907     A.U. after   10 cycles
 SCF Done:  E(RB3LYP) =  -317.228767341     A.U. after   10 cycles
 SCF Done:  E(RB3LYP) =  -317.228825837     A.U. after   10 cycles
 SCF Done:  E(RB3LYP) =  -317.228893255     A.U. after   10 cycles
 SCF Done:  E(RB3LYP) =  -317.228914442     A.U. after   10 cycles
 SCF Done:  E(RB3LYP) =  -317.228918419     A.U. after    8 cycles
 SCF Done:  E(RB3LYP) =  -317.228919017     A.U. after    7 cycles
 SCF Done:  E(RB3LYP) =  -317.228919211     A.U. after    7 cycles
 Optimization completed.
    -- Stationary point found.
 Normal termination of Gaussian 09 at Fri Aug 26 10:09:53 2022.

 ----------------------------------------------------------
 #P Geom=AllCheck Guess=TCheck SCRF=Check B3LYP/GTBas3 Freq
 ----------------------------------------------------------

 Structure from the checkpoint file:  "G4.Frag_1041.chk"
 ---------
 Frag_1041
 ---------
 Charge =  0 Multiplicity = 1

 SCF Done:  E(RB3LYP) =  -317.228919211     A.U. after    1 cycles

  Exact polarizability:  53.129  -0.135  51.157   0.256  -1.267  47.298
 Approx polarizability:  68.940   0.093  73.462  -0.722  -1.550  69.421

                      1                      2                      3
                      A                      A                      A
 Frequencies --     67.5539               176.4031               221.3387
 Red. masses --      2.3849                 1.3182                 1.0683
 Frc consts  --      0.0064                 0.0242                 0.0308
 IR Inten    --      2.0586                 6.4663                94.1376

                      4                      5                      6
                      A                      A                      A
 Frequencies --    278.9561               311.1675               358.7075
 Red. masses --      3.0589                 3.2486                 1.1632
 Frc consts  --      0.1402                 0.1853                 0.0882
 IR Inten    --     10.9049                 2.5007                 2.8767

                      7                      8                      9
                      A                      A                      A
 Frequencies --    370.0881               423.1671               503.8726
 Red. masses --      1.1200                 2.9926                 2.3732
 Frc consts  --      0.0904                 0.3157                 0.3550
 IR Inten    --     31.4424                12.5976                41.0169

                     10                     11                     12
                      A                      A                      A
 Frequencies --    570.8819               647.9547               779.6094
 Red. masses --      3.4708                 2.9890                 2.8681
 Frc consts  --      0.6664                 0.7394                 1.0271
 IR Inten    --      8.1914                 1.0870                59.3401

                     13                     14                     15
                      A                      A                      A
 Frequencies --    850.3733               867.7752               931.5589
 Red. masses --      1.6853                 1.6920                 2.2728
 Frc consts  --      0.7181                 0.7507                 1.1621
 IR Inten    --    171.4249               102.3000                95.4238

                     16                     17                     18
                      A                      A                      A
 Frequencies --    953.9610              1022.1531              1112.2071
 Red. masses --      2.4989                 1.6288                 2.5806
 Frc consts  --      1.3399                 1.0027                 1.8808
 IR Inten    --     31.2025                37.3306                46.9115

                     19                     20                     21
                      A                      A                      A
 Frequencies --   1133.0734              1202.5281              1228.2517
 Red. masses --      1.8036                 1.5503                 1.6151
 Frc consts  --      1.3643                 1.3209                 1.4356
 IR Inten    --     66.0096                24.3005                14.5644

                     22                     23                     24
                      A                      A                      A
 Frequencies --   1288.2625              1320.1052              1373.2332
 Red. masses --      1.3274                 1.5146                 1.3227
 Frc consts  --      1.2980                 1.5551                 1.4696
 IR Inten    --      0.6036                 4.7111                20.2038

                     25                     26                     27
                      A                      A                      A
 Frequencies --   1384.4601              1443.7838              1633.6795
 Red. masses --      1.3099                 1.2965                 1.0995
 Frc consts  --      1.4793                 1.5923                 1.7290
 IR Inten    --     28.4345                27.3255                33.7143

                     28                     29                     30
                      A                      A                      A
 Frequencies --   1644.4295              1650.6487              1681.0354
 Red. masses --      1.0934                 1.0875                 1.0798
 Frc consts  --      1.7420                 1.7458                 1.7978
 IR Inten    --     27.3272                15.4206                23.9322

                     31                     32                     33
                      A                      A                      A
 Frequencies --   2974.9014              3368.5872              3391.6746
 Red. masses --      1.0842                 1.0540                 1.0574
 Frc consts  --      5.6534                 7.0465                 7.1669
 IR Inten    --     65.0453                13.7143                 8.1905

                     34                     35                     36
                      A                      A                      A
 Frequencies --   3496.9529              3500.4349              3524.8269
 Red. masses --      1.0491                 1.0489                 1.0857
 Frc consts  --      7.5589                 7.5720                 7.9472
 IR Inten    --      0.8714                 2.6197                 1.2967

                     37                     38                     39
                      A                      A                      A
 Frequencies --   3539.2694              3585.1308              3586.4369
 Red. masses --      1.0825                 1.0922                 1.0931
 Frc consts  --      7.9894                 8.2712                 8.2840
 IR Inten    --      1.1738                 5.0846                 1.0471

 - Thermochemistry -
 -------------------
 Temperature   298.150 Kelvin.  Pressure   1.00000 Atm.
 Atom     1 has atomic number  7 and mass  14.00307

 Molecular mass:    91.08580 amu.
 Principal axes and moments of inertia in atomic units:
                           1         2         3
     Eigenvalues --   373.41330 608.59709 712.80825
           X            0.99980  -0.01079   0.01663
           Y            0.01100   0.99986  -0.01271
           Z           -0.01649   0.01289   0.99978
 This molecule is an asymmetric top.
 Rotational symmetry number  1.
 Rotational temperatures (Kelvin)      0.23195     0.14232     0.12151
 Rotational constants (GHZ):           4.83309     2.96541     2.53187
 Zero-point vibrational energy     349306.2 (Joules/Mol)
                                   83.48618 (Kcal/Mol)
 Warning -- explicit consideration of  10 degrees of freedom as
           vibrations may cause significant error
 Vibrational temperatures:     97.19   253.80   318.46   401.36   447.70
          (Kelvin)            516.10   532.47   608.84   724.96   821.37
                              932.26  1121.68  1223.50  1248.53  1340.30
                             1372.54  1470.65  1600.22  1630.24  1730.17
                             1767.18  1853.52  1899.33  1975.77  1991.93
                             2077.28  2350.50  2365.96  2374.91  2418.63
                             4280.21  4846.64  4879.86  5031.33  5036.34
                             5071.43  5092.21  5158.20  5160.08

 Zero-point correction=                           0.133044 (Hartree/Particle)
 Thermal correction to Energy=                    0.140636
 Thermal correction to Enthalpy=                  0.141580
 Thermal correction to Gibbs Free Energy=         0.102015
 Sum of electronic and zero-point Energies=           -317.095876
 Sum of electronic and thermal Energies=              -317.088284
 Sum of electronic and thermal Enthalpies=            -317.087339
 Sum of electronic and thermal Free Energies=         -317.126904

                     E (Thermal)             CV                S
                      KCal/Mol        Cal/Mol-Kelvin    Cal/Mol-Kelvin
 Total                   88.250             27.498             83.271
 Electronic               0.000              0.000              0.000
 Translational            0.889              2.981             39.440
 Rotational               0.889              2.981             26.585
 Vibrational             86.473             21.536             17.246
 Vibration     1          0.598              1.970              4.223
 Vibration     2          0.628              1.871              2.366
 Vibration     3          0.648              1.809              1.948
 Vibration     4          0.679              1.712              1.540
 Vibration     5          0.700              1.652              1.356
 Vibration     6          0.734              1.557              1.128
 Vibration     7          0.742              1.534              1.079
 Vibration     8          0.785              1.420              0.881
 Vibration     9          0.859              1.241              0.649
 Vibration    10          0.927              1.094              0.503

 Optimization completed.
    -- Stationary point found.
 Normal termination of Gaussian 09 at Fri Aug 26 10:10:28 2022.

 -----------------------------------------------------------------
 #P Geom=AllCheck Guess=TCheck SCRF=Check CCSD(T,E4T,FrzG4)/GTBas1
 -----------------------------------------------------------------

 Structure from the checkpoint file:  "G4.Frag_1041.chk"
 ---------
 Frag_1041
 ---------
 Charge =  0 Multiplicity = 1

 SCF Done:  E(RHF) =  -315.251246954     A.U. after   12 cycles
 E2 =    -0.9552948792D+00 EUMP2 =    -0.31620654183326D+03
 CCSD(T)
 CCSD(T)= -0.31628668305D+03
 2591907\CCSD(T)=-316.286683\RMSD=2.896e-09\PG=C01 [X(C1H9N5)]\\@
 Normal termination of Gaussian 09 at Fri Aug 26 10:12:53 2022.

 ---------------------------------------------------------
 #P Geom=AllCheck Guess=TCheck SCRF=Check MP4=FrzG4/GTBas2
 ---------------------------------------------------------

 Structure from the checkpoint file:  "G4.Frag_1041.chk"
 ---------
 Frag_1041
 ---------
 Charge =  0 Multiplicity = 1

 SCF Done:  E(RHF) =  -315.265614528     A.U. after   12 cycles
 E2 =    -0.9737701589D+00 EUMP2 =    -0.31623938468706D+03
 Normal termination of Gaussian 09 at Fri Aug 26 10:13:37 2022.

 ---------------------------------------------------------
 #P Geom=AllCheck Guess=TCheck SCRF=Check MP4=FrzG4/GTBas3
 ---------------------------------------------------------

 Structure from the checkpoint file:  "G4.Frag_1041.chk"
 ---------
 Frag_1041
 ---------
 Charge =  0 Multiplicity = 1

 SCF Done:  E(RHF) =  -315.301213273     A.U. after   11 cycles
 E2 =    -0.1167814796D+01 EUMP2 =    -0.31646902806938D+03
 Normal termination of Gaussian 09 at Fri Aug 26 10:17:56 2022.

 -----------------------------------------------------------
 #P Geom=AllCheck Guess=TCheck SCRF=Check MP2=Full/GTLargeXP
 -----------------------------------------------------------

 Structure from the checkpoint file:  "G4.Frag_1041.chk"
 ---------
 Frag_1041
 ---------
 Charge =  0 Multiplicity = 1

 SCF Done:  E(RHF) =  -315.388389437     A.U. after   12 cycles
 E2 =    -0.1514639156D+01 EUMP2 =    -0.31690302859326D+03
 Normal termination of Gaussian 09 at Fri Aug 26 10:20:00 2022.
 SCF Done:  E(RHF) =  -315.412307205     A.U. after    9 cycles
 Normal termination of Gaussian 09 at Fri Aug 26 10:22:17 2022.

                         Standard orientation:
 ---------------------------------------------------------------------
 Center     Atomic      Atomic             Coordinates (Angstroms)
 Number     Number       Type             X           Y           Z
 ---------------------------------------------------------------------
      1          7           0       -1.659316   -0.793252   -0.382535
      2          6           0       -0.663102    0.267523   -0.361895
      3          7           0       -0.834668    1.153011    0.789026
      4          7           0        0.675267   -0.346873   -0.383728
      5          7           0        1.702918    0.646610   -0.492588
      6          7           0        0.864278   -1.118650    0.798748
      7          1           0       -2.520867   -0.451289   -0.796049
      8          1           0       -1.318959   -1.555300   -0.960626
      9          1           0       -0.679530    0.909199   -1.256504
     10          1           0       -1.498689    1.891240    0.584384
     11          1           0       -1.222000    0.602943    1.551008
     12          1           0        1.402102    1.478396    0.026510
     13          1           0        1.773976    0.902329   -1.474190
     14          1           0        1.692996   -1.680224    0.627302
     15          1           0        1.110223   -0.488362    1.567066
 ---------------------------------------------------------------------

 SCF Done:  E(RHF) =  -315.417717843     A.U. after    8 cycles

 The electronic state is 1-A.
 Alpha  occ. eigenvalues --  -15.59985 -15.56379 -15.55856 -15.54504 -15.53924
 Alpha  occ. eigenvalues --  -11.31347  -1.32995  -1.21212  -1.13738  -1.12716
 Alpha  occ. eigenvalues --   -0.97346  -0.81548  -0.71711  -0.69088  -0.67027
 Alpha  occ. eigenvalues --   -0.64338  -0.61338  -0.60474  -0.59572  -0.54307
 Alpha  occ. eigenvalues --   -0.44526  -0.41552  -0.41159  -0.39722  -0.38737
 Alpha virt. eigenvalues --    0.03474   0.04854   0.05014   0.05527   0.07812
 Alpha virt. eigenvalues --    0.08386   0.08914   0.09321   0.09593   0.11943
 Alpha virt. eigenvalues --    0.12104   0.12343   0.13016   0.13281   0.13359

 Mulliken charges:
               1
     1  N   -0.703525
     2  C    0.210339
     3  N   -0.785470
     4  N    0.024692
     5  N   -0.686740
     6  N   -0.634399
     7  H    0.288920
     8  H    0.309300
     9  H    0.150753
    10  H    0.297036
    11  H    0.326173
    12  H    0.317291
    13  H    0.301723
    14  H    0.305044
    15  H    0.278862
 Sum of Mulliken charges =  -0.00000

 Dipole moment (field-independent basis, Debye):
    X=             -1.3694    Y=              1.8589    Z=             -1.3014  Tot=              2.6504
 Quadrupole moment (field-independent basis, Debye-Ang):
   XX=            -36.6294   YY=            -37.2271   ZZ=            -34.8687
   XY=             -3.5503   XZ=              2.4451   YZ=             -0.1594

 Normal termination of Gaussian 09 at Fri Aug 26 10:30:01 2022.
