 Gaussian 09, Revision E.01,
 Gaussian 09:  ES64L-G09RevE.01 30-Nov-2015

 -----
 #P G4
 -----

 --------
 Frag_720
 --------
 Symbolic Z-matrix:
 Charge =  0 Multiplicity = 1

 SCF Done:  E(RB3LYP) =  -300.310291207     A.U. after   16 cycles
 SCF Done:  E(RB3LYP) =  -300.330017262     A.U. after   14 cycles
 SCF Done:  E(RB3LYP) =  -300.335422243     A.U. after   13 cycles
 SCF Done:  E(RB3LYP) =  -300.337270412     A.U. after   14 cycles
 SCF Done:  E(RB3LYP) =  -300.340870894     A.U. after   14 cycles
 SCF Done:  E(RB3LYP) =  -300.342299367     A.U. after   15 cycles
 SCF Done:  E(RB3LYP) =  -300.343248052     A.U. after   13 cycles
 SCF Done:  E(RB3LYP) =  -300.343410151     A.U. after   12 cycles
 SCF Done:  E(RB3LYP) =  -300.343444172     A.U. after   12 cycles
 SCF Done:  E(RB3LYP) =  -300.343478013     A.U. after   10 cycles
 SCF Done:  E(RB3LYP) =  -300.343499639     A.U. after    9 cycles
 SCF Done:  E(RB3LYP) =  -300.343501533     A.U. after    8 cycles
 SCF Done:  E(RB3LYP) =  -300.343501812     A.U. after    7 cycles
 Optimization completed.
    -- Stationary point found.
 Normal termination of Gaussian 09 at Fri Aug 26 06:03:59 2022.

 ----------------------------------------------------------
 #P Geom=AllCheck Guess=TCheck SCRF=Check B3LYP/GTBas3 Freq
 ----------------------------------------------------------

 Structure from the checkpoint file:  "G4.Frag_720.chk"
 --------
 Frag_720
 --------
 Charge =  0 Multiplicity = 1

 SCF Done:  E(RB3LYP) =  -300.343501812     A.U. after    1 cycles

  Exact polarizability:  52.796   0.937  34.477  -0.000  -0.000  22.391
 Approx polarizability: 107.654  -1.678  48.712  -0.000  -0.000  32.642

                      1                      2                      3
                      A                      A                      A
 Frequencies --    148.7623               267.1325               339.3258
 Red. masses --      1.0742                 3.1365                 1.4008
 Frc consts  --      0.0140                 0.1319                 0.0950
 IR Inten    --      2.5734                45.0913                72.0754

                      4                      5                      6
                      A                      A                      A
 Frequencies --    363.3146               545.7551               546.3058
 Red. masses --      3.6575                 4.6428                 3.9740
 Frc consts  --      0.2844                 0.8147                 0.6988
 IR Inten    --      3.7808                 7.0290                 3.1122

                      7                      8                      9
                      A                      A                      A
 Frequencies --    639.8914               835.2963              1040.5466
 Red. masses --      6.6493                 6.4452                 7.0746
 Frc consts  --      1.6041                 2.6495                 4.5131
 IR Inten    --      7.7047                 6.1879               174.5377

                     10                     11                     12
                      A                      A                      A
 Frequencies --   1103.0008              1119.4827              1296.9031
 Red. masses --      1.5685                 1.4527                 1.8334
 Frc consts  --      1.1243                 1.0727                 1.8169
 IR Inten    --     10.5447                 0.0606               124.8185

                     13                     14                     15
                      A                      A                      A
 Frequencies --   1406.6722              1453.7825              1473.0266
 Red. masses --      1.1772                 1.1660                 1.0461
 Frc consts  --      1.3724                 1.4519                 1.3374
 IR Inten    --      5.0174                40.0017                10.3345

                     16                     17                     18
                      A                      A                      A
 Frequencies --   1507.8781              1589.6110              3081.5250
 Red. masses --      2.4136                 5.3170                 1.0306
 Frc consts  --      3.2334                 7.9159                 5.7658
 IR Inten    --      2.6641               139.1240                 1.9818

                     19                     20                     21
                      A                      A                      A
 Frequencies --   3165.9079              3215.1904              3822.3886
 Red. masses --      1.1040                 1.1074                 1.0675
 Frc consts  --      6.5198                 6.7449                 9.1894
 IR Inten    --      2.0077                 0.2099               118.2646

 - Thermochemistry -
 -------------------
 Temperature   298.150 Kelvin.  Pressure   1.00000 Atm.
 Atom     1 has atomic number  6 and mass  12.00000

 Molecular mass:    76.02728 amu.
 Principal axes and moments of inertia in atomic units:
                           1         2         3
     Eigenvalues --   177.77379 381.04265 547.47882
           X            0.99812   0.06126   0.00000
           Y           -0.06126   0.99812  -0.00000
           Z           -0.00000   0.00000   1.00000
 This molecule is an asymmetric top.
 Rotational symmetry number  1.
 Rotational temperatures (Kelvin)      0.48721     0.22731     0.15820
 Rotational constants (GHZ):          10.15190     4.73632     3.29646
 Zero-point vibrational energy     173229.4 (Joules/Mol)
                                   41.40283 (Kcal/Mol)
 Warning -- explicit consideration of   6 degrees of freedom as
           vibrations may cause significant error
 Vibrational temperatures:    214.04   384.34   488.21   522.73   785.22
          (Kelvin)            786.01   920.66  1201.80  1497.11  1586.97
                             1610.68  1865.95  2023.88  2091.67  2119.35
                             2169.50  2287.09  4433.62  4555.03  4625.94
                             5499.56

 Zero-point correction=                           0.065980 (Hartree/Particle)
 Thermal correction to Energy=                    0.071351
 Thermal correction to Enthalpy=                  0.072295
 Thermal correction to Gibbs Free Energy=         0.037796
 Sum of electronic and zero-point Energies=           -300.277522
 Sum of electronic and thermal Energies=              -300.272151
 Sum of electronic and thermal Enthalpies=            -300.271207
 Sum of electronic and thermal Free Energies=         -300.305706

                     E (Thermal)             CV                S
                      KCal/Mol        Cal/Mol-Kelvin    Cal/Mol-Kelvin
 Total                   44.773             18.010             72.609
 Electronic               0.000              0.000              0.000
 Translational            0.889              2.981             38.901
 Rotational               0.889              2.981             25.120
 Vibrational             42.996             12.049              8.588
 Vibration     1          0.618              1.904              2.688
 Vibration     2          0.672              1.733              1.615
 Vibration     3          0.719              1.597              1.215
 Vibration     4          0.737              1.548              1.108
 Vibration     5          0.901              1.149              0.553
 Vibration     6          0.901              1.148              0.552

 Optimization completed.
    -- Stationary point found.
 Normal termination of Gaussian 09 at Fri Aug 26 06:04:16 2022.

 -----------------------------------------------------------------
 #P Geom=AllCheck Guess=TCheck SCRF=Check CCSD(T,E4T,FrzG4)/GTBas1
 -----------------------------------------------------------------

 Structure from the checkpoint file:  "G4.Frag_720.chk"
 --------
 Frag_720
 --------
 Charge =  0 Multiplicity = 1

 SCF Done:  E(RHF) =  -298.631335645     A.U. after   15 cycles
 E2 =    -0.8427862134D+00 EUMP2 =    -0.29947412185817D+03
 CCSD(T)
 CCSD(T)= -0.29952284347D+03
 4925019\CCSD=-299.4900006\CCSD(T)=-299.5228435\RMSD=2.171e-09\PG=C01 [
 Normal termination of Gaussian 09 at Fri Aug 26 06:05:09 2022.

 ---------------------------------------------------------
 #P Geom=AllCheck Guess=TCheck SCRF=Check MP4=FrzG4/GTBas2
 ---------------------------------------------------------

 Structure from the checkpoint file:  "G4.Frag_720.chk"
 --------
 Frag_720
 --------
 Charge =  0 Multiplicity = 1

 SCF Done:  E(RHF) =  -298.643128618     A.U. after   14 cycles
 E2 =    -0.8563712176D+00 EUMP2 =    -0.29949949983523D+03
 Normal termination of Gaussian 09 at Fri Aug 26 06:05:23 2022.

 ---------------------------------------------------------
 #P Geom=AllCheck Guess=TCheck SCRF=Check MP4=FrzG4/GTBas3
 ---------------------------------------------------------

 Structure from the checkpoint file:  "G4.Frag_720.chk"
 --------
 Frag_720
 --------
 Charge =  0 Multiplicity = 1

 SCF Done:  E(RHF) =  -298.667379235     A.U. after   13 cycles
 E2 =    -0.1016703139D+01 EUMP2 =    -0.29968408237343D+03
 Normal termination of Gaussian 09 at Fri Aug 26 06:06:24 2022.

 -----------------------------------------------------------
 #P Geom=AllCheck Guess=TCheck SCRF=Check MP2=Full/GTLargeXP
 -----------------------------------------------------------

 Structure from the checkpoint file:  "G4.Frag_720.chk"
 --------
 Frag_720
 --------
 Charge =  0 Multiplicity = 1

 SCF Done:  E(RHF) =  -298.751678174     A.U. after   13 cycles
 E2 =    -0.1311537018D+01 EUMP2 =    -0.30006321519285D+03
 Normal termination of Gaussian 09 at Fri Aug 26 06:07:03 2022.
 SCF Done:  E(RHF) =  -298.777299118     A.U. after   11 cycles
 Normal termination of Gaussian 09 at Fri Aug 26 06:07:54 2022.

                         Standard orientation:
 ---------------------------------------------------------------------
 Center     Atomic      Atomic             Coordinates (Angstroms)
 Number     Number       Type             X           Y           Z
 ---------------------------------------------------------------------
      1          6           0        0.470408    1.324680    0.000008
      2          7           0        0.477317   -0.165902   -0.000002
      3          8           0        1.580363   -0.743039   -0.000004
      4          7           0       -0.610561   -0.832616    0.000012
      5          8           0       -1.688122    0.068444   -0.000005
      6          1           0        1.517429    1.612209    0.000122
      7          1           0       -0.053346    1.681236    0.887366
      8          1           0       -0.053090    1.681210   -0.887516
      9          1           0       -2.438658   -0.536349   -0.000017
 ---------------------------------------------------------------------

 SCF Done:  E(RHF) =  -298.782462200     A.U. after    8 cycles

 The electronic state is 1-A.
 Alpha  occ. eigenvalues --  -20.63293 -20.55188 -15.79000 -15.68397 -11.29881
 Alpha  occ. eigenvalues --   -1.54058  -1.43992  -1.22354  -1.06384  -0.83383
 Alpha  occ. eigenvalues --   -0.75937  -0.73791  -0.71604  -0.65705  -0.60265
 Alpha  occ. eigenvalues --   -0.59833  -0.56765  -0.50815  -0.45494  -0.37122
 Alpha virt. eigenvalues --    0.03758   0.04743   0.05103   0.05907   0.08324
 Alpha virt. eigenvalues --    0.08799   0.09538   0.10796   0.11549   0.13489
 Alpha virt. eigenvalues --    0.14572   0.15061   0.15913   0.16122   0.17967

 Mulliken charges:
               1
     1  C   -0.454422
     2  N    0.434459
     3  O   -0.525460
     4  N   -0.093446
     5  O   -0.482117
     6  H    0.245575
     7  H    0.230489
     8  H    0.230476
     9  H    0.414446
 Sum of Mulliken charges =  -0.00000

 Dipole moment (field-independent basis, Debye):
    X=             -2.9620    Y=              3.0492    Z=             -0.0000  Tot=              4.2510
 Quadrupole moment (field-independent basis, Debye-Ang):
   XX=            -28.7311   YY=            -28.9641   ZZ=            -28.8940
   XY=              6.0097   XZ=              0.0000   YZ=              0.0000

 Normal termination of Gaussian 09 at Fri Aug 26 06:11:44 2022.
