 Gaussian 09, Revision E.01,
 Gaussian 09:  ES64L-G09RevE.01 30-Nov-2015

 -----
 #P G4
 -----

 --------
 Frag_508
 --------
 Symbolic Z-matrix:
 Charge =  0 Multiplicity = 1

 SCF Done:  E(RB3LYP) =  -311.084553369     A.U. after   14 cycles
 SCF Done:  E(RB3LYP) =  -311.111820416     A.U. after   12 cycles
 SCF Done:  E(RB3LYP) =  -311.116365955     A.U. after   12 cycles
 SCF Done:  E(RB3LYP) =  -311.119267074     A.U. after   12 cycles
 SCF Done:  E(RB3LYP) =  -311.120085584     A.U. after   11 cycles
 SCF Done:  E(RB3LYP) =  -311.120267930     A.U. after   11 cycles
 SCF Done:  E(RB3LYP) =  -311.120293754     A.U. after   10 cycles
 SCF Done:  E(RB3LYP) =  -311.120345688     A.U. after   10 cycles
 SCF Done:  E(RB3LYP) =  -311.109690395     A.U. after   14 cycles
 SCF Done:  E(RB3LYP) =  -311.120504550     A.U. after   11 cycles
 SCF Done:  E(RB3LYP) =  -311.120988741     A.U. after    9 cycles
 SCF Done:  E(RB3LYP) =  -311.120989366     A.U. after    8 cycles
 SCF Done:  E(RB3LYP) =  -311.120989537     A.U. after    7 cycles
 Optimization completed.
    -- Stationary point found.
 Normal termination of Gaussian 09 at Tue Aug 30 10:58:08 2022.

 ----------------------------------------------------------
 #P Geom=AllCheck Guess=TCheck SCRF=Check B3LYP/GTBas3 Freq
 ----------------------------------------------------------

 Structure from the checkpoint file:  "G4.Frag_508.chk"
 --------
 Frag_508
 --------
 Charge =  0 Multiplicity = 1

 SCF Done:  E(RB3LYP) =  -311.120989537     A.U. after    1 cycles

  Exact polarizability:  71.650   0.745  68.979  -0.153   0.019  60.825
 Approx polarizability:  95.263  -4.081 105.275  -0.707   0.404  86.951

                      1                      2                      3
                      A                      A                      A
 Frequencies --     48.1580               149.9301               189.8567
 Red. masses --      3.8834                 1.0309                 1.1033
 Frc consts  --      0.0053                 0.0137                 0.0234
 IR Inten    --      2.7091                 0.0822                 0.0765

                      4                      5                      6
                      A                      A                      A
 Frequencies --    220.4715               254.2690               261.6232
 Red. masses --      1.4941                 1.0626                 2.1195
 Frc consts  --      0.0428                 0.0405                 0.0855
 IR Inten    --      0.0615                 0.0145                 2.4223

                      7                      8                      9
                      A                      A                      A
 Frequencies --    278.5337               344.3307               357.6655
 Red. masses --      1.5587                 2.4198                 2.7743
 Frc consts  --      0.0712                 0.1690                 0.2091
 IR Inten    --      0.7540                 1.3274                 1.8966

                     10                     11                     12
                      A                      A                      A
 Frequencies --    368.1750               455.0489               552.9607
 Red. masses --      2.2291                 2.5308                 3.7496
 Frc consts  --      0.1780                 0.3088                 0.6755
 IR Inten    --      0.1230                 2.0406                 7.5595

                     13                     14                     15
                      A                      A                      A
 Frequencies --    610.0437               667.9496               833.2489
 Red. masses --      2.2850                 3.2485                 2.5136
 Frc consts  --      0.5010                 0.8539                 1.0282
 IR Inten    --      0.3087                 4.3643                 3.4720

                     16                     17                     18
                      A                      A                      A
 Frequencies --    936.3318               944.5322               953.6693
 Red. masses --      1.9042                 1.8895                 1.5971
 Frc consts  --      0.9836                 0.9932                 0.8558
 IR Inten    --      0.6238                 2.2241                16.1733

                     19                     20                     21
                      A                      A                      A
 Frequencies --    964.2505               991.8984              1055.1508
 Red. masses --      1.2066                 1.4242                 1.4367
 Frc consts  --      0.6610                 0.8256                 0.9424
 IR Inten    --      0.0803                 1.6072                 0.0932

                     22                     23                     24
                      A                      A                      A
 Frequencies --   1068.7539              1153.0503              1222.8817
 Red. masses --      1.6890                 2.3269                 2.6337
 Frc consts  --      1.1367                 1.8227                 2.3206
 IR Inten    --      1.0498                70.3397                 2.4970

                     25                     26                     27
                      A                      A                      A
 Frequencies --   1246.6259              1291.2557              1379.2343
 Red. masses --      2.8896                 2.9027                 1.3096
 Frc consts  --      2.6458                 2.8515                 1.4678
 IR Inten    --      3.2027                 9.4680                29.5226

                     28                     29                     30
                      A                      A                      A
 Frequencies --   1396.6216              1400.3569              1430.4533
 Red. masses --      1.2024                 1.2227                 1.2157
 Frc consts  --      1.3818                 1.4127                 1.4656
 IR Inten    --      2.9325                 6.6658                 3.6210

                     31                     32                     33
                      A                      A                      A
 Frequencies --   1462.1991              1475.3378              1478.5357
 Red. masses --      1.0509                 1.0536                 1.0486
 Frc consts  --      1.3238                 1.3512                 1.3506
 IR Inten    --      7.8496                 5.9686                 1.9220

                     34                     35                     36
                      A                      A                      A
 Frequencies --   1483.3380              1487.5249              1500.5888
 Red. masses --      1.0442                 1.0451                 1.0514
 Frc consts  --      1.3537                 1.3626                 1.3949
 IR Inten    --      0.6042                 1.0164                 4.0276

                     37                     38                     39
                      A                      A                      A
 Frequencies --   1505.9591              1518.8299              1800.5924
 Red. masses --      1.0513                 1.0677                11.2179
 Frc consts  --      1.4047                 1.4512                21.4285
 IR Inten    --      6.9179                16.3422               140.4720

                     40                     41                     42
                      A                      A                      A
 Frequencies --   3030.1462              3033.0277              3042.0113
 Red. masses --      1.0347                 1.0349                 1.0373
 Frc consts  --      5.5977                 5.6090                 5.6558
 IR Inten    --     22.4476                16.2779                15.4534

                     43                     44                     45
                      A                      A                      A
 Frequencies --   3043.9661              3096.4424              3100.4956
 Red. masses --      1.0375                 1.1016                 1.1011
 Frc consts  --      5.6641                 6.2232                 6.2363
 IR Inten    --      7.7069                 8.4089                11.3780

                     46                     47                     48
                      A                      A                      A
 Frequencies --   3106.5616              3107.4501              3108.6089
 Red. masses --      1.0984                 1.1006                 1.1011
 Frc consts  --      6.2458                 6.2616                 6.2691
 IR Inten    --     18.1368                13.6925                41.1870

                     49                     50                     51
                      A                      A                      A
 Frequencies --   3112.0037              3132.8307              3152.0275
 Red. masses --      1.0999                 1.0997                 1.1028
 Frc consts  --      6.2761                 6.3593                 6.4554
 IR Inten    --     35.8544                17.2235                11.0994

 - Thermochemistry -
 -------------------
 Temperature   298.150 Kelvin.  Pressure   1.00000 Atm.
 Atom     1 has atomic number  6 and mass  12.00000

 Molecular mass:   100.08882 amu.
 Principal axes and moments of inertia in atomic units:
                           1         2         3
     Eigenvalues --   568.46576 787.52669 945.99486
           X            0.99409   0.10856   0.00096
           Y           -0.10856   0.99408  -0.00388
           Z           -0.00137   0.00375   0.99999
 This molecule is an asymmetric top.
 Rotational symmetry number  1.
 Warning -- assumption of classical behavior for rotation
           may cause significant error
 Rotational temperatures (Kelvin)      0.15236     0.10998     0.09156
 Rotational constants (GHZ):           3.17476     2.29166     1.90777
 Zero-point vibrational energy     441456.8 (Joules/Mol)
                                  105.51070 (Kcal/Mol)
 Warning -- explicit consideration of  13 degrees of freedom as
           vibrations may cause significant error
 Vibrational temperatures:     69.29   215.72   273.16   317.21   365.84
          (Kelvin)            376.42   400.75   495.41   514.60   529.72
                              654.71   795.59   877.72   961.03  1198.86
                             1347.17  1358.97  1372.12  1387.34  1427.12
                             1518.12  1537.70  1658.98  1759.45  1793.61
                             1857.83  1984.41  2009.42  2014.80  2058.10
                             2103.78  2122.68  2127.28  2134.19  2140.21
                             2159.01  2166.74  2185.25  2590.65  4359.70
                             4363.84  4376.77  4379.58  4455.08  4460.92
                             4469.64  4470.92  4472.59  4477.47  4507.44
                             4535.06

 Zero-point correction=                           0.168142 (Hartree/Particle)
 Thermal correction to Energy=                    0.177229
 Thermal correction to Enthalpy=                  0.178173
 Thermal correction to Gibbs Free Energy=         0.135117
 Sum of electronic and zero-point Energies=           -310.952848
 Sum of electronic and thermal Energies=              -310.943760
 Sum of electronic and thermal Enthalpies=            -310.942816
 Sum of electronic and thermal Free Energies=         -310.985873

                     E (Thermal)             CV                S
                      KCal/Mol        Cal/Mol-Kelvin    Cal/Mol-Kelvin
 Total                  111.213             32.972             90.620
 Electronic               0.000              0.000              0.000
 Translational            0.889              2.981             39.721
 Rotational               0.889              2.981             27.540
 Vibrational            109.436             27.010             23.360
 Vibration     1          0.595              1.978              4.892
 Vibration     2          0.618              1.903              2.673
 Vibration     3          0.633              1.854              2.229
 Vibration     4          0.647              1.810              1.955
 Vibration     5          0.665              1.756              1.701
 Vibration     6          0.669              1.743              1.651
 Vibration     7          0.679              1.713              1.543
 Vibration     8          0.723              1.587              1.192
 Vibration     9          0.733              1.560              1.132
 Vibration    10          0.741              1.538              1.087
 Vibration    11          0.813              1.350              0.781
 Vibration    12          0.908              1.133              0.538
 Vibration    13          0.969              1.011              0.433

 Optimization completed.
    -- Stationary point found.
 Normal termination of Gaussian 09 at Tue Aug 30 10:59:07 2022.

 -----------------------------------------------------------------
 #P Geom=AllCheck Guess=TCheck SCRF=Check CCSD(T,E4T,FrzG4)/GTBas1
 -----------------------------------------------------------------

 Structure from the checkpoint file:  "G4.Frag_508.chk"
 --------
 Frag_508
 --------
 Charge =  0 Multiplicity = 1

 SCF Done:  E(RHF) =  -309.061945765     A.U. after   12 cycles
 E2 =    -0.9636215702D+00 EUMP2 =    -0.31002556733486D+03
 CCSD(T)
 CCSD(T)= -0.31012688393D+03
 066\MP4SDQ=-310.0941575\CCSD=-310.093671\CCSD(T)=-310.1268839\RMSD=7.5
 Normal termination of Gaussian 09 at Tue Aug 30 11:03:56 2022.

 ---------------------------------------------------------
 #P Geom=AllCheck Guess=TCheck SCRF=Check MP4=FrzG4/GTBas2
 ---------------------------------------------------------

 Structure from the checkpoint file:  "G4.Frag_508.chk"
 --------
 Frag_508
 --------
 Charge =  0 Multiplicity = 1

 SCF Done:  E(RHF) =  -309.067801331     A.U. after   12 cycles
 E2 =    -0.9754200248D+00 EUMP2 =    -0.31004322135603D+03
 Normal termination of Gaussian 09 at Tue Aug 30 11:05:28 2022.

 ---------------------------------------------------------
 #P Geom=AllCheck Guess=TCheck SCRF=Check MP4=FrzG4/GTBas3
 ---------------------------------------------------------

 Structure from the checkpoint file:  "G4.Frag_508.chk"
 --------
 Frag_508
 --------
 Charge =  0 Multiplicity = 1

 SCF Done:  E(RHF) =  -309.098296002     A.U. after   11 cycles
 E2 =    -0.1196245150D+01 EUMP2 =    -0.31029454115252D+03
 Normal termination of Gaussian 09 at Tue Aug 30 11:18:58 2022.

 -----------------------------------------------------------
 #P Geom=AllCheck Guess=TCheck SCRF=Check MP2=Full/GTLargeXP
 -----------------------------------------------------------

 Structure from the checkpoint file:  "G4.Frag_508.chk"
 --------
 Frag_508
 --------
 Charge =  0 Multiplicity = 1

 SCF Done:  E(RHF) =  -309.168296357     A.U. after   12 cycles
 E2 =    -0.1573847156D+01 EUMP2 =    -0.31074214351278D+03
 Normal termination of Gaussian 09 at Tue Aug 30 11:23:46 2022.
 SCF Done:  E(RHF) =  -309.192534868     A.U. after    9 cycles
 Normal termination of Gaussian 09 at Tue Aug 30 11:28:24 2022.

                         Standard orientation:
 ---------------------------------------------------------------------
 Center     Atomic      Atomic             Coordinates (Angstroms)
 Number     Number       Type             X           Y           Z
 ---------------------------------------------------------------------
      1          6           0       -1.946856   -0.789999    0.009700
      2          6           0       -0.907847    0.323131    0.021814
      3          8           0       -1.255562    1.482259    0.032273
      4          6           0        0.585933   -0.065902    0.008280
      5          6           0        0.936649   -0.507201   -1.432848
      6          6           0        0.863519   -1.225275    0.985583
      7          6           0        1.432221    1.157864    0.388632
      8          1           0       -2.012771   -1.240939    1.006514
      9          1           0       -2.918466   -0.365011   -0.245066
     10          1           0       -1.693909   -1.593350   -0.687686
     11          1           0        0.745491    0.298356   -2.148526
     12          1           0        1.999064   -0.766298   -1.491938
     13          1           0        0.364656   -1.385842   -1.746419
     14          1           0        0.317906   -2.134227    0.716365
     15          1           0        1.931229   -1.468409    0.978637
     16          1           0        0.592543   -0.956794    2.012325
     17          1           0        2.497647    0.912669    0.329398
     18          1           0        1.212469    1.487768    1.408305
     19          1           0        1.226921    1.998301   -0.277061
 ---------------------------------------------------------------------

 SCF Done:  E(RHF) =  -309.197608232     A.U. after    7 cycles

 The electronic state is 1-A.
 Alpha  occ. eigenvalues --  -20.53868 -11.32460 -11.24991 -11.23185 -11.22726
 Alpha  occ. eigenvalues --  -11.22705 -11.21075  -1.38463  -1.10782  -1.00077
 Alpha  occ. eigenvalues --   -0.94420  -0.93280  -0.83372  -0.70444  -0.66320
 Alpha  occ. eigenvalues --   -0.63103  -0.61758  -0.59612  -0.59040  -0.56414
 Alpha  occ. eigenvalues --   -0.54486  -0.54335  -0.52267  -0.51264  -0.49799
 Alpha  occ. eigenvalues --   -0.47334  -0.46707  -0.39863
 Alpha virt. eigenvalues --    0.03066   0.03801   0.04016   0.04475   0.05948
 Alpha virt. eigenvalues --    0.06612   0.06798   0.06879   0.07414   0.09035
 Alpha virt. eigenvalues --    0.09157   0.09535   0.09801   0.10182   0.10697

 Mulliken charges:
               1
     1  C   -0.598973
     2  C    0.408395
     3  O   -0.552224
     4  C    0.378691
     5  C   -0.600368
     6  C   -0.608873
     7  C   -0.602822
     8  H    0.195022
     9  H    0.215066
    10  H    0.185084
    11  H    0.186365
    12  H    0.173860
    13  H    0.163832
    14  H    0.170285
    15  H    0.177922
    16  H    0.177098
    17  H    0.167000
    18  H    0.168973
    19  H    0.195667
 Sum of Mulliken charges =  -0.00000

 Dipole moment (field-independent basis, Debye):
    X=              1.0560    Y=             -3.0290    Z=             -0.0666  Tot=              3.2085
 Quadrupole moment (field-independent basis, Debye-Ang):
   XX=            -45.6925   YY=            -49.8948   ZZ=            -44.4047
   XY=              4.3957   XZ=             -0.1258   YZ=             -0.2079

 Normal termination of Gaussian 09 at Tue Aug 30 11:41:33 2022.
