 Gaussian 09, Revision E.01,
 Gaussian 09:  ES64L-G09RevE.01 30-Nov-2015

 -----
 #P G4
 -----

 --------
 Frag_439
 --------
 Symbolic Z-matrix:
 Charge =  0 Multiplicity = 1

 SCF Done:  E(RB3LYP) =  -287.754559467     A.U. after   13 cycles
 SCF Done:  E(RB3LYP) =  -287.815334212     A.U. after   12 cycles
 SCF Done:  E(RB3LYP) =  -287.810492726     A.U. after   12 cycles
 SCF Done:  E(RB3LYP) =  -287.823039298     A.U. after    9 cycles
 SCF Done:  E(RB3LYP) =  -287.824547604     A.U. after   10 cycles
 SCF Done:  E(RB3LYP) =  -287.825070382     A.U. after   10 cycles
 SCF Done:  E(RB3LYP) =  -287.825122168     A.U. after    9 cycles
 SCF Done:  E(RB3LYP) =  -287.825146725     A.U. after    9 cycles
 SCF Done:  E(RB3LYP) =  -287.825187345     A.U. after   10 cycles
 SCF Done:  E(RB3LYP) =  -287.825133241     A.U. after    7 cycles
 SCF Done:  E(RB3LYP) =  -287.827488445     A.U. after    9 cycles
 SCF Done:  E(RB3LYP) =  -287.827490314     A.U. after    7 cycles
 SCF Done:  E(RB3LYP) =  -287.827490489     A.U. after    7 cycles
 Optimization completed.
    -- Stationary point found.
 Normal termination of Gaussian 09 at Tue Aug 30 10:42:23 2022.

 ----------------------------------------------------------
 #P Geom=AllCheck Guess=TCheck SCRF=Check B3LYP/GTBas3 Freq
 ----------------------------------------------------------

 Structure from the checkpoint file:  "G4.Frag_439.chk"
 --------
 Frag_439
 --------
 Charge =  0 Multiplicity = 1

 SCF Done:  E(RB3LYP) =  -287.827490489     A.U. after    1 cycles

  Exact polarizability:  73.420   1.608  58.552   0.143   1.582  38.268
 Approx polarizability: 109.089   0.595  78.711  -0.540   2.342  57.158

                      1                      2                      3
                      A                      A                      A
 Frequencies --    132.4016               150.8555               153.1898
 Red. masses --      1.1184                 2.0357                 1.1035
 Frc consts  --      0.0116                 0.0273                 0.0153
 IR Inten    --      0.0152                 7.6362                 0.5382

                      4                      5                      6
                      A                      A                      A
 Frequencies --    251.0821               279.7674               302.6869
 Red. masses --      1.3764                 2.0690                 2.8697
 Frc consts  --      0.0511                 0.0954                 0.1549
 IR Inten    --     15.2837                10.4741                 2.0234

                      7                      8                      9
                      A                      A                      A
 Frequencies --    347.5335               387.0158               488.9223
 Red. masses --      1.9399                 1.2217                 3.1710
 Frc consts  --      0.1380                 0.1078                 0.4466
 IR Inten    --     16.7669                83.3184                 5.6558

                     10                     11                     12
                      A                      A                      A
 Frequencies --    535.9945               614.9073               720.6888
 Red. masses --      3.7090                 2.2163                 2.9673
 Frc consts  --      0.6278                 0.4937                 0.9081
 IR Inten    --      0.9398                85.3786               126.4081

                     13                     14                     15
                      A                      A                      A
 Frequencies --    738.5547               967.9465               982.3104
 Red. masses --      2.6439                 2.0630                 1.3463
 Frc consts  --      0.8497                 1.1388                 0.7654
 IR Inten    --     48.0400                 4.0404                 2.9154

                     16                     17                     18
                      A                      A                      A
 Frequencies --   1009.7624              1095.0597              1096.5438
 Red. masses --      1.2394                 1.5267                 1.6001
 Frc consts  --      0.7446                 1.0786                 1.1336
 IR Inten    --      1.8667                 0.4121                64.9711

                     19                     20                     21
                      A                      A                      A
 Frequencies --   1164.6183              1233.3058              1296.2217
 Red. masses --      1.6369                 4.0332                 1.8352
 Frc consts  --      1.3081                 3.6145                 1.8167
 IR Inten    --     77.4205                 6.8424               106.5946

                     22                     23                     24
                      A                      A                      A
 Frequencies --   1384.5466              1420.2540              1425.7737
 Red. masses --      1.7179                 1.5246                 1.3422
 Frc consts  --      1.9403                 1.8119                 1.6076
 IR Inten    --     21.2699                 5.3445                12.3146

                     25                     26                     27
                      A                      A                      A
 Frequencies --   1477.9047              1492.4950              1496.5665
 Red. masses --      1.0484                 1.0486                 1.0493
 Frc consts  --      1.3492                 1.3762                 1.3847
 IR Inten    --      1.0734                 7.1146                 8.0731

                     28                     29                     30
                      A                      A                      A
 Frequencies --   1506.6227              1640.5867              1770.9224
 Red. masses --      1.0630                 1.1447                 6.8788
 Frc consts  --      1.4216                 1.8152                12.7104
 IR Inten    --      2.9435                60.0776               218.3870

                     31                     32                     33
                      A                      A                      A
 Frequencies --   2988.5952              2993.9104              3032.6031
 Red. masses --      1.0435                 1.0437                 1.0941
 Frc consts  --      5.4912                 5.5121                 5.9284
 IR Inten    --     54.0195                65.7460                61.4554

                     34                     35                     36
                      A                      A                      A
 Frequencies --   3035.1926              3068.6786              3103.6038
 Red. masses --      1.0942                 1.0975                 1.0951
 Frc consts  --      5.9393                 6.0894                 6.2152
 IR Inten    --      5.8021                39.5755                19.1793

                     37                     38                     39
                      A                      A                      A
 Frequencies --   3563.1152              3660.2475              3840.9060
 Red. masses --      1.0476                 1.0969                 1.0649
 Frc consts  --      7.8362                 8.6581                 9.2561
 IR Inten    --     17.4220                19.9220                30.0435

 - Thermochemistry -
 -------------------
 Temperature   298.150 Kelvin.  Pressure   1.00000 Atm.
 Atom     1 has atomic number  6 and mass  12.00000

 Molecular mass:    87.06841 amu.
 Principal axes and moments of inertia in atomic units:
                           1         2         3
     Eigenvalues --   378.10677 569.15616 918.88467
           X            0.99888   0.04703   0.00482
           Y           -0.04707   0.99884   0.00975
           Z           -0.00436  -0.00997   0.99994
 This molecule is an asymmetric top.
 Rotational symmetry number  1.
 Rotational temperatures (Kelvin)      0.22907     0.15218     0.09426
 Rotational constants (GHZ):           4.77310     3.17091     1.96406
 Zero-point vibrational energy     340049.8 (Joules/Mol)
                                   81.27386 (Kcal/Mol)
 Warning -- explicit consideration of  11 degrees of freedom as
           vibrations may cause significant error
 Vibrational temperatures:    190.50   217.05   220.41   361.25   402.52
          (Kelvin)            435.50   500.02   556.83   703.45   771.18
                              884.71  1036.91  1062.61  1392.66  1413.32
                             1452.82  1575.54  1577.68  1675.62  1774.45
                             1864.97  1992.05  2043.43  2051.37  2126.37
                             2147.36  2153.22  2167.69  2360.44  2547.96
                             4299.92  4307.56  4363.23  4366.96  4415.14
                             4465.39  5126.52  5266.27  5526.20

 Zero-point correction=                           0.129518 (Hartree/Particle)
 Thermal correction to Energy=                    0.137383
 Thermal correction to Enthalpy=                  0.138328
 Thermal correction to Gibbs Free Energy=         0.098407
 Sum of electronic and zero-point Energies=           -287.697972
 Sum of electronic and thermal Energies=              -287.690107
 Sum of electronic and thermal Enthalpies=            -287.689163
 Sum of electronic and thermal Free Energies=         -287.729083

                     E (Thermal)             CV                S
                      KCal/Mol        Cal/Mol-Kelvin    Cal/Mol-Kelvin
 Total                   86.209             27.891             84.019
 Electronic               0.000              0.000              0.000
 Translational            0.889              2.981             39.305
 Rotational               0.889              2.981             26.783
 Vibrational             84.432             21.930             17.930
 Vibration     1          0.613              1.921              2.911
 Vibration     2          0.618              1.902              2.661
 Vibration     3          0.619              1.899              2.632
 Vibration     4          0.663              1.761              1.723
 Vibration     5          0.680              1.711              1.535
 Vibration     6          0.694              1.669              1.402
 Vibration     7          0.725              1.580              1.177
 Vibration     8          0.755              1.498              1.012
 Vibration     9          0.845              1.275              0.686
 Vibration    10          0.891              1.170              0.574
 Vibration    11          0.974              1.000              0.425

 Normal termination of Gaussian 09 at Tue Aug 30 10:42:57 2022.

 -----------------------------------------------------------------
 #P Geom=AllCheck Guess=TCheck SCRF=Check CCSD(T,E4T,FrzG4)/GTBas1
 -----------------------------------------------------------------

 Structure from the checkpoint file:  "G4.Frag_439.chk"
 --------
 Frag_439
 --------
 Charge =  0 Multiplicity = 1

 SCF Done:  E(RHF) =  -285.991726398     A.U. after   12 cycles
 E2 =    -0.8614041316D+00 EUMP2 =    -0.28685313052951D+03
 CCSD(T)
 CCSD(T)= -0.28693329937D+03
 86.9055531\CCSD(T)=-286.9332994\RMSD=6.777e-09\PG=C01 [X(C4H9N1O1)]\\@
 Normal termination of Gaussian 09 at Tue Aug 30 10:44:57 2022.

 ---------------------------------------------------------
 #P Geom=AllCheck Guess=TCheck SCRF=Check MP4=FrzG4/GTBas2
 ---------------------------------------------------------

 Structure from the checkpoint file:  "G4.Frag_439.chk"
 --------
 Frag_439
 --------
 Charge =  0 Multiplicity = 1

 SCF Done:  E(RHF) =  -286.000519867     A.U. after   12 cycles
 E2 =    -0.8741487756D+00 EUMP2 =    -0.28687466864219D+03
 Normal termination of Gaussian 09 at Tue Aug 30 10:45:36 2022.

 ---------------------------------------------------------
 #P Geom=AllCheck Guess=TCheck SCRF=Check MP4=FrzG4/GTBas3
 ---------------------------------------------------------

 Structure from the checkpoint file:  "G4.Frag_439.chk"
 --------
 Frag_439
 --------
 Charge =  0 Multiplicity = 1

 SCF Done:  E(RHF) =  -286.034238111     A.U. after   11 cycles
 E2 =    -0.1062785702D+01 EUMP2 =    -0.28709702381355D+03
 Normal termination of Gaussian 09 at Tue Aug 30 10:49:23 2022.

 -----------------------------------------------------------
 #P Geom=AllCheck Guess=TCheck SCRF=Check MP2=Full/GTLargeXP
 -----------------------------------------------------------

 Structure from the checkpoint file:  "G4.Frag_439.chk"
 --------
 Frag_439
 --------
 Charge =  0 Multiplicity = 1

 SCF Done:  E(RHF) =  -286.106256304     A.U. after   12 cycles
 E2 =    -0.1395846465D+01 EUMP2 =    -0.28750210276870D+03
 Normal termination of Gaussian 09 at Tue Aug 30 10:51:43 2022.
 SCF Done:  E(RHF) =  -286.129533979     A.U. after    9 cycles
 Normal termination of Gaussian 09 at Tue Aug 30 10:53:57 2022.

                         Standard orientation:
 ---------------------------------------------------------------------
 Center     Atomic      Atomic             Coordinates (Angstroms)
 Number     Number       Type             X           Y           Z
 ---------------------------------------------------------------------
      1          6           0       -1.354432    1.363658   -0.083624
      2          6           0       -0.647936    0.035532   -0.003275
      3          6           0       -1.528270   -1.183979    0.087781
      4          6           0        0.693585   -0.040100   -0.006717
      5          7           0        1.570330    1.051913   -0.008758
      6          8           0        1.417355   -1.204702   -0.044230
      7          1           0       -0.684899    2.165128   -0.407566
      8          1           0       -1.802364    1.663445    0.875800
      9          1           0       -2.179739    1.321517   -0.807210
     10          1           0       -2.048388   -1.402002   -0.856535
     11          1           0       -2.312352   -1.040625    0.843648
     12          1           0       -0.986849   -2.089873    0.383950
     13          1           0        2.528486    0.751165    0.103475
     14          1           0        1.335063    1.767845    0.663147
     15          1           0        0.842213   -1.913040   -0.348563
 ---------------------------------------------------------------------

 SCF Done:  E(RHF) =  -286.134455117     A.U. after    8 cycles

 The electronic state is 1-A.
 Alpha  occ. eigenvalues --  -20.58343 -15.55789 -11.31675 -11.22186 -11.21337
 Alpha  occ. eigenvalues --  -11.20456  -1.40709  -1.19687  -1.06331  -0.93398
 Alpha  occ. eigenvalues --   -0.89771  -0.78988  -0.68504  -0.65631  -0.64519
 Alpha  occ. eigenvalues --   -0.59809  -0.57920  -0.55805  -0.53946  -0.53285
 Alpha  occ. eigenvalues --   -0.51189  -0.48827  -0.45882  -0.29373
 Alpha virt. eigenvalues --    0.03954   0.04193   0.04487   0.05238   0.06553
 Alpha virt. eigenvalues --    0.07140   0.07806   0.07826   0.08273   0.09736
 Alpha virt. eigenvalues --    0.11274   0.11382   0.11824   0.12395   0.13166

 Mulliken charges:
               1
     1  C   -0.554147
     2  C    0.034390
     3  C   -0.552192
     4  C    0.353395
     5  N   -0.741911
     6  O   -0.578298
     7  H    0.180390
     8  H    0.163161
     9  H    0.163338
    10  H    0.170594
    11  H    0.172450
    12  H    0.153739
    13  H    0.329537
    14  H    0.319168
    15  H    0.386386
 Sum of Mulliken charges =  -0.00000

 Dipole moment (field-independent basis, Debye):
    X=             -0.3596    Y=             -0.2142    Z=              0.6682  Tot=              0.7885
 Quadrupole moment (field-independent basis, Debye-Ang):
   XX=            -37.6300   YY=            -34.8051   ZZ=            -39.5687
   XY=              2.0970   XZ=              1.5387   YZ=              3.3654

 Normal termination of Gaussian 09 at Tue Aug 30 11:01:43 2022.
