 Gaussian 09, Revision E.01,
 Gaussian 09:  ES64L-G09RevE.01 30-Nov-2015

 -----
 #P G4
 -----

 ---------
 Frag_1093
 ---------
 Symbolic Z-matrix:
 Charge =  0 Multiplicity = 1

 SCF Done:  E(RB3LYP) =  -268.322126262     A.U. after   12 cycles
 SCF Done:  E(RB3LYP) =  -268.349714504     A.U. after   12 cycles
 SCF Done:  E(RB3LYP) =  -268.359084730     A.U. after   12 cycles
 SCF Done:  E(RB3LYP) =  -268.359983528     A.U. after   11 cycles
 SCF Done:  E(RB3LYP) =  -268.360123092     A.U. after    9 cycles
 SCF Done:  E(RB3LYP) =  -268.361141774     A.U. after   13 cycles
 SCF Done:  E(RB3LYP) =  -268.362213261     A.U. after   10 cycles
 SCF Done:  E(RB3LYP) =  -268.363387303     A.U. after   11 cycles
 SCF Done:  E(RB3LYP) =  -268.363349687     A.U. after   11 cycles
 SCF Done:  E(RB3LYP) =  -268.363505537     A.U. after   10 cycles
 SCF Done:  E(RB3LYP) =  -268.363512092     A.U. after    8 cycles
 SCF Done:  E(RB3LYP) =  -268.363512629     A.U. after    8 cycles
 SCF Done:  E(RB3LYP) =  -268.363512689     A.U. after    7 cycles
 Optimization completed.
    -- Stationary point found.
 Normal termination of Gaussian 09 at Tue Aug 30 09:25:41 2022.

 ----------------------------------------------------------
 #P Geom=AllCheck Guess=TCheck SCRF=Check B3LYP/GTBas3 Freq
 ----------------------------------------------------------

 Structure from the checkpoint file:  "G4.Frag_1093.chk"
 ---------
 Frag_1093
 ---------
 Charge =  0 Multiplicity = 1

 SCF Done:  E(RB3LYP) =  -268.363512689     A.U. after    1 cycles

  Exact polarizability:  56.676  -6.115  41.616  -0.456   0.341  27.005
 Approx polarizability:  85.475  -8.571  55.985  -0.485   0.462  39.685

                      1                      2                      3
                      A                      A                      A
 Frequencies --    165.5059               197.8622               240.0734
 Red. masses --      1.1216                 1.0750                 1.4164
 Frc consts  --      0.0181                 0.0248                 0.0481
 IR Inten    --     86.5772                 1.2936               134.5473

                      4                      5                      6
                      A                      A                      A
 Frequencies --    267.2046               327.4864               420.4503
 Red. masses --      3.1118                 2.2316                 3.1101
 Frc consts  --      0.1309                 0.1410                 0.3239
 IR Inten    --     16.7752                23.5646                 3.6971

                      7                      8                      9
                      A                      A                      A
 Frequencies --    465.3578               593.2565               836.9267
 Red. masses --      2.3923                 6.2240                 3.7979
 Frc consts  --      0.3052                 1.2906                 1.5674
 IR Inten    --      8.4343                 2.2837                11.9097

                     10                     11                     12
                      A                      A                      A
 Frequencies --    848.6214              1019.8791              1065.1412
 Red. masses --      1.4060                 1.5216                 1.4490
 Frc consts  --      0.5966                 0.9325                 0.9686
 IR Inten    --     23.0323                 2.1667                 2.1896

                     13                     14                     15
                      A                      A                      A
 Frequencies --   1138.3455              1200.9628              1258.2548
 Red. masses --      2.9674                 1.5408                 1.2958
 Frc consts  --      2.2656                 1.3093                 1.2088
 IR Inten    --    237.2450               210.1392                11.3132

                     16                     17                     18
                      A                      A                      A
 Frequencies --   1321.1598              1388.3560              1425.4494
 Red. masses --      2.1844                 1.2428                 1.6221
 Frc consts  --      2.2464                 1.4114                 1.9419
 IR Inten    --      5.6107                 9.2154                29.9395

                     19                     20                     21
                      A                      A                      A
 Frequencies --   1483.3995              1488.6370              1799.9600
 Red. masses --      1.0503                 1.0524                 5.8685
 Frc consts  --      1.3617                 1.3741                11.2022
 IR Inten    --      5.7961                 6.7485                 2.1653

                     22                     23                     24
                      A                      A                      A
 Frequencies --   3005.1647              3056.3454              3146.1978
 Red. masses --      1.0454                 1.0944                 1.0946
 Frc consts  --      5.5625                 6.0233                 6.3840
 IR Inten    --     41.2638                23.9177                 4.7194

                     25                     26                     27
                      A                      A                      A
 Frequencies --   3162.2626              3826.3423              3832.2992
 Red. masses --      1.0910                 1.0661                 1.0665
 Frc consts  --      6.4277                 9.1966                 9.2283
 IR Inten    --     17.4396                42.6299                47.5950

 - Thermochemistry -
 -------------------
 Temperature   298.150 Kelvin.  Pressure   1.00000 Atm.
 Atom     1 has atomic number  6 and mass  12.00000

 Molecular mass:    74.03678 amu.
 Principal axes and moments of inertia in atomic units:
                           1         2         3
     Eigenvalues --   201.78025 465.46937 652.91255
           X            0.99764  -0.06854  -0.00396
           Y            0.06856   0.99763   0.00509
           Z            0.00360  -0.00535   0.99998
 This molecule is an asymmetric top.
 Rotational symmetry number  1.
 Rotational temperatures (Kelvin)      0.42925     0.18608     0.13266
 Rotational constants (GHZ):           8.94409     3.87725     2.76414
 Zero-point vibrational energy     233157.6 (Joules/Mol)
                                   55.72600 (Kcal/Mol)
 Warning -- explicit consideration of   8 degrees of freedom as
           vibrations may cause significant error
 Vibrational temperatures:    238.13   284.68   345.41   384.45   471.18
          (Kelvin)            604.93   669.55   853.56  1204.15  1220.98
                             1467.38  1532.50  1637.82  1727.92  1810.35
                             1900.85  1997.53  2050.90  2134.28  2141.81
                             2589.74  4323.76  4397.39  4526.67  4549.78
                             5505.25  5513.82

 Zero-point correction=                           0.088805 (Hartree/Particle)
 Thermal correction to Energy=                    0.095158
 Thermal correction to Enthalpy=                  0.096102
 Thermal correction to Gibbs Free Energy=         0.059709
 Sum of electronic and zero-point Energies=           -268.274708
 Sum of electronic and thermal Energies=              -268.268355
 Sum of electronic and thermal Enthalpies=            -268.267411
 Sum of electronic and thermal Free Energies=         -268.303804

                     E (Thermal)             CV                S
                      KCal/Mol        Cal/Mol-Kelvin    Cal/Mol-Kelvin
 Total                   59.713             21.605             76.596
 Electronic               0.000              0.000              0.000
 Translational            0.889              2.981             38.822
 Rotational               0.889              2.981             25.620
 Vibrational             57.935             15.644             12.154
 Vibration     1          0.624              1.885              2.486
 Vibration     2          0.637              1.843              2.153
 Vibration     3          0.657              1.779              1.802
 Vibration     4          0.672              1.733              1.614
 Vibration     5          0.711              1.621              1.272
 Vibration     6          0.783              1.426              0.890
 Vibration     7          0.823              1.327              0.751
 Vibration     8          0.951              1.046              0.461

 Optimization completed.
    -- Stationary point found.
 Normal termination of Gaussian 09 at Tue Aug 30 09:26:53 2022.

 -----------------------------------------------------------------
 #P Geom=AllCheck Guess=TCheck SCRF=Check CCSD(T,E4T,FrzG4)/GTBas1
 -----------------------------------------------------------------

 Structure from the checkpoint file:  "G4.Frag_1093.chk"
 ---------
 Frag_1093
 ---------
 Charge =  0 Multiplicity = 1

 SCF Done:  E(RHF) =  -266.771869523     A.U. after   12 cycles
 E2 =    -0.7414224464D+00 EUMP2 =    -0.26751329196930D+03
 CCSD(T)
 CCSD(T)= -0.26757380777D+03
 611\MP4SDQ=-267.5513343\CCSD=-267.5514177\CCSD(T)=-267.5738078\RMSD=7.
 Normal termination of Gaussian 09 at Tue Aug 30 09:28:35 2022.

 ---------------------------------------------------------
 #P Geom=AllCheck Guess=TCheck SCRF=Check MP4=FrzG4/GTBas2
 ---------------------------------------------------------

 Structure from the checkpoint file:  "G4.Frag_1093.chk"
 ---------
 Frag_1093
 ---------
 Charge =  0 Multiplicity = 1

 SCF Done:  E(RHF) =  -266.781913670     A.U. after   12 cycles
 E2 =    -0.7538031829D+00 EUMP2 =    -0.26753571685297D+03
 Normal termination of Gaussian 09 at Tue Aug 30 09:30:31 2022.

 ---------------------------------------------------------
 #P Geom=AllCheck Guess=TCheck SCRF=Check MP4=FrzG4/GTBas3
 ---------------------------------------------------------

 Structure from the checkpoint file:  "G4.Frag_1093.chk"
 ---------
 Frag_1093
 ---------
 Charge =  0 Multiplicity = 1

 SCF Done:  E(RHF) =  -266.811243647     A.U. after   11 cycles
 E2 =    -0.9159056839D+00 EUMP2 =    -0.26772714933050D+03
 Normal termination of Gaussian 09 at Tue Aug 30 10:05:51 2022.

 -----------------------------------------------------------
 #P Geom=AllCheck Guess=TCheck SCRF=Check MP2=Full/GTLargeXP
 -----------------------------------------------------------

 Structure from the checkpoint file:  "G4.Frag_1093.chk"
 ---------
 Frag_1093
 ---------
 Charge =  0 Multiplicity = 1

 SCF Done:  E(RHF) =  -266.885295482     A.U. after   12 cycles
 E2 =    -0.1202092815D+01 EUMP2 =    -0.26808738829683D+03
 Normal termination of Gaussian 09 at Tue Aug 30 10:08:14 2022.
 SCF Done:  E(RHF) =  -266.907701765     A.U. after    9 cycles
 Normal termination of Gaussian 09 at Tue Aug 30 10:11:11 2022.

                         Standard orientation:
 ---------------------------------------------------------------------
 Center     Atomic      Atomic             Coordinates (Angstroms)
 Number     Number       Type             X           Y           Z
 ---------------------------------------------------------------------
      1          6           0       -0.716905    1.366867   -0.007084
      2          6           0       -0.430628   -0.101429   -0.016789
      3          8           0       -1.512036   -0.954825    0.056486
      4          6           0        0.789214   -0.639430   -0.028524
      5          8           0        1.921766    0.140125    0.080233
      6          1           0       -1.215751    1.668886    0.922251
      7          1           0       -1.381638    1.642708   -0.838439
      8          1           0        0.208755    1.935053   -0.105600
      9          1           0       -2.282695   -0.494965   -0.289874
     10          1           0        0.920086   -1.718307   -0.035870
     11          1           0        2.623316   -0.271823   -0.431843
 ---------------------------------------------------------------------

 SCF Done:  E(RHF) =  -266.912496535     A.U. after    8 cycles

 The electronic state is 1-A.
 Alpha  occ. eigenvalues --  -20.57570 -20.57444 -11.28184 -11.26590 -11.22839
 Alpha  occ. eigenvalues --   -1.39295  -1.37994  -1.04222  -0.94352  -0.77624
 Alpha  occ. eigenvalues --   -0.71658  -0.67060  -0.65630  -0.60061  -0.57844
 Alpha  occ. eigenvalues --   -0.54844  -0.53935  -0.52161  -0.49179  -0.31685
 Alpha virt. eigenvalues --    0.03907   0.04011   0.05199   0.06013   0.06982
 Alpha virt. eigenvalues --    0.07339   0.08027   0.09165   0.09634   0.10358
 Alpha virt. eigenvalues --    0.14267   0.15162   0.15264   0.16006   0.16321

 Mulliken charges:
               1
     1  C   -0.520712
     2  C    0.176981
     3  O   -0.553535
     4  C   -0.051674
     5  O   -0.556462
     6  H    0.186906
     7  H    0.164873
     8  H    0.213169
     9  H    0.371159
    10  H    0.193436
    11  H    0.375858
 Sum of Mulliken charges =  -0.00000

 Dipole moment (field-independent basis, Debye):
    X=             -0.2060    Y=              0.5479    Z=             -1.4209  Tot=              1.5368
 Quadrupole moment (field-independent basis, Debye-Ang):
   XX=            -23.5573   YY=            -31.0677   ZZ=            -31.7112
   XY=             -5.3571   XZ=             -1.1645   YZ=              0.6276

 Normal termination of Gaussian 09 at Tue Aug 30 11:30:58 2022.
