 Gaussian 09, Revision E.01,
 Gaussian 09:  ES64L-G09RevE.01 30-Nov-2015

 -----
 #P G4
 -----

 --------
 Frag_986
 --------
 Symbolic Z-matrix:
 Charge =  0 Multiplicity = 1

 SCF Done:  E(RB3LYP) =  -211.304603189     A.U. after   13 cycles
 SCF Done:  E(RB3LYP) =  -211.316018446     A.U. after   12 cycles
 SCF Done:  E(RB3LYP) =  -211.315772540     A.U. after   12 cycles
 SCF Done:  E(RB3LYP) =  -211.316337877     A.U. after    9 cycles
 SCF Done:  E(RB3LYP) =  -211.316221562     A.U. after   12 cycles
 SCF Done:  E(RB3LYP) =  -211.316537652     A.U. after    9 cycles
 SCF Done:  E(RB3LYP) =  -211.316624777     A.U. after   12 cycles
 SCF Done:  E(RB3LYP) =  -211.317096013     A.U. after   11 cycles
 SCF Done:  E(RB3LYP) =  -211.317529371     A.U. after   11 cycles
 SCF Done:  E(RB3LYP) =  -211.317593042     A.U. after   11 cycles
 SCF Done:  E(RB3LYP) =  -211.317627447     A.U. after    9 cycles
 SCF Done:  E(RB3LYP) =  -211.317629359     A.U. after    8 cycles
 SCF Done:  E(RB3LYP) =  -211.317629702     A.U. after    7 cycles
 Optimization completed.
    -- Stationary point found.
 Normal termination of Gaussian 09 at Tue Aug 30 12:36:08 2022.

 ----------------------------------------------------------
 #P Geom=AllCheck Guess=TCheck SCRF=Check B3LYP/GTBas3 Freq
 ----------------------------------------------------------

 Structure from the checkpoint file:  "G4.Frag_986.chk"
 --------
 Frag_986
 --------
 Charge =  0 Multiplicity = 1

 SCF Done:  E(RB3LYP) =  -211.317629702     A.U. after    1 cycles

  Exact polarizability:  70.160  -0.000  42.213   0.962  -0.001  34.472
 Approx polarizability: 107.141  -0.001  54.330   4.781  -0.002  49.979

                      1                      2                      3
                      A                      A                      A
 Frequencies --    159.1474               189.2746               208.0603
 Red. masses --      1.6199                 1.6170                 1.5023
 Frc consts  --      0.0242                 0.0341                 0.0383
 IR Inten    --      2.7039                 0.0045                 0.4030

                      4                      5                      6
                      A                      A                      A
 Frequencies --    221.7073               349.7615               379.2659
 Red. masses --      1.5886                 1.6246                 2.0391
 Frc consts  --      0.0460                 0.1171                 0.1728
 IR Inten    --      4.8862                59.7032                 7.4418

                      7                      8                      9
                      A                      A                      A
 Frequencies --    525.7506               606.5570               695.2038
 Red. masses --      3.0698                 4.7288                 1.2569
 Frc consts  --      0.4999                 1.0250                 0.3579
 IR Inten    --      3.3894                12.3476                31.5010

                     10                     11                     12
                      A                      A                      A
 Frequencies --    785.9863              1070.7759              1074.1293
 Red. masses --      4.5515                 1.6230                 1.9398
 Frc consts  --      1.6566                 1.0964                 1.3186
 IR Inten    --      6.0707                14.7260                48.9032

                     13                     14                     15
                      A                      A                      A
 Frequencies --   1121.7973              1172.4816              1243.2181
 Red. masses --      1.2350                 1.3866                 3.6292
 Frc consts  --      0.9157                 1.1230                 3.3049
 IR Inten    --      5.3286                11.7101                16.8134

                     16                     17                     18
                      A                      A                      A
 Frequencies --   1349.7131              1443.4058              1466.5573
 Red. masses --      2.9685                 1.1392                 1.1504
 Frc consts  --      3.1862                 1.3984                 1.4578
 IR Inten    --     26.4415                 0.5416                 4.4525

                     19                     20                     21
                      A                      A                      A
 Frequencies --   1480.2151              1492.9864              1498.3672
 Red. masses --      1.0454                 1.0630                 1.0464
 Frc consts  --      1.3496                 1.3961                 1.3842
 IR Inten    --      7.2985                23.7362                 6.8421

                     22                     23                     24
                      A                      A                      A
 Frequencies --   1517.6399              2250.6792              2980.1727
 Red. masses --      1.0733                 6.3239                 1.0509
 Frc consts  --      1.4565                18.8740                 5.4991
 IR Inten    --      4.0795               137.5532                41.5846

                     25                     26                     27
                      A                      A                      A
 Frequencies --   2984.9333              3074.7905              3075.1747
 Red. masses --      1.0536                 1.0853                 1.0825
 Frc consts  --      5.5306                 6.0454                 6.0313
 IR Inten    --    102.9955                 4.3771                54.7999

                     28                     29                     30
                      A                      A                      A
 Frequencies --   3134.6780              3136.3117              3518.3918
 Red. masses --      1.1002                 1.1012                 1.1547
 Frc consts  --      6.3694                 6.3822                 8.4217
 IR Inten    --     10.3937                15.7179                98.6145

 - Thermochemistry -
 -------------------
 Temperature   298.150 Kelvin.  Pressure   1.00000 Atm.
 Atom     1 has atomic number  6 and mass  12.00000

 Molecular mass:    69.05785 amu.
 Principal axes and moments of inertia in atomic units:
                           1         2         3
     Eigenvalues --   201.47796 441.34151 611.48329
           X            1.00000   0.00001  -0.00277
           Y           -0.00001   1.00000  -0.00001
           Z            0.00277   0.00001   1.00000
 This molecule is an asymmetric top.
 Rotational symmetry number  1.
 Rotational temperatures (Kelvin)      0.42989     0.19625     0.14165
 Rotational constants (GHZ):           8.95751     4.08922     2.95142
 Zero-point vibrational energy     264417.4 (Joules/Mol)
                                   63.19727 (Kcal/Mol)
 Warning -- explicit consideration of   8 degrees of freedom as
           vibrations may cause significant error
 Vibrational temperatures:    228.98   272.32   299.35   318.99   503.23
          (Kelvin)            545.68   756.44   872.70  1000.24  1130.86
                             1540.61  1545.43  1614.01  1686.94  1788.71
                             1941.93  2076.74  2110.05  2129.70  2148.07
                             2155.81  2183.54  3238.22  4287.80  4294.65
                             4423.93  4424.49  4510.10  4512.45  5062.17

 Zero-point correction=                           0.100711 (Hartree/Particle)
 Thermal correction to Energy=                    0.107228
 Thermal correction to Enthalpy=                  0.108172
 Thermal correction to Gibbs Free Energy=         0.071555
 Sum of electronic and zero-point Energies=           -211.216918
 Sum of electronic and thermal Energies=              -211.210402
 Sum of electronic and thermal Enthalpies=            -211.209457
 Sum of electronic and thermal Free Energies=         -211.246075

                     E (Thermal)             CV                S
                      KCal/Mol        Cal/Mol-Kelvin    Cal/Mol-Kelvin
 Total                   67.287             22.040             77.067
 Electronic               0.000              0.000              0.000
 Translational            0.889              2.981             38.614
 Rotational               0.889              2.981             25.500
 Vibrational             65.509             16.079             12.952
 Vibration     1          0.621              1.892              2.560
 Vibration     2          0.633              1.855              2.235
 Vibration     3          0.641              1.828              2.061
 Vibration     4          0.648              1.808              1.945
 Vibration     5          0.727              1.576              1.167
 Vibration     6          0.749              1.514              1.042
 Vibration     7          0.881              1.193              0.597
 Vibration     8          0.965              1.018              0.439

 Optimization completed.
    -- Stationary point found.
 Normal termination of Gaussian 09 at Tue Aug 30 12:36:29 2022.

 -----------------------------------------------------------------
 #P Geom=AllCheck Guess=TCheck SCRF=Check CCSD(T,E4T,FrzG4)/GTBas1
 -----------------------------------------------------------------

 Structure from the checkpoint file:  "G4.Frag_986.chk"
 --------
 Frag_986
 --------
 Charge =  0 Multiplicity = 1

 SCF Done:  E(RHF) =  -209.902147874     A.U. after   13 cycles
 E2 =    -0.6704495165D+00 EUMP2 =    -0.21057259739032D+03
 CCSD(T)
 CCSD(T)= -0.21064082570D+03
 -210.6154719\CCSD(T)=-210.6408257\RMSD=4.653e-09\PG=C01 [X(C4H7N1)]\\@
 Normal termination of Gaussian 09 at Tue Aug 30 12:37:19 2022.

 ---------------------------------------------------------
 #P Geom=AllCheck Guess=TCheck SCRF=Check MP4=FrzG4/GTBas2
 ---------------------------------------------------------

 Structure from the checkpoint file:  "G4.Frag_986.chk"
 --------
 Frag_986
 --------
 Charge =  0 Multiplicity = 1

 SCF Done:  E(RHF) =  -209.909480897     A.U. after   13 cycles
 E2 =    -0.6775538128D+00 EUMP2 =    -0.21058703470989D+03
 Normal termination of Gaussian 09 at Tue Aug 30 12:37:34 2022.

 ---------------------------------------------------------
 #P Geom=AllCheck Guess=TCheck SCRF=Check MP4=FrzG4/GTBas3
 ---------------------------------------------------------

 Structure from the checkpoint file:  "G4.Frag_986.chk"
 --------
 Frag_986
 --------
 Charge =  0 Multiplicity = 1

 SCF Done:  E(RHF) =  -209.929300708     A.U. after   11 cycles
 E2 =    -0.8177162378D+00 EUMP2 =    -0.21074701694568D+03
 Normal termination of Gaussian 09 at Tue Aug 30 12:38:49 2022.

 -----------------------------------------------------------
 #P Geom=AllCheck Guess=TCheck SCRF=Check MP2=Full/GTLargeXP
 -----------------------------------------------------------

 Structure from the checkpoint file:  "G4.Frag_986.chk"
 --------
 Frag_986
 --------
 Charge =  0 Multiplicity = 1

 SCF Done:  E(RHF) =  -209.978377115     A.U. after   12 cycles
 E2 =    -0.1080379216D+01 EUMP2 =    -0.21105875633124D+03
 Normal termination of Gaussian 09 at Tue Aug 30 12:39:38 2022.
 SCF Done:  E(RHF) =  -209.994508667     A.U. after   10 cycles
 Normal termination of Gaussian 09 at Tue Aug 30 12:40:46 2022.

                         Standard orientation:
 ---------------------------------------------------------------------
 Center     Atomic      Atomic             Coordinates (Angstroms)
 Number     Number       Type             X           Y           Z
 ---------------------------------------------------------------------
      1          6           0        2.188831   -0.000064    0.071061
      2          6           0        0.991897   -0.000070   -0.072714
      3          7           0       -0.337618   -0.000041   -0.257414
      4          6           0       -1.046822    1.233624    0.067567
      5          6           0       -1.047038   -1.233479    0.067504
      6          1           0        3.245665   -0.000012    0.153992
      7          1           0       -2.029103    1.220297   -0.415168
      8          1           0       -0.480346    2.085312   -0.312824
      9          1           0       -1.192006    1.363329    1.151570
     10          1           0       -0.480160   -2.085375   -0.311833
     11          1           0       -2.028991   -1.220406   -0.415844
     12          1           0       -1.192940   -1.362917    1.151496
 ---------------------------------------------------------------------

 SCF Done:  E(RHF) =  -209.997764763     A.U. after    8 cycles

 The electronic state is 1-A.
 Alpha  occ. eigenvalues --  -15.58678 -11.26262 -11.26260 -11.25472 -11.20560
 Alpha  occ. eigenvalues --   -1.26317  -1.01110  -0.97255  -0.89976  -0.72247
 Alpha  occ. eigenvalues --   -0.67673  -0.64628  -0.63540  -0.56114  -0.56017
 Alpha  occ. eigenvalues --   -0.53404  -0.46454  -0.38403  -0.32399
 Alpha virt. eigenvalues --    0.03844   0.04172   0.04256   0.05233   0.06410
 Alpha virt. eigenvalues --    0.06861   0.07477   0.07823   0.08141   0.09803
 Alpha virt. eigenvalues --    0.10126   0.10792   0.12570   0.14911   0.14913

 Mulliken charges:
               1
     1  C   -0.378134
     2  C   -0.018124
     3  N    0.014763
     4  C   -0.474796
     5  C   -0.474740
     6  H    0.252324
     7  H    0.177582
     8  H    0.200233
     9  H    0.161573
    10  H    0.200225
    11  H    0.177589
    12  H    0.161504
 Sum of Mulliken charges =  -0.00000

 Dipole moment (field-independent basis, Debye):
    X=             -1.6500    Y=              0.0003    Z=              0.4082  Tot=              1.6997
 Quadrupole moment (field-independent basis, Debye-Ang):
   XX=            -27.8229   YY=            -30.2294   ZZ=            -33.9854
   XY=             -0.0002   XZ=              0.2416   YZ=             -0.0005

 Normal termination of Gaussian 09 at Tue Aug 30 12:47:15 2022.
