 Gaussian 09, Revision E.01,
 Gaussian 09:  ES64L-G09RevE.01 30-Nov-2015

 -----
 #P G4
 -----

 --------
 Frag_474
 --------
 Symbolic Z-matrix:
 Charge =  0 Multiplicity = 1

 SCF Done:  E(RB3LYP) =  -248.460261098     A.U. after   14 cycles
 SCF Done:  E(RB3LYP) =  -248.487168401     A.U. after   12 cycles
 SCF Done:  E(RB3LYP) =  -248.493993926     A.U. after   13 cycles
 SCF Done:  E(RB3LYP) =  -248.494749044     A.U. after   10 cycles
 SCF Done:  E(RB3LYP) =  -248.494927024     A.U. after    9 cycles
 SCF Done:  E(RB3LYP) =  -248.495067884     A.U. after   10 cycles
 SCF Done:  E(RB3LYP) =  -248.495138317     A.U. after   10 cycles
 SCF Done:  E(RB3LYP) =  -248.495117541     A.U. after   13 cycles
 SCF Done:  E(RB3LYP) =  -248.495519163     A.U. after   10 cycles
 SCF Done:  E(RB3LYP) =  -248.496024416     A.U. after   11 cycles
 SCF Done:  E(RB3LYP) =  -248.498142744     A.U. after    9 cycles
 SCF Done:  E(RB3LYP) =  -248.498145401     A.U. after    9 cycles
 SCF Done:  E(RB3LYP) =  -248.498145752     A.U. after    8 cycles
 Optimization completed.
    -- Stationary point found.
 Normal termination of Gaussian 09 at Tue Aug 30 09:27:19 2022.

 ----------------------------------------------------------
 #P Geom=AllCheck Guess=TCheck SCRF=Check B3LYP/GTBas3 Freq
 ----------------------------------------------------------

 Structure from the checkpoint file:  "G4.Frag_474.chk"
 --------
 Frag_474
 --------
 Charge =  0 Multiplicity = 1

 SCF Done:  E(RB3LYP) =  -248.498145752     A.U. after    1 cycles

  Exact polarizability:  63.911  -4.947  45.063  -0.069  -0.488  28.998
 Approx polarizability:  95.958  -7.887  61.797  -0.789  -0.156  42.946

                      1                      2                      3
                      A                      A                      A
 Frequencies --    152.0028               219.4227               258.9083
 Red. masses --      1.0883                 1.0735                 1.4028
 Frc consts  --      0.0148                 0.0305                 0.0554
 IR Inten    --      9.8481                84.4888                49.5017

                      4                      5                      6
                      A                      A                      A
 Frequencies --    284.0072               337.2421               423.5593
 Red. masses --      2.2270                 2.3754                 3.0775
 Frc consts  --      0.1058                 0.1592                 0.3253
 IR Inten    --     17.8360                14.9174                 1.1817

                      7                      8                      9
                      A                      A                      A
 Frequencies --    459.9316               572.2260               754.6050
 Red. masses --      2.3838                 3.5637                 1.4765
 Frc consts  --      0.2971                 0.6875                 0.4954
 IR Inten    --     19.2576                 6.0393               276.0195

                     10                     11                     12
                      A                      A                      A
 Frequencies --    815.6038               890.8739              1014.5197
 Red. masses --      3.2288                 1.3657                 1.5189
 Frc consts  --      1.2655                 0.6386                 0.9211
 IR Inten    --     28.9553                23.4121                 5.4976

                     13                     14                     15
                      A                      A                      A
 Frequencies --   1055.2945              1116.0254              1172.7247
 Red. masses --      1.4083                 1.4308                 2.5141
 Frc consts  --      0.9240                 1.0500                 2.0372
 IR Inten    --      2.4246                 7.5410               212.4113

                     16                     17                     18
                      A                      A                      A
 Frequencies --   1274.7785              1293.5516              1391.5356
 Red. masses --      1.4041                 2.4519                 1.2906
 Frc consts  --      1.3444                 2.4173                 1.4724
 IR Inten    --     12.6222                31.7228                12.2566

                     19                     20                     21
                      A                      A                      A
 Frequencies --   1423.6966              1474.9634              1489.0250
 Red. masses --      1.4725                 1.0454                 1.0650
 Frc consts  --      1.7585                 1.3399                 1.3913
 IR Inten    --     15.4159                 6.2754                 3.0506

                     22                     23                     24
                      A                      A                      A
 Frequencies --   1650.3913              1786.9329              2998.2803
 Red. masses --      1.1151                 5.9849                 1.0460
 Frc consts  --      1.7895                11.2597                 5.5405
 IR Inten    --     28.5258                 8.3307                46.7352

                     25                     26                     27
                      A                      A                      A
 Frequencies --   3050.1052              3105.6200              3181.3474
 Red. masses --      1.0920                 1.0958                 1.0891
 Frc consts  --      5.9858                 6.2269                 6.4946
 IR Inten    --     24.9326                26.2698                 9.4745

                     28                     29                     30
                      A                      A                      A
 Frequencies --   3520.9008              3614.5431              3797.2816
 Red. masses --      1.0482                 1.0943                 1.0659
 Frc consts  --      7.6557                 8.4236                 9.0553
 IR Inten    --      1.8087                 2.0888                18.1684

 - Thermochemistry -
 -------------------
 Temperature   298.150 Kelvin.  Pressure   1.00000 Atm.
 Atom     1 has atomic number  6 and mass  12.00000

 Molecular mass:    73.05276 amu.
 Principal axes and moments of inertia in atomic units:
                           1         2         3
     Eigenvalues --   207.07234 479.72348 670.31517
           X            0.99912  -0.04168   0.00410
           Y            0.04172   0.99910  -0.00790
           Z           -0.00376   0.00806   0.99996
 This molecule is an asymmetric top.
 Rotational symmetry number  1.
 Rotational temperatures (Kelvin)      0.41828     0.18055     0.12921
 Rotational constants (GHZ):           8.71551     3.76204     2.69238
 Zero-point vibrational energy     266647.0 (Joules/Mol)
                                   63.73017 (Kcal/Mol)
 Warning -- explicit consideration of   8 degrees of freedom as
           vibrations may cause significant error
 Vibrational temperatures:    218.70   315.70   372.51   408.62   485.22
          (Kelvin)            609.41   661.74   823.30  1085.71  1173.47
                             1281.77  1459.67  1518.33  1605.71  1687.29
                             1834.12  1861.13  2002.11  2048.38  2122.14
                             2142.37  2374.54  2570.99  4313.85  4388.42
                             4468.29  4577.24  5065.78  5200.51  5463.43

 Zero-point correction=                           0.101560 (Hartree/Particle)
 Thermal correction to Energy=                    0.107955
 Thermal correction to Enthalpy=                  0.108899
 Thermal correction to Gibbs Free Energy=         0.072490
 Sum of electronic and zero-point Energies=           -248.396585
 Sum of electronic and thermal Energies=              -248.390191
 Sum of electronic and thermal Enthalpies=            -248.389247
 Sum of electronic and thermal Free Energies=         -248.425655

                     E (Thermal)             CV                S
                      KCal/Mol        Cal/Mol-Kelvin    Cal/Mol-Kelvin
 Total                   67.743             22.363             76.628
 Electronic               0.000              0.000              0.000
 Translational            0.889              2.981             38.782
 Rotational               0.889              2.981             25.702
 Vibrational             65.965             16.401             12.144
 Vibration     1          0.619              1.900              2.647
 Vibration     2          0.647              1.811              1.964
 Vibration     3          0.668              1.748              1.669
 Vibration     4          0.682              1.703              1.509
 Vibration     5          0.718              1.601              1.225
 Vibration     6          0.786              1.419              0.880
 Vibration     7          0.818              1.339              0.766
 Vibration     8          0.928              1.091              0.500

 Optimization completed.
    -- Stationary point found.
 Normal termination of Gaussian 09 at Tue Aug 30 09:27:40 2022.

 -----------------------------------------------------------------
 #P Geom=AllCheck Guess=TCheck SCRF=Check CCSD(T,E4T,FrzG4)/GTBas1
 -----------------------------------------------------------------

 Structure from the checkpoint file:  "G4.Frag_474.chk"
 --------
 Frag_474
 --------
 Charge =  0 Multiplicity = 1

 SCF Done:  E(RHF) =  -246.944868230     A.U. after   12 cycles
 E2 =    -0.7282481981D+00 EUMP2 =    -0.24767311642835D+03
 CCSD(T)
 CCSD(T)= -0.24773918828D+03
 SD=-247.7162642\CCSD(T)=-247.7391883\RMSD=7.262e-09\PG=C01 [X(C3H7N1O1
 Normal termination of Gaussian 09 at Tue Aug 30 09:28:34 2022.

 ---------------------------------------------------------
 #P Geom=AllCheck Guess=TCheck SCRF=Check MP4=FrzG4/GTBas2
 ---------------------------------------------------------

 Structure from the checkpoint file:  "G4.Frag_474.chk"
 --------
 Frag_474
 --------
 Charge =  0 Multiplicity = 1

 SCF Done:  E(RHF) =  -246.954366481     A.U. after   13 cycles
 E2 =    -0.7398769971D+00 EUMP2 =    -0.24769424347763D+03
 Normal termination of Gaussian 09 at Tue Aug 30 09:28:51 2022.

 ---------------------------------------------------------
 #P Geom=AllCheck Guess=TCheck SCRF=Check MP4=FrzG4/GTBas3
 ---------------------------------------------------------

 Structure from the checkpoint file:  "G4.Frag_474.chk"
 --------
 Frag_474
 --------
 Charge =  0 Multiplicity = 1

 SCF Done:  E(RHF) =  -246.982681969     A.U. after   11 cycles
 E2 =    -0.8960125510D+00 EUMP2 =    -0.24787869451967D+03
 Normal termination of Gaussian 09 at Tue Aug 30 09:30:14 2022.

 -----------------------------------------------------------
 #P Geom=AllCheck Guess=TCheck SCRF=Check MP2=Full/GTLargeXP
 -----------------------------------------------------------

 Structure from the checkpoint file:  "G4.Frag_474.chk"
 --------
 Frag_474
 --------
 Charge =  0 Multiplicity = 1

 SCF Done:  E(RHF) =  -247.048813947     A.U. after   12 cycles
 E2 =    -0.1176466215D+01 EUMP2 =    -0.24822528016190D+03
 Normal termination of Gaussian 09 at Tue Aug 30 09:31:05 2022.
 SCF Done:  E(RHF) =  -247.068977212     A.U. after    9 cycles
 Normal termination of Gaussian 09 at Tue Aug 30 09:32:09 2022.

                         Standard orientation:
 ---------------------------------------------------------------------
 Center     Atomic      Atomic             Coordinates (Angstroms)
 Number     Number       Type             X           Y           Z
 ---------------------------------------------------------------------
      1          6           0       -0.789742    1.358294    0.003793
      2          6           0       -0.438427   -0.098282    0.020336
      3          8           0       -1.512644   -0.971350   -0.078371
      4          6           0        0.788468   -0.628308    0.034061
      5          7           0        2.017813    0.045436   -0.108878
      6          1           0       -1.219899    1.662288   -0.958758
      7          1           0        0.074055    1.998429    0.202979
      8          1           0       -1.539537    1.586050    0.776002
      9          1           0       -2.243099   -0.611305    0.435872
     10          1           0        0.870992   -1.710720    0.052014
     11          1           0        1.946487    1.048102    0.009503
     12          1           0        2.725670   -0.310320    0.522361
 ---------------------------------------------------------------------

 SCF Done:  E(RHF) =  -247.073306402     A.U. after    8 cycles

 The electronic state is 1-A.
 Alpha  occ. eigenvalues --  -20.56598 -15.55617 -11.27133 -11.24488 -11.23329
 Alpha  occ. eigenvalues --   -1.37717  -1.19793  -1.02600  -0.93472  -0.76157
 Alpha  occ. eigenvalues --   -0.70645  -0.66579  -0.63561  -0.59677  -0.57427
 Alpha  occ. eigenvalues --   -0.54037  -0.53291  -0.48978  -0.47792  -0.29771
 Alpha virt. eigenvalues --    0.03617   0.04422   0.05096   0.05992   0.06469
 Alpha virt. eigenvalues --    0.07270   0.08238   0.09128   0.09647   0.10393
 Alpha virt. eigenvalues --    0.11735   0.12452   0.13862   0.15815   0.16031

 Mulliken charges:
               1
     1  C   -0.504519
     2  C    0.129719
     3  O   -0.554337
     4  C   -0.053090
     5  N   -0.692488
     6  H    0.190325
     7  H    0.159834
     8  H    0.157622
     9  H    0.363099
    10  H    0.210674
    11  H    0.292663
    12  H    0.300496
 Sum of Mulliken charges =  -0.00000

 Dipole moment (field-independent basis, Debye):
    X=             -0.0322    Y=              1.9186    Z=              1.9110  Tot=              2.7082
 Quadrupole moment (field-independent basis, Debye-Ang):
   XX=            -26.8373   YY=            -30.6725   ZZ=            -33.3765
   XY=             -1.8381   XZ=              1.1958   YZ=             -0.9629

 Normal termination of Gaussian 09 at Tue Aug 30 09:38:46 2022.
