 Gaussian 09, Revision E.01,
 Gaussian 09:  ES64L-G09RevE.01 30-Nov-2015

 -----
 #P G4
 -----

 --------
 Frag_776
 --------
 Symbolic Z-matrix:
 Charge =  0 Multiplicity = 1

 SCF Done:  E(RB3LYP) =  -226.359339160     A.U. after   13 cycles
 SCF Done:  E(RB3LYP) =  -226.365353757     A.U. after   11 cycles
 SCF Done:  E(RB3LYP) =  -226.366883088     A.U. after   11 cycles
 SCF Done:  E(RB3LYP) =  -226.367621195     A.U. after   12 cycles
 SCF Done:  E(RB3LYP) =  -226.367855498     A.U. after   11 cycles
 SCF Done:  E(RB3LYP) =  -226.367930391     A.U. after   10 cycles
 SCF Done:  E(RB3LYP) =  -226.367966330     A.U. after   10 cycles
 SCF Done:  E(RB3LYP) =  -226.367971818     A.U. after    8 cycles
 SCF Done:  E(RB3LYP) =  -226.367977733     A.U. after    8 cycles
 SCF Done:  E(RB3LYP) =  -226.367978073     A.U. after    7 cycles
 Optimization completed.
    -- Stationary point found.
 Normal termination of Gaussian 09 at Tue Aug 23 09:58:22 2022.

 ----------------------------------------------------------
 #P Geom=AllCheck Guess=TCheck SCRF=Check B3LYP/GTBas3 Freq
 ----------------------------------------------------------

 Structure from the checkpoint file:  "G4.Frag_776.chk"
 --------
 Frag_776
 --------
 Charge =  0 Multiplicity = 1

 SCF Done:  E(RB3LYP) =  -226.367978073     A.U. after    1 cycles

  Exact polarizability:  34.355  -1.036  36.796   0.396   0.977  28.311
 Approx polarizability:  44.234  -2.364  51.082   0.949   0.616  41.827

                      1                      2                      3
                      A                      A                      A
 Frequencies --    249.1239               277.2577               286.5959
 Red. masses --      1.0903                 1.1119                 1.0887
 Frc consts  --      0.0399                 0.0504                 0.0527
 IR Inten    --     94.8442                 5.3686                47.7126

                      4                      5                      6
                      A                      A                      A
 Frequencies --    434.8753               467.2434               552.5562
 Red. masses --      2.4104                 2.6660                 3.8133
 Frc consts  --      0.2686                 0.3429                 0.6860
 IR Inten    --      3.0250                12.8930                 1.9406

                      7                      8                      9
                      A                      A                      A
 Frequencies --    821.8195               851.9645              1024.5912
 Red. masses --      3.4646                 3.7340                 1.5347
 Frc consts  --      1.3786                 1.5968                 0.9492
 IR Inten    --     78.3978                42.9254                63.4814

                     10                     11                     12
                      A                      A                      A
 Frequencies --   1105.0849              1141.7658              1215.1879
 Red. masses --      3.4020                 1.3546                 1.9420
 Frc consts  --      2.4478                 1.0404                 1.6896
 IR Inten    --      8.9985                 6.8431                19.0008

                     13                     14                     15
                      A                      A                      A
 Frequencies --   1328.9170              1411.5598              1436.4647
 Red. masses --      1.2463                 1.2895                 1.1954
 Frc consts  --      1.2968                 1.5138                 1.4533
 IR Inten    --      8.1673                41.1819                 1.2074

                     16                     17                     18
                      A                      A                      A
 Frequencies --   1475.5681              1495.9454              1647.9506
 Red. masses --      1.0481                 1.0484                 1.0888
 Frc consts  --      1.3446                 1.3823                 1.7421
 IR Inten    --      3.9603                 4.0420                15.0632

                     19                     20                     21
                      A                      A                      A
 Frequencies --   2974.5220              3094.5668              3139.6275
 Red. masses --      1.0523                 1.0793                 1.1041
 Frc consts  --      5.4858                 6.0895                 6.4125
 IR Inten    --     46.2441                25.3585                16.9423

                     22                     23                     24
                      A                      A                      A
 Frequencies --   3375.5642              3558.1101              3797.7831
 Red. masses --      1.0554                 1.0850                 1.0673
 Frc consts  --      7.0857                 8.0933                 9.0696
 IR Inten    --     14.5233                 2.4618                34.2151

 - Thermochemistry -
 -------------------
 Temperature   298.150 Kelvin.  Pressure   1.00000 Atm.
 Atom     1 has atomic number  6 and mass  12.00000

 Molecular mass:    62.04801 amu.
 Principal axes and moments of inertia in atomic units:
                           1         2         3
     Eigenvalues --   188.54624 195.41655 340.40379
           X            0.82036   0.57174   0.01078
           Y           -0.57180   0.81992   0.02801
           Z            0.00718  -0.02914   0.99955
 This molecule is an asymmetric top.
 Rotational symmetry number  1.
 Rotational temperatures (Kelvin)      0.45938     0.44323     0.25444
 Rotational constants (GHZ):           9.57188     9.23535     5.30177
 Zero-point vibrational energy     222293.9 (Joules/Mol)
                                   53.12953 (Kcal/Mol)
 Warning -- explicit consideration of   6 degrees of freedom as
           vibrations may cause significant error
 Vibrational temperatures:    358.43   398.91   412.35   625.69   672.26
          (Kelvin)            795.00  1182.41  1225.79  1474.16  1589.97
                             1642.74  1748.38  1912.01  2030.92  2066.75
                             2123.01  2152.33  2371.03  4279.67  4452.39
                             4517.22  4856.68  5119.32  5464.16

 Zero-point correction=                           0.084667 (Hartree/Particle)
 Thermal correction to Energy=                    0.089857
 Thermal correction to Enthalpy=                  0.090801
 Thermal correction to Gibbs Free Energy=         0.057575
 Sum of electronic and zero-point Energies=           -226.283311
 Sum of electronic and thermal Energies=              -226.278121
 Sum of electronic and thermal Enthalpies=            -226.277177
 Sum of electronic and thermal Free Energies=         -226.310403

                     E (Thermal)             CV                S
                      KCal/Mol        Cal/Mol-Kelvin    Cal/Mol-Kelvin
 Total                   56.386             17.775             69.931
 Electronic               0.000              0.000              0.000
 Translational            0.889              2.981             38.295
 Rotational               0.889              2.981             24.043
 Vibrational             54.609             11.814              7.593
 Vibration     1          0.662              1.764              1.737
 Vibration     2          0.678              1.716              1.551
 Vibration     3          0.684              1.699              1.494
 Vibration     4          0.795              1.394              0.843
 Vibration     5          0.825              1.323              0.745
 Vibration     6          0.908              1.134              0.539

 Optimization completed.
    -- Stationary point found.
 Normal termination of Gaussian 09 at Tue Aug 23 09:58:59 2022.

 -----------------------------------------------------------------
 #P Geom=AllCheck Guess=TCheck SCRF=Check CCSD(T,E4T,FrzG4)/GTBas1
 -----------------------------------------------------------------

 Structure from the checkpoint file:  "G4.Frag_776.chk"
 --------
 Frag_776
 --------
 Charge =  0 Multiplicity = 1

 SCF Done:  E(RHF) =  -225.006706524     A.U. after   12 cycles
 E2 =    -0.6428824550D+00 EUMP2 =    -0.22564958897851D+03
 CCSD(T)
 CCSD(T)= -0.22570347826D+03
 CCSD(T)=-225.7034783\RMSD=8.428e-09\PG=C01 [X(C1H6N2O1)]\\@
 Normal termination of Gaussian 09 at Tue Aug 23 09:59:30 2022.

 ---------------------------------------------------------
 #P Geom=AllCheck Guess=TCheck SCRF=Check MP4=FrzG4/GTBas2
 ---------------------------------------------------------

 Structure from the checkpoint file:  "G4.Frag_776.chk"
 --------
 Frag_776
 --------
 Charge =  0 Multiplicity = 1

 SCF Done:  E(RHF) =  -225.016010137     A.U. after   12 cycles
 E2 =    -0.6548411731D+00 EUMP2 =    -0.22567085131045D+03
 Normal termination of Gaussian 09 at Tue Aug 23 09:59:48 2022.

 ---------------------------------------------------------
 #P Geom=AllCheck Guess=TCheck SCRF=Check MP4=FrzG4/GTBas3
 ---------------------------------------------------------

 Structure from the checkpoint file:  "G4.Frag_776.chk"
 --------
 Frag_776
 --------
 Charge =  0 Multiplicity = 1

 SCF Done:  E(RHF) =  -225.039202037     A.U. after   12 cycles
 E2 =    -0.7929558108D+00 EUMP2 =    -0.22583215784810D+03
 Normal termination of Gaussian 09 at Tue Aug 23 10:07:52 2022.

 -----------------------------------------------------------
 #P Geom=AllCheck Guess=TCheck SCRF=Check MP2=Full/GTLargeXP
 -----------------------------------------------------------

 Structure from the checkpoint file:  "G4.Frag_776.chk"
 --------
 Frag_776
 --------
 Charge =  0 Multiplicity = 1

 SCF Done:  E(RHF) =  -225.103421094     A.U. after   12 cycles
 E2 =    -0.1029022819D+01 EUMP2 =    -0.22613244391257D+03
 Normal termination of Gaussian 09 at Tue Aug 23 10:08:43 2022.
 SCF Done:  E(RHF) =  -225.122179174     A.U. after    9 cycles
 Normal termination of Gaussian 09 at Tue Aug 23 10:10:25 2022.

                         Standard orientation:
 ---------------------------------------------------------------------
 Center     Atomic      Atomic             Coordinates (Angstroms)
 Number     Number       Type             X           Y           Z
 ---------------------------------------------------------------------
      1          6           0        1.239473    0.505998    0.051760
      2          7           0       -0.039275   -0.015410   -0.418499
      3          7           0       -1.147309    0.708167    0.096526
      4          8           0       -0.101278   -1.326134    0.170663
      5          1           0        1.356748    1.522735   -0.331075
      6          1           0        1.293412    0.519989    1.153132
      7          1           0        2.044722   -0.121071   -0.335588
      8          1           0       -0.935739    1.098117    1.019830
      9          1           0       -1.325146    1.473942   -0.545434
     10          1           0       -0.754517   -1.769932   -0.382916
 ---------------------------------------------------------------------

 SCF Done:  E(RHF) =  -225.126248698     A.U. after    8 cycles

 The electronic state is 1-A.
 Alpha  occ. eigenvalues --  -20.57771 -15.64065 -15.57801 -11.25189  -1.41333
 Alpha  occ. eigenvalues --   -1.22664  -1.04411  -0.87055  -0.72261  -0.67949
 Alpha  occ. eigenvalues --   -0.63817  -0.61952  -0.55992  -0.54620  -0.49900
 Alpha  occ. eigenvalues --   -0.42618  -0.39412
 Alpha virt. eigenvalues --    0.04421   0.05294   0.05536   0.06033   0.08377
 Alpha virt. eigenvalues --    0.09340   0.09490   0.10236   0.11879   0.14838
 Alpha virt. eigenvalues --    0.15102   0.16902   0.17719   0.19699   0.20718

 Mulliken charges:
               1
     1  C   -0.430176
     2  N    0.062638
     3  N   -0.615008
     4  O   -0.529814
     5  H    0.171541
     6  H    0.159735
     7  H    0.189108
     8  H    0.283381
     9  H    0.317598
    10  H    0.390997
 Sum of Mulliken charges =  -0.00000

 Dipole moment (field-independent basis, Debye):
    X=              0.3589    Y=              1.7999    Z=             -0.2020  Tot=              1.8464
 Quadrupole moment (field-independent basis, Debye-Ang):
   XX=            -25.3962   YY=            -21.7791   ZZ=            -25.5060
   XY=              0.7782   XZ=              0.8998   YZ=              1.9489

 Normal termination of Gaussian 09 at Tue Aug 23 10:57:07 2022.
