 Gaussian 09, Revision E.01,
 Gaussian 09:  ES64L-G09RevE.01 30-Nov-2015

 -----
 #P G4
 -----

 --------
 Frag_650
 --------
 Symbolic Z-matrix:
 Charge =  0 Multiplicity = 1

 SCF Done:  E(RB3LYP) =  -116.668388238     A.U. after   10 cycles
 SCF Done:  E(RB3LYP) =  -116.668789734     A.U. after    9 cycles
 SCF Done:  E(RB3LYP) =  -116.668820101     A.U. after    9 cycles
 SCF Done:  E(RB3LYP) =  -116.667531651     A.U. after   10 cycles
 SCF Done:  E(RB3LYP) =  -116.668845454     A.U. after    6 cycles
 SCF Done:  E(RB3LYP) =  -116.668761973     A.U. after    9 cycles
 SCF Done:  E(RB3LYP) =  -116.668832473     A.U. after    9 cycles
 SCF Done:  E(RB3LYP) =  -116.668857639     A.U. after    7 cycles
 Optimization completed.
    -- Stationary point found.
 Normal termination of Gaussian 09 at Mon Aug 22 17:22:57 2022.

 ----------------------------------------------------------
 #P Geom=AllCheck Guess=TCheck SCRF=Check B3LYP/GTBas3 Freq
 ----------------------------------------------------------

 Structure from the checkpoint file:  "G4.Frag_650.chk"
 --------
 Frag_650
 --------
 Charge =  0 Multiplicity = 1

 SCF Done:  E(RB3LYP) =  -116.668857639     A.U. after    1 cycles

  Exact polarizability:  57.427  -0.000  20.126  -0.000   0.000  20.126
 Approx polarizability:  92.739  -0.002  27.695  -0.004   0.000  27.694

                      1                      2                      3
                      A                      A                      A
 Frequencies --    381.6506               381.6537               867.7151
 Red. masses --      2.4735                 2.4735                 1.3081
 Frc consts  --      0.2123                 0.2123                 0.5803
 IR Inten    --      3.2649                 3.2652                48.1645

                      4                      5                      6
                      A                      A                      A
 Frequencies --    867.7271               888.5686              1020.4887
 Red. masses --      1.3081                 1.0078                 1.5451
 Frc consts  --      0.5803                 0.4688                 0.9480
 IR Inten    --     48.1644                 0.0000                 0.2093

                      7                      8                      9
                      A                      A                      A
 Frequencies --   1020.4908              1117.0854              1430.0283
 Red. masses --      1.5451                 2.4046                 1.0797
 Frc consts  --      0.9480                 1.7679                 1.3009
 IR Inten    --      0.2092                 0.0000                 2.4611

                     10                     11                     12
                      A                      A                      A
 Frequencies --   1487.6399              2074.4679              3132.5925
 Red. masses --      1.4125                 9.3840                 1.0598
 Frc consts  --      1.8417                23.7932                 6.1277
 IR Inten    --      0.0000                54.4928                 2.5991

                     13                     14                     15
                      A                      A                      A
 Frequencies --   3136.4747              3206.7664              3206.7889
 Red. masses --      1.0594                 1.1137                 1.1137
 Frc consts  --      6.1402                 6.7474                 6.7475
 IR Inten    --      0.0000                 2.0820                 2.0816

 - Thermochemistry -
 -------------------
 Temperature   298.150 Kelvin.  Pressure   1.00000 Atm.
 Atom     1 has atomic number  6 and mass  12.00000

 Molecular mass:    40.03130 amu.
 Principal axes and moments of inertia in atomic units:
                           1         2         3
     Eigenvalues --    12.33933 201.63870 201.63889
           X            1.00000   0.00000   0.00002
           Y           -0.00000   1.00000  -0.00011
           Z           -0.00002   0.00011   1.00000
 This molecule is an asymmetric top.
 Rotational symmetry number  1.
 Rotational temperatures (Kelvin)      7.01933     0.42955     0.42955
 Rotational constants (GHZ):         146.25931     8.95037     8.95036
 Zero-point vibrational energy     144868.6 (Joules/Mol)
                                   34.62443 (Kcal/Mol)
 Warning -- explicit consideration of   2 degrees of freedom as
           vibrations may cause significant error
 Vibrational temperatures:    549.11   549.11  1248.45  1248.46  1278.45
          (Kelvin)           1468.25  1468.26  1607.23  2057.49  2140.38
                             2984.69  4507.10  4512.68  4613.82  4613.85

 Zero-point correction=                           0.055178 (Hartree/Particle)
 Thermal correction to Energy=                    0.058947
 Thermal correction to Enthalpy=                  0.059891
 Thermal correction to Gibbs Free Energy=         0.031088
 Sum of electronic and zero-point Energies=           -116.613680
 Sum of electronic and thermal Energies=              -116.609910
 Sum of electronic and thermal Enthalpies=            -116.608966
 Sum of electronic and thermal Free Energies=         -116.637770

                     E (Thermal)             CV                S
                      KCal/Mol        Cal/Mol-Kelvin    Cal/Mol-Kelvin
 Total                   36.990             11.747             60.622
 Electronic               0.000              0.000              0.000
 Translational            0.889              2.981             36.989
 Rotational               0.889              2.981             20.845
 Vibrational             35.212              5.785              2.788
 Vibration     1          0.751              1.509              1.033
 Vibration     2          0.751              1.509              1.033

 Optimization completed.
    -- Stationary point found.
 Normal termination of Gaussian 09 at Mon Aug 22 17:23:07 2022.

 -----------------------------------------------------------------
 #P Geom=AllCheck Guess=TCheck SCRF=Check CCSD(T,E4T,FrzG4)/GTBas1
 -----------------------------------------------------------------

 Structure from the checkpoint file:  "G4.Frag_650.chk"
 --------
 Frag_650
 --------
 Charge =  0 Multiplicity = 1

 SCF Done:  E(RHF) =  -115.860660891     A.U. after   10 cycles
 E2 =    -0.3731465731D+00 EUMP2 =    -0.11623380746433D+03
 CCSD(T)
 CCSD(T)= -0.11628225622D+03
 \CCSD(T)=-116.2822562\RMSD=3.230e-09\PG=C01 [X(C3H4)]\\@
 Normal termination of Gaussian 09 at Mon Aug 22 17:23:14 2022.

 ---------------------------------------------------------
 #P Geom=AllCheck Guess=TCheck SCRF=Check MP4=FrzG4/GTBas2
 ---------------------------------------------------------

 Structure from the checkpoint file:  "G4.Frag_650.chk"
 --------
 Frag_650
 --------
 Charge =  0 Multiplicity = 1

 SCF Done:  E(RHF) =  -115.866095840     A.U. after   11 cycles
 E2 =    -0.3760281513D+00 EUMP2 =    -0.11624212399158D+03
 Normal termination of Gaussian 09 at Mon Aug 22 17:23:17 2022.

 ---------------------------------------------------------
 #P Geom=AllCheck Guess=TCheck SCRF=Check MP4=FrzG4/GTBas3
 ---------------------------------------------------------

 Structure from the checkpoint file:  "G4.Frag_650.chk"
 --------
 Frag_650
 --------
 Charge =  0 Multiplicity = 1

 SCF Done:  E(RHF) =  -115.876435016     A.U. after   10 cycles
 E2 =    -0.4523819401D+00 EUMP2 =    -0.11632881695572D+03
 Normal termination of Gaussian 09 at Mon Aug 22 17:23:29 2022.

 -----------------------------------------------------------
 #P Geom=AllCheck Guess=TCheck SCRF=Check MP2=Full/GTLargeXP
 -----------------------------------------------------------

 Structure from the checkpoint file:  "G4.Frag_650.chk"
 --------
 Frag_650
 --------
 Charge =  0 Multiplicity = 1

 SCF Done:  E(RHF) =  -115.903739102     A.U. after   11 cycles
 E2 =    -0.6055244342D+00 EUMP2 =    -0.11650926353619D+03
 Normal termination of Gaussian 09 at Mon Aug 22 17:23:44 2022.
 SCF Done:  E(RHF) =  -115.913034746     A.U. after    8 cycles
 Normal termination of Gaussian 09 at Mon Aug 22 17:24:10 2022.

                         Standard orientation:
 ---------------------------------------------------------------------
 Center     Atomic      Atomic             Coordinates (Angstroms)
 Number     Number       Type             X           Y           Z
 ---------------------------------------------------------------------
      1          6           0       -1.301411    0.000040    0.000104
      2          6           0       -0.000002    0.000093   -0.000007
      3          6           0        1.301410    0.000015   -0.000047
      4          1           0       -1.869384   -0.735834    0.561978
      5          1           0       -1.869518    0.735331   -0.562397
      6          1           0        1.869394   -0.562389   -0.735512
      7          1           0        1.869527    0.562003    0.735632
 ---------------------------------------------------------------------

 SCF Done:  E(RHF) =  -115.914812873     A.U. after    7 cycles

 The electronic state is 1-A.
 Alpha  occ. eigenvalues --  -11.26076 -11.23597 -11.23586  -1.07574  -0.95937
 Alpha  occ. eigenvalues --   -0.71660  -0.63146  -0.60697  -0.60697  -0.37953
 Alpha  occ. eigenvalues --   -0.37953
 Alpha virt. eigenvalues --    0.04311   0.05106   0.05655   0.05655   0.07448
 Alpha virt. eigenvalues --    0.08030   0.08030   0.10743   0.11462   0.11462
 Alpha virt. eigenvalues --    0.15707   0.15836   0.15836   0.16755   0.18248

 Mulliken charges:
               1
     1  C   -0.520307
     2  C    0.221110
     3  C   -0.520306
     4  H    0.204879
     5  H    0.204873
     6  H    0.204872
     7  H    0.204878
 Sum of Mulliken charges =  -0.00000

 Dipole moment (field-independent basis, Debye):
    X=             -0.0000    Y=             -0.0009    Z=             -0.0003  Tot=              0.0009
 Quadrupole moment (field-independent basis, Debye-Ang):
   XX=            -15.4464   YY=            -19.8734   ZZ=            -19.8735
   XY=              0.0003   XZ=              0.0016   YZ=              0.0000

 Normal termination of Gaussian 09 at Mon Aug 22 17:37:22 2022.
