 Gaussian 09, Revision E.01,
 Gaussian 09:  ES64L-G09RevE.01 30-Nov-2015

 -----
 #P G4
 -----

 --------
 Frag_815
 --------
 Symbolic Z-matrix:
 Charge =  0 Multiplicity = 1

 SCF Done:  E(RB3LYP) =  -302.538556256     A.U. after   15 cycles
 SCF Done:  E(RB3LYP) =  -302.568336666     A.U. after   13 cycles
 SCF Done:  E(RB3LYP) =  -302.573275206     A.U. after   13 cycles
 SCF Done:  E(RB3LYP) =  -302.574068809     A.U. after   13 cycles
 SCF Done:  E(RB3LYP) =  -302.573353600     A.U. after   13 cycles
 SCF Done:  E(RB3LYP) =  -302.574202757     A.U. after    9 cycles
 SCF Done:  E(RB3LYP) =  -302.574337304     A.U. after   12 cycles
 SCF Done:  E(RB3LYP) =  -302.574345047     A.U. after   11 cycles
 SCF Done:  E(RB3LYP) =  -302.574353251     A.U. after   11 cycles
 SCF Done:  E(RB3LYP) =  -302.574363516     A.U. after    9 cycles
 SCF Done:  E(RB3LYP) =  -302.574365082     A.U. after    9 cycles
 SCF Done:  E(RB3LYP) =  -302.574365178     A.U. after    8 cycles
 Optimization completed.
    -- Stationary point found.
 Normal termination of Gaussian 09 at Fri Aug 26 04:07:11 2022.

 ----------------------------------------------------------
 #P Geom=AllCheck Guess=TCheck SCRF=Check B3LYP/GTBas3 Freq
 ----------------------------------------------------------

 Structure from the checkpoint file:  "G4.Frag_815.chk"
 --------
 Frag_815
 --------
 Charge =  0 Multiplicity = 1

 SCF Done:  E(RB3LYP) =  -302.574365178     A.U. after    1 cycles

  Exact polarizability:  59.346  -7.262  68.626  -0.000  -0.000  28.685
 Approx polarizability:  81.928 -10.729 133.431  -0.003  -0.007  44.049

                      1                      2                      3
                      A                      A                      A
 Frequencies --     74.4016               212.2621               331.3116
 Red. masses --      5.0868                 1.0313                 3.5220
 Frc consts  --      0.0166                 0.0274                 0.2278
 IR Inten    --      0.2856                 0.2030                 0.1412

                      4                      5                      6
                      A                      A                      A
 Frequencies --    388.4413               413.0334               538.1749
 Red. masses --      2.9168                 2.5213                 4.7056
 Frc consts  --      0.2593                 0.2534                 0.8030
 IR Inten    --      4.2760                 1.8446                 8.0917

                      7                      8                      9
                      A                      A                      A
 Frequencies --    594.2689               634.7344               807.7433
 Red. masses --      4.1531                 1.5259                 3.7017
 Frc consts  --      0.8641                 0.3622                 1.4230
 IR Inten    --     23.1924                 0.0879                30.7158

                     10                     11                     12
                      A                      A                      A
 Frequencies --    829.6256               917.4703               927.9758
 Red. masses --      1.6686                 1.3612                 1.8341
 Frc consts  --      0.6766                 0.6751                 0.9305
 IR Inten    --      0.0062                67.7228                 6.0936

                     13                     14                     15
                      A                      A                      A
 Frequencies --    977.4603              1023.2443              1077.9238
 Red. masses --      1.3345                 1.4452                 1.4908
 Frc consts  --      0.7512                 0.8915                 1.0206
 IR Inten    --     29.8275                11.5477                 1.3397

                     16                     17                     18
                      A                      A                      A
 Frequencies --   1241.8485              1257.3217              1399.0351
 Red. masses --      2.6040                 4.0101                 1.1411
 Frc consts  --      2.3661                 3.7350                 1.3159
 IR Inten    --      9.4729                64.7727                11.9030

                     19                     20                     21
                      A                      A                      A
 Frequencies --   1431.2917              1468.1103              1479.9843
 Red. masses --      1.2803                 1.0430                 1.0685
 Frc consts  --      1.5453                 1.3245                 1.3790
 IR Inten    --      8.1389                 6.6295                13.2199

                     22                     23                     24
                      A                      A                      A
 Frequencies --   1520.4887              1577.1406              1737.4548
 Red. masses --      1.7649                12.2990                 6.2059
 Frc consts  --      2.4039                18.0244                11.0378
 IR Inten    --     13.7500               216.2556                 0.7894

                     25                     26                     27
                      A                      A                      A
 Frequencies --   3054.4783              3119.4825              3135.8930
 Red. masses --      1.0350                 1.0997                 1.1031
 Frc consts  --      5.6894                 6.3049                 6.3915
 IR Inten    --      8.0886                 5.4110                11.3946

                     28                     29                     30
                      A                      A                      A
 Frequencies --   3183.3132              3283.5223              3415.1070
 Red. masses --      1.0613                 1.1160                 1.0714
 Frc consts  --      6.3366                 7.0892                 7.3619
 IR Inten    --      4.3845                 0.7984                 6.3186

 - Thermochemistry -
 -------------------
 Temperature   298.150 Kelvin.  Pressure   1.00000 Atm.
 Atom     1 has atomic number  6 and mass  12.00000

 Molecular mass:    86.04801 amu.
 Principal axes and moments of inertia in atomic units:
                           1         2         3
     Eigenvalues --   329.28707 477.07604 795.28891
           X            0.99992  -0.01276   0.00001
           Y            0.01276   0.99992   0.00002
           Z           -0.00001  -0.00002   1.00000
 This molecule is an asymmetric top.
 Rotational symmetry number  1.
 Rotational temperatures (Kelvin)      0.26303     0.18155     0.10891
 Rotational constants (GHZ):           5.48075     3.78292     2.26929
 Zero-point vibrational energy     251530.1 (Joules/Mol)
                                   60.11713 (Kcal/Mol)
 Warning -- explicit consideration of   7 degrees of freedom as
           vibrations may cause significant error
 Vibrational temperatures:    107.05   305.40   476.68   558.88   594.26
          (Kelvin)            774.31   855.02   913.24  1162.16  1193.64
                             1320.03  1335.15  1406.35  1472.22  1550.89
                             1786.74  1809.00  2012.90  2059.31  2112.28
                             2129.36  2187.64  2269.15  2499.81  4394.71
                             4488.23  4511.85  4580.07  4724.25  4913.57

 Zero-point correction=                           0.095803 (Hartree/Particle)
 Thermal correction to Energy=                    0.101873
 Thermal correction to Enthalpy=                  0.102817
 Thermal correction to Gibbs Free Energy=         0.066089
 Sum of electronic and zero-point Energies=           -302.478562
 Sum of electronic and thermal Energies=              -302.472492
 Sum of electronic and thermal Enthalpies=            -302.471548
 Sum of electronic and thermal Free Energies=         -302.508276

                     E (Thermal)             CV                S
                      KCal/Mol        Cal/Mol-Kelvin    Cal/Mol-Kelvin
 Total                   63.926             21.578             77.300
 Electronic               0.000              0.000              0.000
 Translational            0.889              2.981             39.270
 Rotational               0.889              2.981             26.327
 Vibrational             62.149             15.616             11.703
 Vibration     1          0.599              1.966              4.033
 Vibration     2          0.643              1.822              2.024
 Vibration     3          0.714              1.613              1.254
 Vibration     4          0.757              1.495              1.006
 Vibration     5          0.777              1.442              0.916
 Vibration     6          0.893              1.166              0.569
 Vibration     7          0.952              1.044              0.460

 Optimization completed.
    -- Stationary point found.
 Normal termination of Gaussian 09 at Fri Aug 26 04:07:38 2022.

 -----------------------------------------------------------------
 #P Geom=AllCheck Guess=TCheck SCRF=Check CCSD(T,E4T,FrzG4)/GTBas1
 -----------------------------------------------------------------

 Structure from the checkpoint file:  "G4.Frag_815.chk"
 --------
 Frag_815
 --------
 Charge =  0 Multiplicity = 1

 SCF Done:  E(RHF) =  -300.719349547     A.U. after   14 cycles
 E2 =    -0.9094138563D+00 EUMP2 =    -0.30162876340314D+03
 CCSD(T)
 CCSD(T)= -0.30169825657D+03
 -301.6601194\CCSD(T)=-301.6982566\RMSD=8.429e-09\PG=C01 [X(C3H6N2O1)]\
 Normal termination of Gaussian 09 at Fri Aug 26 04:09:25 2022.

 ---------------------------------------------------------
 #P Geom=AllCheck Guess=TCheck SCRF=Check MP4=FrzG4/GTBas2
 ---------------------------------------------------------

 Structure from the checkpoint file:  "G4.Frag_815.chk"
 --------
 Frag_815
 --------
 Charge =  0 Multiplicity = 1

 SCF Done:  E(RHF) =  -300.729018062     A.U. after   14 cycles
 E2 =    -0.9208257836D+00 EUMP2 =    -0.30164984384508D+03
 Normal termination of Gaussian 09 at Fri Aug 26 04:09:55 2022.

 ---------------------------------------------------------
 #P Geom=AllCheck Guess=TCheck SCRF=Check MP4=FrzG4/GTBas3
 ---------------------------------------------------------

 Structure from the checkpoint file:  "G4.Frag_815.chk"
 --------
 Frag_815
 --------
 Charge =  0 Multiplicity = 1

 SCF Done:  E(RHF) =  -300.754728229     A.U. after   13 cycles
 E2 =    -0.1094924160D+01 EUMP2 =    -0.30184965238841D+03
 Normal termination of Gaussian 09 at Fri Aug 26 04:12:40 2022.

 -----------------------------------------------------------
 #P Geom=AllCheck Guess=TCheck SCRF=Check MP2=Full/GTLargeXP
 -----------------------------------------------------------

 Structure from the checkpoint file:  "G4.Frag_815.chk"
 --------
 Frag_815
 --------
 Charge =  0 Multiplicity = 1

 SCF Done:  E(RHF) =  -300.830585816     A.U. after   13 cycles
 E2 =    -0.1426786317D+01 EUMP2 =    -0.30225737213277D+03
 Normal termination of Gaussian 09 at Fri Aug 26 04:14:26 2022.
 SCF Done:  E(RHF) =  -300.855000469     A.U. after   11 cycles
 Normal termination of Gaussian 09 at Fri Aug 26 04:16:15 2022.

                         Standard orientation:
 ---------------------------------------------------------------------
 Center     Atomic      Atomic             Coordinates (Angstroms)
 Number     Number       Type             X           Y           Z
 ---------------------------------------------------------------------
      1          6           0       -1.088744    1.435885    0.000182
      2          6           0       -0.683487    0.171804    0.000051
      3          6           0       -1.548101   -1.048690   -0.000157
      4          7           0        0.774504   -0.056805    0.000002
      5          7           0        1.128309   -1.279141    0.000257
      6          8           0        1.533833    0.928345   -0.000265
      7          1           0       -2.145835    1.669878    0.000209
      8          1           0       -0.369406    2.242939    0.000298
      9          1           0       -1.354833   -1.672136    0.876692
     10          1           0       -1.355027   -1.671619   -0.877448
     11          1           0       -2.597787   -0.746879   -0.000063
     12          1           0        2.154516   -1.251312    0.000166
 ---------------------------------------------------------------------

 SCF Done:  E(RHF) =  -300.859799811     A.U. after    7 cycles

 The electronic state is 1-A.
 Alpha  occ. eigenvalues --  -20.55472 -15.79511 -15.61104 -11.30215 -11.25653
 Alpha  occ. eigenvalues --  -11.24201  -1.52346  -1.27318  -1.12765  -0.96750
 Alpha  occ. eigenvalues --   -0.94641  -0.76142  -0.72375  -0.70287  -0.67785
 Alpha  occ. eigenvalues --   -0.61801  -0.58193  -0.57763  -0.55557  -0.50702
 Alpha  occ. eigenvalues --   -0.45185  -0.40278  -0.38997
 Alpha virt. eigenvalues --    0.03433   0.04299   0.04339   0.05410   0.06687
 Alpha virt. eigenvalues --    0.07008   0.07457   0.08167   0.08746   0.09167
 Alpha virt. eigenvalues --    0.10242   0.10949   0.12190   0.12789   0.13444

 Mulliken charges:
               1
     1  C   -0.352962
     2  C    0.065880
     3  C   -0.494567
     4  N    0.519291
     5  N   -0.523792
     6  O   -0.585729
     7  H    0.204625
     8  H    0.255994
     9  H    0.201293
    10  H    0.201226
    11  H    0.176535
    12  H    0.332205
 Sum of Mulliken charges =  -0.00000

 Dipole moment (field-independent basis, Debye):
    X=             -2.4772    Y=             -0.5676    Z=              0.0002  Tot=              2.5414
 Quadrupole moment (field-independent basis, Debye-Ang):
   XX=            -33.6446   YY=            -36.7837   ZZ=            -37.3353
   XY=             -4.6865   XZ=              0.0011   YZ=              0.0018

 Normal termination of Gaussian 09 at Fri Aug 26 04:21:47 2022.
