 Gaussian 09, Revision E.01,
 Gaussian 09:  ES64L-G09RevE.01 30-Nov-2015

 -----
 #P G4
 -----

 --------
 Frag_956
 --------
 Symbolic Z-matrix:
 Charge =  0 Multiplicity = 1

 SCF Done:  E(RB3LYP) =  -189.294808726     A.U. after   13 cycles
 SCF Done:  E(RB3LYP) =  -189.298720241     A.U. after   12 cycles
 SCF Done:  E(RB3LYP) =  -189.299046851     A.U. after   12 cycles
 SCF Done:  E(RB3LYP) =  -189.299407446     A.U. after   12 cycles
 SCF Done:  E(RB3LYP) =  -189.297093669     A.U. after   14 cycles
 SCF Done:  E(RB3LYP) =  -189.299861666     A.U. after   11 cycles
 SCF Done:  E(RB3LYP) =  -189.300319672     A.U. after   12 cycles
 SCF Done:  E(RB3LYP) =  -189.301292336     A.U. after   12 cycles
 SCF Done:  E(RB3LYP) =  -189.301722744     A.U. after   11 cycles
 SCF Done:  E(RB3LYP) =  -189.301798376     A.U. after   11 cycles
 SCF Done:  E(RB3LYP) =  -189.301858123     A.U. after    9 cycles
 SCF Done:  E(RB3LYP) =  -189.301860469     A.U. after    9 cycles
 SCF Done:  E(RB3LYP) =  -189.301861086     A.U. after    7 cycles
 Optimization completed.
    -- Stationary point found.
 Normal termination of Gaussian 09 at Mon Aug 22 22:54:14 2022.

 ----------------------------------------------------------
 #P Geom=AllCheck Guess=TCheck SCRF=Check B3LYP/GTBas3 Freq
 ----------------------------------------------------------

 Structure from the checkpoint file:  "G4.Frag_956.chk"
 --------
 Frag_956
 --------
 Charge =  0 Multiplicity = 1

 SCF Done:  E(RB3LYP) =  -189.301861086     A.U. after    1 cycles

  Exact polarizability:  50.671  -0.387  33.443  -4.100  -2.871  28.207
 Approx polarizability:  66.218   1.879  48.484  -7.916  -5.700  42.492

                      1                      2                      3
                      A                      A                      A
 Frequencies --    108.9565               203.8202               394.8723
 Red. masses --      3.1892                 1.0859                 2.2475
 Frc consts  --      0.0223                 0.0266                 0.2065
 IR Inten    --     10.9805                45.5041                 1.3779

                      4                      5                      6
                      A                      A                      A
 Frequencies --    487.8115               728.7156               862.8411
 Red. masses --      2.5516                 1.2805                 1.2799
 Frc consts  --      0.3577                 0.4006                 0.5614
 IR Inten    --      3.0926                 5.2455               121.6916

                      7                      8                      9
                      A                      A                      A
 Frequencies --    931.5116              1070.0875              1081.1883
 Red. masses --      2.3487                 1.3562                 2.5817
 Frc consts  --      1.2007                 0.9150                 1.7781
 IR Inten    --     21.7464                21.4362                23.5148

                     10                     11                     12
                      A                      A                      A
 Frequencies --   1106.9084              1184.3505              1262.8269
 Red. masses --      1.7414                 1.2262                 1.4577
 Frc consts  --      1.2571                 1.0134                 1.3697
 IR Inten    --     15.5955                 4.4267                15.3898

                     13                     14                     15
                      A                      A                      A
 Frequencies --   1304.4841              1434.1482              1500.9554
 Red. masses --      1.2623                 1.2959                 1.1281
 Frc consts  --      1.2656                 1.5704                 1.4974
 IR Inten    --     10.4563                38.6827                12.0658

                     16                     17                     18
                      A                      A                      A
 Frequencies --   1517.6342              1637.7993              1754.7389
 Red. masses --      1.1159                 1.0934                 6.7698
 Frc consts  --      1.5143                 1.7280                12.2815
 IR Inten    --      5.2942                29.8576                29.5435

                     19                     20                     21
                      A                      A                      A
 Frequencies --   2930.3243              2967.9891              2997.8366
 Red. masses --      1.0581                 1.1013                 1.0654
 Frc consts  --      5.3532                 5.7158                 5.6413
 IR Inten    --     75.2704                57.6187                54.2680

                     22                     23                     24
                      A                      A                      A
 Frequencies --   3130.6990              3485.8216              3570.4092
 Red. masses --      1.1040                 1.0490                 1.0921
 Frc consts  --      6.3755                 7.5097                 8.2026
 IR Inten    --     33.8617                 0.2275                 0.6988

 - Thermochemistry -
 -------------------
 Temperature   298.150 Kelvin.  Pressure   1.00000 Atm.
 Atom     1 has atomic number  6 and mass  12.00000

 Molecular mass:    58.05310 amu.
 Principal axes and moments of inertia in atomic units:
                           1         2         3
     Eigenvalues --    64.03288 385.75689 401.87051
           X            0.99972  -0.00023  -0.02380
           Y           -0.00225   0.99459  -0.10383
           Z            0.02369   0.10385   0.99431
 This molecule is an asymmetric top.
 Rotational symmetry number  1.
 Rotational temperatures (Kelvin)      1.35265     0.22453     0.21553
 Rotational constants (GHZ):          28.18460     4.67844     4.49085
 Zero-point vibrational energy     225237.3 (Joules/Mol)
                                   53.83300 (Kcal/Mol)
 Warning -- explicit consideration of   4 degrees of freedom as
           vibrations may cause significant error
 Vibrational temperatures:    156.76   293.25   568.13   701.85  1048.46
          (Kelvin)           1241.43  1340.24  1539.62  1555.59  1592.59
                             1704.01  1816.92  1876.86  2063.42  2159.54
                             2183.53  2356.42  2524.67  4216.08  4270.27
                             4313.21  4504.37  5015.31  5137.02

 Zero-point correction=                           0.085788 (Hartree/Particle)
 Thermal correction to Energy=                    0.090794
 Thermal correction to Enthalpy=                  0.091738
 Thermal correction to Gibbs Free Energy=         0.058539
 Sum of electronic and zero-point Energies=           -189.216073
 Sum of electronic and thermal Energies=              -189.211067
 Sum of electronic and thermal Enthalpies=            -189.210123
 Sum of electronic and thermal Free Energies=         -189.243322

                     E (Thermal)             CV                S
                      KCal/Mol        Cal/Mol-Kelvin    Cal/Mol-Kelvin
 Total                   56.974             16.004             69.873
 Electronic               0.000              0.000              0.000
 Translational            0.889              2.981             38.097
 Rotational               0.889              2.981             23.811
 Vibrational             55.197             10.043              7.965
 Vibration     1          0.606              1.942              3.287
 Vibration     2          0.639              1.834              2.098
 Vibration     3          0.762              1.481              0.982
 Vibration     4          0.844              1.277              0.689

 Optimization completed.
    -- Stationary point found.
 Normal termination of Gaussian 09 at Mon Aug 22 22:54:49 2022.

 -----------------------------------------------------------------
 #P Geom=AllCheck Guess=TCheck SCRF=Check CCSD(T,E4T,FrzG4)/GTBas1
 -----------------------------------------------------------------

 Structure from the checkpoint file:  "G4.Frag_956.chk"
 --------
 Frag_956
 --------
 Charge =  0 Multiplicity = 1

 SCF Done:  E(RHF) =  -188.081501531     A.U. after   13 cycles
 E2 =    -0.5800231661D+00 EUMP2 =    -0.18866152469746D+03
 CCSD(T)
 CCSD(T)= -0.18871920094D+03
 Normal termination of Gaussian 09 at Mon Aug 22 22:55:17 2022.

 ---------------------------------------------------------
 #P Geom=AllCheck Guess=TCheck SCRF=Check MP4=FrzG4/GTBas2
 ---------------------------------------------------------

 Structure from the checkpoint file:  "G4.Frag_956.chk"
 --------
 Frag_956
 --------
 Charge =  0 Multiplicity = 1

 SCF Done:  E(RHF) =  -188.089452858     A.U. after   12 cycles
 E2 =    -0.5889628894D+00 EUMP2 =    -0.18867841574787D+03
 Normal termination of Gaussian 09 at Mon Aug 22 22:55:30 2022.

 ---------------------------------------------------------
 #P Geom=AllCheck Guess=TCheck SCRF=Check MP4=FrzG4/GTBas3
 ---------------------------------------------------------

 Structure from the checkpoint file:  "G4.Frag_956.chk"
 --------
 Frag_956
 --------
 Charge =  0 Multiplicity = 1

 SCF Done:  E(RHF) =  -188.107947544     A.U. after   11 cycles
 E2 =    -0.7068538368D+00 EUMP2 =    -0.18881480138099D+03
 Normal termination of Gaussian 09 at Mon Aug 22 23:01:46 2022.

 -----------------------------------------------------------
 #P Geom=AllCheck Guess=TCheck SCRF=Check MP2=Full/GTLargeXP
 -----------------------------------------------------------

 Structure from the checkpoint file:  "G4.Frag_956.chk"
 --------
 Frag_956
 --------
 Charge =  0 Multiplicity = 1

 SCF Done:  E(RHF) =  -188.157194770     A.U. after   12 cycles
 E2 =    -0.9274152386D+00 EUMP2 =    -0.18908461000847D+03
 Normal termination of Gaussian 09 at Mon Aug 22 23:02:35 2022.
 SCF Done:  E(RHF) =  -188.171673931     A.U. after    9 cycles
 Normal termination of Gaussian 09 at Mon Aug 22 23:04:12 2022.

                         Standard orientation:
 ---------------------------------------------------------------------
 Center     Atomic      Atomic             Coordinates (Angstroms)
 Number     Number       Type             X           Y           Z
 ---------------------------------------------------------------------
      1          6           0        1.732254   -0.009289   -0.216612
      2          7           0        0.657365   -0.383842    0.328267
      3          6           0       -0.498204    0.490813    0.236603
      4          7           0       -1.605756   -0.275052   -0.329659
      5          1           0        2.617511   -0.644082   -0.151569
      6          1           0        1.842847    0.936722   -0.766855
      7          1           0       -0.317519    1.368104   -0.407784
      8          1           0       -0.684526    0.862547    1.260191
      9          1           0       -2.452442    0.285849   -0.304612
     10          1           0       -1.771429   -1.086026    0.260432
 ---------------------------------------------------------------------

 SCF Done:  E(RHF) =  -188.174772517     A.U. after    8 cycles

 The electronic state is 1-A.
 Alpha  occ. eigenvalues --  -15.56308 -15.54147 -11.28248 -11.27571  -1.24664
 Alpha  occ. eigenvalues --   -1.15709  -0.91920  -0.79504  -0.68182  -0.65392
 Alpha  occ. eigenvalues --   -0.63170  -0.58375  -0.53714  -0.43795  -0.41205
 Alpha  occ. eigenvalues --   -0.39510
 Alpha virt. eigenvalues --    0.04143   0.04234   0.05286   0.05430   0.06833
 Alpha virt. eigenvalues --    0.07351   0.08280   0.10742   0.10898   0.12448
 Alpha virt. eigenvalues --    0.14053   0.14805   0.14920   0.16106   0.16937

 Mulliken charges:
               1
     1  C   -0.213428
     2  N   -0.294960
     3  C   -0.071056
     4  N   -0.648971
     5  H    0.206198
     6  H    0.164045
     7  H    0.138973
     8  H    0.144245
     9  H    0.278882
    10  H    0.296074
 Sum of Mulliken charges =  -0.00000

 Dipole moment (field-independent basis, Debye):
    X=              0.1209    Y=              1.7697    Z=              0.3743  Tot=              1.8129
 Quadrupole moment (field-independent basis, Debye-Ang):
   XX=            -19.2383   YY=            -25.4965   ZZ=            -27.8884
   XY=             -0.0144   XZ=             -3.5025   YZ=             -0.8781

 Normal termination of Gaussian 09 at Mon Aug 22 23:47:58 2022.
