 Gaussian 09, Revision E.01,
 Gaussian 09:  ES64L-G09RevE.01 30-Nov-2015

 -----
 #P G4
 -----

 --------
 Frag_626
 --------
 Symbolic Z-matrix:
 Charge =  0 Multiplicity = 1

 SCF Done:  E(RB3LYP) =  -264.557152504     A.U. after   13 cycles
 SCF Done:  E(RB3LYP) =  -264.564617254     A.U. after   12 cycles
 SCF Done:  E(RB3LYP) =  -264.564848806     A.U. after   10 cycles
 SCF Done:  E(RB3LYP) =  -264.565053399     A.U. after   11 cycles
 SCF Done:  E(RB3LYP) =  -264.565102899     A.U. after    9 cycles
 SCF Done:  E(RB3LYP) =  -264.565123375     A.U. after    9 cycles
 SCF Done:  E(RB3LYP) =  -264.565139517     A.U. after    9 cycles
 SCF Done:  E(RB3LYP) =  -264.565148033     A.U. after    9 cycles
 SCF Done:  E(RB3LYP) =  -264.565150423     A.U. after    8 cycles
 Optimization completed.
    -- Stationary point found.
 Normal termination of Gaussian 09 at Tue Aug 30 11:15:30 2022.

 ----------------------------------------------------------
 #P Geom=AllCheck Guess=TCheck SCRF=Check B3LYP/GTBas3 Freq
 ----------------------------------------------------------

 Structure from the checkpoint file:  "G4.Frag_626.chk"
 --------
 Frag_626
 --------
 Charge =  0 Multiplicity = 1

 SCF Done:  E(RB3LYP) =  -264.565150423     A.U. after    1 cycles

  Exact polarizability:  46.501   2.360  46.849  -0.512   0.011  26.968
 Approx polarizability:  58.859   2.665  75.110   0.150   0.475  39.555

                      1                      2                      3
                      A                      A                      A
 Frequencies --    144.0005               180.7136               277.7266
 Red. masses --      1.1645                 2.6047                 2.9407
 Frc consts  --      0.0142                 0.0501                 0.1336
 IR Inten    --      0.4452                 3.7404                13.7396

                      4                      5                      6
                      A                      A                      A
 Frequencies --    404.5822               483.8928               534.5112
 Red. masses --      1.1553                 2.4383                 2.0455
 Frc consts  --      0.1114                 0.3364                 0.3443
 IR Inten    --    112.2262                56.0903                28.0407

                      7                      8                      9
                      A                      A                      A
 Frequencies --    639.3487               718.8050               830.2216
 Red. masses --      2.2315                 4.7227                 1.1988
 Frc consts  --      0.5374                 1.4377                 0.4869
 IR Inten    --     85.7558                35.1569                61.4469

                     10                     11                     12
                      A                      A                      A
 Frequencies --    919.3516              1079.4274              1141.4099
 Red. masses --      2.5977                 2.7770                 1.6624
 Frc consts  --      1.2936                 1.9064                 1.2761
 IR Inten    --     19.8204                44.8847                30.6688

                     13                     14                     15
                      A                      A                      A
 Frequencies --   1153.6371              1179.2311              1231.7589
 Red. masses --      1.5722                 1.5494                 1.3176
 Frc consts  --      1.2328                 1.2694                 1.1779
 IR Inten    --     48.5160                 1.4062                30.8860

                     16                     17                     18
                      A                      A                      A
 Frequencies --   1357.1454              1451.8135              1477.7686
 Red. masses --      1.9910                 1.1601                 1.1072
 Frc consts  --      2.1606                 1.4407                 1.4246
 IR Inten    --    254.5639                 6.0874                33.1726

                     19                     20                     21
                      A                      A                      A
 Frequencies --   1501.9042              1533.7830              1778.6057
 Red. masses --      1.1820                 1.4118                 6.6473
 Frc consts  --      1.5710                 1.9569                12.3895
 IR Inten    --     27.3268               107.6663               253.1894

                     22                     23                     24
                      A                      A                      A
 Frequencies --   3025.9651              3101.0892              3144.3779
 Red. masses --      1.0435                 1.0928                 1.1019
 Frc consts  --      5.6296                 6.1919                 6.4187
 IR Inten    --     42.4307                27.0561                10.6410

                     25                     26                     27
                      A                      A                      A
 Frequencies --   3519.4325              3579.9172              3789.5398
 Red. masses --      1.0743                 1.0748                 1.0651
 Frc consts  --      7.8398                 8.1153                 9.0122
 IR Inten    --      5.1025                 9.3908                28.6733

 - Thermochemistry -
 -------------------
 Temperature   298.150 Kelvin.  Pressure   1.00000 Atm.
 Atom     1 has atomic number  6 and mass  12.00000

 Molecular mass:    74.04801 amu.
 Principal axes and moments of inertia in atomic units:
                           1         2         3
     Eigenvalues --   179.27099 439.37835 604.20101
           X            0.99995   0.00723  -0.00686
           Y           -0.00728   0.99995  -0.00724
           Z            0.00681   0.00729   0.99995
 This molecule is an asymmetric top.
 Rotational symmetry number  1.
 Rotational temperatures (Kelvin)      0.48314     0.19713     0.14335
 Rotational constants (GHZ):          10.06711     4.10749     2.98699
 Zero-point vibrational energy     240329.5 (Joules/Mol)
                                   57.44014 (Kcal/Mol)
 Warning -- explicit consideration of   6 degrees of freedom as
           vibrations may cause significant error
 Vibrational temperatures:    207.18   260.01   399.59   582.10   696.21
          (Kelvin)            769.04   919.88  1034.20  1194.50  1322.74
                             1553.05  1642.23  1659.82  1696.65  1772.22
                             1952.63  2088.83  2126.18  2160.90  2206.77
                             2559.01  4353.68  4461.77  4524.05  5063.67
                             5150.70  5452.30

 Zero-point correction=                           0.091537 (Hartree/Particle)
 Thermal correction to Energy=                    0.097302
 Thermal correction to Enthalpy=                  0.098246
 Thermal correction to Gibbs Free Energy=         0.062923
 Sum of electronic and zero-point Energies=           -264.473614
 Sum of electronic and thermal Energies=              -264.467849
 Sum of electronic and thermal Enthalpies=            -264.466904
 Sum of electronic and thermal Free Energies=         -264.502227

                     E (Thermal)             CV                S
                      KCal/Mol        Cal/Mol-Kelvin    Cal/Mol-Kelvin
 Total                   61.058             19.837             74.343
 Electronic               0.000              0.000              0.000
 Translational            0.889              2.981             38.822
 Rotational               0.889              2.981             25.368
 Vibrational             59.280             13.875             10.152
 Vibration     1          0.616              1.909              2.750
 Vibration     2          0.630              1.866              2.321
 Vibration     3          0.679              1.715              1.548
 Vibration     4          0.770              1.460              0.946
 Vibration     5          0.840              1.286              0.700
 Vibration     6          0.890              1.174              0.577

 Normal termination of Gaussian 09 at Tue Aug 30 11:15:49 2022.

 -----------------------------------------------------------------
 #P Geom=AllCheck Guess=TCheck SCRF=Check CCSD(T,E4T,FrzG4)/GTBas1
 -----------------------------------------------------------------

 Structure from the checkpoint file:  "G4.Frag_626.chk"
 --------
 Frag_626
 --------
 Charge =  0 Multiplicity = 1

 SCF Done:  E(RHF) =  -262.974441574     A.U. after   13 cycles
 E2 =    -0.7565974122D+00 EUMP2 =    -0.26373103898665D+03
 CCSD(T)
 CCSD(T)= -0.26379007538D+03
 \MP4SDQ=-263.7664828\CCSD=-263.7665618\CCSD(T)=-263.7900754\RMSD=3.606
 Normal termination of Gaussian 09 at Tue Aug 30 11:16:39 2022.

 ---------------------------------------------------------
 #P Geom=AllCheck Guess=TCheck SCRF=Check MP4=FrzG4/GTBas2
 ---------------------------------------------------------

 Structure from the checkpoint file:  "G4.Frag_626.chk"
 --------
 Frag_626
 --------
 Charge =  0 Multiplicity = 1

 SCF Done:  E(RHF) =  -262.983865168     A.U. after   12 cycles
 E2 =    -0.7690770284D+00 EUMP2 =    -0.26375294219621D+03
 Normal termination of Gaussian 09 at Tue Aug 30 11:16:55 2022.

 ---------------------------------------------------------
 #P Geom=AllCheck Guess=TCheck SCRF=Check MP4=FrzG4/GTBas3
 ---------------------------------------------------------

 Structure from the checkpoint file:  "G4.Frag_626.chk"
 --------
 Frag_626
 --------
 Charge =  0 Multiplicity = 1

 SCF Done:  E(RHF) =  -263.012641175     A.U. after   11 cycles
 E2 =    -0.9255214490D+00 EUMP2 =    -0.26393816262450D+03
 Normal termination of Gaussian 09 at Tue Aug 30 11:18:10 2022.

 -----------------------------------------------------------
 #P Geom=AllCheck Guess=TCheck SCRF=Check MP2=Full/GTLargeXP
 -----------------------------------------------------------

 Structure from the checkpoint file:  "G4.Frag_626.chk"
 --------
 Frag_626
 --------
 Charge =  0 Multiplicity = 1

 SCF Done:  E(RHF) =  -263.084352381     A.U. after   12 cycles
 E2 =    -0.1210466429D+01 EUMP2 =    -0.26429481881075D+03
 Normal termination of Gaussian 09 at Tue Aug 30 11:18:55 2022.
 SCF Done:  E(RHF) =  -263.105209248     A.U. after    8 cycles
 Normal termination of Gaussian 09 at Tue Aug 30 11:19:48 2022.

                         Standard orientation:
 ---------------------------------------------------------------------
 Center     Atomic      Atomic             Coordinates (Angstroms)
 Number     Number       Type             X           Y           Z
 ---------------------------------------------------------------------
      1          6           0       -1.907652    0.013041   -0.010364
      2          7           0       -0.618791   -0.665778   -0.057386
      3          6           0        0.527027    0.109245    0.005863
      4          7           0        0.503264    1.376897    0.020249
      5          8           0        1.679536   -0.627822    0.026615
      6          1           0       -2.699138   -0.727666   -0.148551
      7          1           0       -1.953324    0.741393   -0.821413
      8          1           0       -2.070587    0.552862    0.930771
      9          1           0       -0.571332   -1.498211    0.514366
     10          1           0        1.450546    1.741936   -0.054439
     11          1           0        1.499980   -1.499283   -0.346698
 ---------------------------------------------------------------------

 SCF Done:  E(RHF) =  -263.109720967     A.U. after    8 cycles

 The electronic state is 1-A.
 Alpha  occ. eigenvalues --  -20.60275 -15.58344 -15.51793 -11.36641 -11.25598
 Alpha  occ. eigenvalues --   -1.43366  -1.25107  -1.16195  -0.94310  -0.80824
 Alpha  occ. eigenvalues --   -0.76783  -0.67675  -0.65191  -0.62501  -0.58140
 Alpha  occ. eigenvalues --   -0.56292  -0.54083  -0.45241  -0.44095  -0.37504
 Alpha virt. eigenvalues --    0.03502   0.04225   0.05099   0.05673   0.06817
 Alpha virt. eigenvalues --    0.07557   0.07805   0.10662   0.11162   0.12598
 Alpha virt. eigenvalues --    0.13358   0.13990   0.14910   0.15940   0.15950

 Mulliken charges:
               1
     1  C   -0.436096
     2  N   -0.424698
     3  C    0.576597
     4  N   -0.726366
     5  O   -0.553108
     6  H    0.179040
     7  H    0.209453
     8  H    0.181351
     9  H    0.305146
    10  H    0.303356
    11  H    0.385325
 Sum of Mulliken charges =  -0.00000

 Dipole moment (field-independent basis, Debye):
    X=             -0.7652    Y=             -3.2024    Z=              0.0778  Tot=              3.2934
 Quadrupole moment (field-independent basis, Debye-Ang):
   XX=            -29.1653   YY=            -29.1027   ZZ=            -31.5341
   XY=              0.5953   XZ=             -1.6354   YZ=             -0.8344

 Normal termination of Gaussian 09 at Tue Aug 30 11:25:23 2022.
