 Gaussian 09, Revision E.01,
 Gaussian 09:  ES64L-G09RevE.01 30-Nov-2015

 -----
 #P G4
 -----

 --------
 Frag_951
 --------
 Symbolic Z-matrix:
 Charge =  0 Multiplicity = 1

 SCF Done:  E(RB3LYP) =  -268.358899583     A.U. after   13 cycles
 SCF Done:  E(RB3LYP) =  -268.374230493     A.U. after   11 cycles
 SCF Done:  E(RB3LYP) =  -268.376436941     A.U. after   11 cycles
 SCF Done:  E(RB3LYP) =  -268.376569015     A.U. after    9 cycles
 SCF Done:  E(RB3LYP) =  -268.376810453     A.U. after   10 cycles
 SCF Done:  E(RB3LYP) =  -268.376119367     A.U. after   13 cycles
 SCF Done:  E(RB3LYP) =  -268.376973899     A.U. after    9 cycles
 SCF Done:  E(RB3LYP) =  -268.377476132     A.U. after   10 cycles
 SCF Done:  E(RB3LYP) =  -268.377891650     A.U. after   11 cycles
 SCF Done:  E(RB3LYP) =  -268.377902268     A.U. after    8 cycles
 SCF Done:  E(RB3LYP) =  -268.377913391     A.U. after    9 cycles
 SCF Done:  E(RB3LYP) =  -268.377915160     A.U. after    9 cycles
 SCF Done:  E(RB3LYP) =  -268.377915208     A.U. after    6 cycles
 Optimization completed.
    -- Stationary point found.
 Normal termination of Gaussian 09 at Tue Aug 30 12:35:43 2022.

 ----------------------------------------------------------
 #P Geom=AllCheck Guess=TCheck SCRF=Check B3LYP/GTBas3 Freq
 ----------------------------------------------------------

 Structure from the checkpoint file:  "G4.Frag_951.chk"
 --------
 Frag_951
 --------
 Charge =  0 Multiplicity = 1

 SCF Done:  E(RB3LYP) =  -268.377915208     A.U. after    1 cycles

  Exact polarizability:  55.542   3.593  41.821   0.001   0.000  26.237
 Approx polarizability:  77.767   9.558  61.623   0.002  -0.000  37.918

                      1                      2                      3
                      A                      A                      A
 Frequencies --     85.2639               170.5269               248.6100
 Red. masses --      1.1575                 1.1918                 3.4152
 Frc consts  --      0.0050                 0.0204                 0.1244
 IR Inten    --     67.4291                71.7065                 3.2078

                      4                      5                      6
                      A                      A                      A
 Frequencies --    277.6139               366.9832               496.9654
 Red. masses --      2.1337                 1.1250                 3.6782
 Frc consts  --      0.0969                 0.0893                 0.5352
 IR Inten    --     36.3251                14.7473                12.7665

                      7                      8                      9
                      A                      A                      A
 Frequencies --    580.1632               651.3505               750.2784
 Red. masses --      3.8323                 4.6520                 1.2703
 Frc consts  --      0.7600                 1.1628                 0.4213
 IR Inten    --      8.8583                 0.1910                56.8311

                     10                     11                     12
                      A                      A                      A
 Frequencies --    868.9746              1024.6078              1063.1129
 Red. masses --      3.0000                 1.9229                 1.3739
 Frc consts  --      1.3347                 1.1894                 0.9149
 IR Inten    --     10.9184               107.1957                 0.2369

                     13                     14                     15
                      A                      A                      A
 Frequencies --   1114.6425              1190.5593              1218.7226
 Red. masses --      2.6076                 1.7199                 1.1980
 Frc consts  --      1.9088                 1.4364                 1.0484
 IR Inten    --      1.4796               155.6819                38.7225

                     16                     17                     18
                      A                      A                      A
 Frequencies --   1342.3415              1407.4341              1452.7326
 Red. masses --      1.6340                 1.3127                 1.9694
 Frc consts  --      1.7348                 1.5321                 2.4488
 IR Inten    --    147.0268                36.3068                58.6589

                     19                     20                     21
                      A                      A                      A
 Frequencies --   1488.8392              1503.2870              1803.1865
 Red. masses --      1.0440                 1.0622                 6.4199
 Frc consts  --      1.3635                 1.4142                12.2986
 IR Inten    --      3.8684                 8.0183               245.1746

                     22                     23                     24
                      A                      A                      A
 Frequencies --   3012.4800              3050.5039              3121.3752
 Red. masses --      1.0401                 1.1000                 1.0948
 Frc consts  --      5.5612                 6.0311                 6.2846
 IR Inten    --     53.9742                33.9494                 9.4916

                     25                     26                     27
                      A                      A                      A
 Frequencies --   3164.1384              3822.2269              3834.7562
 Red. masses --      1.0890                 1.0655                 1.0650
 Frc consts  --      6.4240                 9.1718                 9.2277
 IR Inten    --     22.9284                89.6406                48.7929

 - Thermochemistry -
 -------------------
 Temperature   298.150 Kelvin.  Pressure   1.00000 Atm.
 Atom     1 has atomic number  6 and mass  12.00000

 Molecular mass:    74.03678 amu.
 Principal axes and moments of inertia in atomic units:
                           1         2         3
     Eigenvalues --   178.16508 481.30826 648.30285
           X            1.00000   0.00200   0.00001
           Y           -0.00200   1.00000   0.00001
           Z           -0.00001  -0.00001   1.00000
 This molecule is an asymmetric top.
 Rotational symmetry number  1.
 Rotational temperatures (Kelvin)      0.48614     0.17995     0.13360
 Rotational constants (GHZ):          10.12960     3.74966     2.78379
 Zero-point vibrational energy     233939.8 (Joules/Mol)
                                   55.91295 (Kcal/Mol)
 Warning -- explicit consideration of   7 degrees of freedom as
           vibrations may cause significant error
 Vibrational temperatures:    122.68   245.35   357.69   399.42   528.01
          (Kelvin)            715.02   834.72   937.15  1079.48  1250.26
                             1474.18  1529.58  1603.72  1712.95  1753.47
                             1931.33  2024.98  2090.16  2142.10  2162.89
                             2594.38  4334.28  4388.99  4490.96  4552.48
                             5499.33  5517.35

 Zero-point correction=                           0.089103 (Hartree/Particle)
 Thermal correction to Energy=                    0.095426
 Thermal correction to Enthalpy=                  0.096370
 Thermal correction to Gibbs Free Energy=         0.059676
 Sum of electronic and zero-point Energies=           -268.288812
 Sum of electronic and thermal Energies=              -268.282489
 Sum of electronic and thermal Enthalpies=            -268.281545
 Sum of electronic and thermal Free Energies=         -268.318239

                     E (Thermal)             CV                S
                      KCal/Mol        Cal/Mol-Kelvin    Cal/Mol-Kelvin
 Total                   59.881             21.189             77.230
 Electronic               0.000              0.000              0.000
 Translational            0.889              2.981             38.822
 Rotational               0.889              2.981             25.522
 Vibrational             58.103             15.228             12.886
 Vibration     1          0.601              1.959              3.766
 Vibration     2          0.626              1.879              2.430
 Vibration     3          0.662              1.765              1.740
 Vibration     4          0.679              1.715              1.548
 Vibration     5          0.740              1.540              1.092
 Vibration     6          0.852              1.257              0.666
 Vibration     7          0.937              1.074              0.485

 Optimization completed.
    -- Stationary point found.
 Normal termination of Gaussian 09 at Tue Aug 30 12:36:01 2022.

 -----------------------------------------------------------------
 #P Geom=AllCheck Guess=TCheck SCRF=Check CCSD(T,E4T,FrzG4)/GTBas1
 -----------------------------------------------------------------

 Structure from the checkpoint file:  "G4.Frag_951.chk"
 --------
 Frag_951
 --------
 Charge =  0 Multiplicity = 1

 SCF Done:  E(RHF) =  -266.788558692     A.U. after   12 cycles
 E2 =    -0.7396797827D+00 EUMP2 =    -0.26752823847515D+03
 CCSD(T)
 CCSD(T)= -0.26758717485D+03
 95\MP4SDQ=-267.5649746\CCSD=-267.5649768\CCSD(T)=-267.5871749\RMSD=3.3
 Normal termination of Gaussian 09 at Tue Aug 30 12:36:52 2022.

 ---------------------------------------------------------
 #P Geom=AllCheck Guess=TCheck SCRF=Check MP4=FrzG4/GTBas2
 ---------------------------------------------------------

 Structure from the checkpoint file:  "G4.Frag_951.chk"
 --------
 Frag_951
 --------
 Charge =  0 Multiplicity = 1

 SCF Done:  E(RHF) =  -266.797475039     A.U. after   11 cycles
 E2 =    -0.7510437695D+00 EUMP2 =    -0.26754851880873D+03
 Normal termination of Gaussian 09 at Tue Aug 30 12:37:07 2022.

 ---------------------------------------------------------
 #P Geom=AllCheck Guess=TCheck SCRF=Check MP4=FrzG4/GTBas3
 ---------------------------------------------------------

 Structure from the checkpoint file:  "G4.Frag_951.chk"
 --------
 Frag_951
 --------
 Charge =  0 Multiplicity = 1

 SCF Done:  E(RHF) =  -266.828085809     A.U. after   11 cycles
 E2 =    -0.9151612333D+00 EUMP2 =    -0.26774324704246D+03
 Normal termination of Gaussian 09 at Tue Aug 30 12:38:21 2022.

 -----------------------------------------------------------
 #P Geom=AllCheck Guess=TCheck SCRF=Check MP2=Full/GTLargeXP
 -----------------------------------------------------------

 Structure from the checkpoint file:  "G4.Frag_951.chk"
 --------
 Frag_951
 --------
 Charge =  0 Multiplicity = 1

 SCF Done:  E(RHF) =  -266.900861573     A.U. after   11 cycles
 E2 =    -0.1200876282D+01 EUMP2 =    -0.26810173785459D+03
 Normal termination of Gaussian 09 at Tue Aug 30 12:39:07 2022.
 SCF Done:  E(RHF) =  -266.923375680     A.U. after    9 cycles
 Normal termination of Gaussian 09 at Tue Aug 30 12:40:02 2022.

                         Standard orientation:
 ---------------------------------------------------------------------
 Center     Atomic      Atomic             Coordinates (Angstroms)
 Number     Number       Type             X           Y           Z
 ---------------------------------------------------------------------
      1          6           0       -2.037327    0.034517    0.000025
      2          6           0       -0.710825   -0.667714   -0.000008
      3          6           0        0.468548   -0.044582   -0.000005
      4          8           0        1.695718   -0.642898   -0.000013
      5          8           0        0.607773    1.300698   -0.000061
      6          1           0       -1.904073    1.118753    0.000262
      7          1           0       -2.637510   -0.227973    0.880793
      8          1           0       -2.637372   -0.227591   -0.880959
      9          1           0       -0.701186   -1.753606   -0.000126
     10          1           0        1.577698   -1.598399    0.000161
     11          1           0        1.552149    1.493093    0.000383
 ---------------------------------------------------------------------

 SCF Done:  E(RHF) =  -266.928190477     A.U. after    8 cycles

 The electronic state is 1-A.
 Alpha  occ. eigenvalues --  -20.60249 -20.59284 -11.35315 -11.21301 -11.20606
 Alpha  occ. eigenvalues --   -1.45954  -1.37270  -1.05021  -0.91773  -0.81566
 Alpha  occ. eigenvalues --   -0.76365  -0.65751  -0.63723  -0.60853  -0.58796
 Alpha  occ. eigenvalues --   -0.55113  -0.53226  -0.52992  -0.50616  -0.32005
 Alpha virt. eigenvalues --    0.03797   0.04443   0.04747   0.06257   0.07108
 Alpha virt. eigenvalues --    0.07644   0.07977   0.08998   0.09767   0.10437
 Alpha virt. eigenvalues --    0.12991   0.14648   0.15562   0.15952   0.16487

 Mulliken charges:
               1
     1  C   -0.479155
     2  C   -0.286956
     3  C    0.432120
     4  O   -0.565339
     5  O   -0.567878
     6  H    0.186275
     7  H    0.165867
     8  H    0.165865
     9  H    0.148616
    10  H    0.396395
    11  H    0.404190
 Sum of Mulliken charges =  -0.00000

 Dipole moment (field-independent basis, Debye):
    X=              0.9273    Y=             -1.2973    Z=              0.0010  Tot=              1.5947
 Quadrupole moment (field-independent basis, Debye-Ang):
   XX=            -28.9464   YY=            -26.4955   ZZ=            -32.5867
   XY=              0.6641   XZ=              0.0020   YZ=              0.0011

 Normal termination of Gaussian 09 at Tue Aug 30 12:45:35 2022.
