 Gaussian 09, Revision E.01,
 Gaussian 09:  ES64L-G09RevE.01 30-Nov-2015

 -----
 #P G4
 -----

 --------
 Frag_668
 --------
 Symbolic Z-matrix:
 Charge =  0 Multiplicity = 1

 SCF Done:  E(RB3LYP) =  -249.708207183     A.U. after   12 cycles
 SCF Done:  E(RB3LYP) =  -249.712104538     A.U. after   11 cycles
 SCF Done:  E(RB3LYP) =  -249.712615231     A.U. after   10 cycles
 SCF Done:  E(RB3LYP) =  -249.712845690     A.U. after   10 cycles
 SCF Done:  E(RB3LYP) =  -249.712901400     A.U. after   10 cycles
 SCF Done:  E(RB3LYP) =  -249.712912587     A.U. after    8 cycles
 SCF Done:  E(RB3LYP) =  -249.712915722     A.U. after    8 cycles
 SCF Done:  E(RB3LYP) =  -249.712916090     A.U. after    7 cycles
 Optimization completed.
    -- Stationary point found.
 Normal termination of Gaussian 09 at Fri Aug 26 05:51:20 2022.

 ----------------------------------------------------------
 #P Geom=AllCheck Guess=TCheck SCRF=Check B3LYP/GTBas3 Freq
 ----------------------------------------------------------

 Structure from the checkpoint file:  "G4.Frag_668.chk"
 --------
 Frag_668
 --------
 Charge =  0 Multiplicity = 1

 SCF Done:  E(RB3LYP) =  -249.712916090     A.U. after    1 cycles

  Exact polarizability:  50.434  -0.203  47.270   0.582  -0.248  42.184
 Approx polarizability:  65.504  -0.636  62.241   0.802  -0.226  61.985

                      1                      2                      3
                      A                      A                      A
 Frequencies --    137.8117               231.0480               242.2835
 Red. masses --      2.5085                 1.2640                 1.0354
 Frc consts  --      0.0281                 0.0398                 0.0358
 IR Inten    --      5.0984                 0.0444                 0.4854

                      4                      5                      6
                      A                      A                      A
 Frequencies --    291.3429               355.9709               400.8243
 Red. masses --      1.9901                 2.0324                 1.7526
 Frc consts  --      0.0995                 0.1517                 0.1659
 IR Inten    --      2.5461                15.6574                38.1534

                      7                      8                      9
                      A                      A                      A
 Frequencies --    406.6962               548.7938               847.1718
 Red. masses --      1.4902                 3.1360                 3.8464
 Frc consts  --      0.1452                 0.5565                 1.6265
 IR Inten    --     67.9849                18.6491                26.3167

                     10                     11                     12
                      A                      A                      A
 Frequencies --   1017.0706              1059.9806              1068.7131
 Red. masses --      1.7170                 1.8276                 1.4504
 Frc consts  --      1.0464                 1.2099                 0.9760
 IR Inten    --     27.4840                61.2186                14.7292

                     13                     14                     15
                      A                      A                      A
 Frequencies --   1089.7262              1126.6113              1170.0127
 Red. masses --      4.4144                 1.3479                 1.2892
 Frc consts  --      3.0886                 1.0080                 1.0398
 IR Inten    --     99.4977                 3.8798                 8.1098

                     16                     17                     18
                      A                      A                      A
 Frequencies --   1225.6258              1292.6235              1318.9444
 Red. masses --      1.7536                 1.9991                 2.2756
 Frc consts  --      1.5520                 1.9680                 2.3324
 IR Inten    --     11.9988                27.6953                24.4727

                     19                     20                     21
                      A                      A                      A
 Frequencies --   1394.5541              1430.7144              1439.1958
 Red. masses --      1.2585                 1.1907                 1.1700
 Frc consts  --      1.4420                 1.4360                 1.4278
 IR Inten    --     16.7518                37.3608                19.2441

                     22                     23                     24
                      A                      A                      A
 Frequencies --   1476.1094              1483.7793              1495.1126
 Red. masses --      1.1553                 1.0625                 1.0676
 Frc consts  --      1.4832                 1.3783                 1.4061
 IR Inten    --     16.9222                 7.9109                11.5430

                     25                     26                     27
                      A                      A                      A
 Frequencies --   1504.8394              1516.4196              1524.9250
 Red. masses --      1.0557                 1.0580                 1.1002
 Frc consts  --      1.4086                 1.4335                 1.5073
 IR Inten    --      9.5679                 8.7268                 1.7514

                     28                     29                     30
                      A                      A                      A
 Frequencies --   2926.2206              2932.0193              2947.9360
 Red. masses --      1.0598                 1.0603                 1.0621
 Frc consts  --      5.3467                 5.3707                 5.4382
 IR Inten    --     36.7520                70.4980               129.9523

                     31                     32                     33
                      A                      A                      A
 Frequencies --   2992.3931              3057.7337              3070.5379
 Red. masses --      1.0996                 1.0704                 1.0741
 Frc consts  --      5.8012                 5.8964                 5.9668
 IR Inten    --     61.1776                32.7997                33.3654

                     34                     35                     36
                      A                      A                      A
 Frequencies --   3102.2857              3131.4748              3788.8503
 Red. masses --      1.1029                 1.0994                 1.0650
 Frc consts  --      6.2536                 6.3520                 9.0080
 IR Inten    --     28.8202                12.6416                15.6585

 - Thermochemistry -
 -------------------
 Temperature   298.150 Kelvin.  Pressure   1.00000 Atm.
 Atom     1 has atomic number  6 and mass  12.00000

 Molecular mass:    75.06841 amu.
 Principal axes and moments of inertia in atomic units:
                           1         2         3
     Eigenvalues --   218.76861 479.57999 629.74166
           X            0.99997  -0.00316   0.00696
           Y            0.00315   0.99999   0.00079
           Z           -0.00696  -0.00077   0.99998
 This molecule is an asymmetric top.
 Rotational symmetry number  1.
 Rotational temperatures (Kelvin)      0.39592     0.18060     0.13754
 Rotational constants (GHZ):           8.24954     3.76317     2.86584
 Zero-point vibrational energy     329250.3 (Joules/Mol)
                                   78.69271 (Kcal/Mol)
 Warning -- explicit consideration of   8 degrees of freedom as
           vibrations may cause significant error
 Vibrational temperatures:    198.28   332.43   348.59   419.18   512.16
          (Kelvin)            576.70   585.14   789.59  1218.89  1463.34
                             1525.07  1537.64  1567.87  1620.94  1683.39
                             1763.40  1859.79  1897.66  2006.45  2058.48
                             2070.68  2123.79  2134.82  2151.13  2165.13
                             2181.79  2194.02  4210.17  4218.52  4241.42
                             4305.38  4399.39  4417.81  4463.49  4505.49
                             5451.30

 Zero-point correction=                           0.125405 (Hartree/Particle)
 Thermal correction to Energy=                    0.131813
 Thermal correction to Enthalpy=                  0.132757
 Thermal correction to Gibbs Free Energy=         0.096229
 Sum of electronic and zero-point Energies=           -249.587511
 Sum of electronic and thermal Energies=              -249.581103
 Sum of electronic and thermal Enthalpies=            -249.580159
 Sum of electronic and thermal Free Energies=         -249.616687

                     E (Thermal)             CV                S
                      KCal/Mol        Cal/Mol-Kelvin    Cal/Mol-Kelvin
 Total                   82.714             22.323             76.881
 Electronic               0.000              0.000              0.000
 Translational            0.889              2.981             38.863
 Rotational               0.889              2.981             25.694
 Vibrational             80.936             16.361             12.324
 Vibration     1          0.614              1.916              2.834
 Vibration     2          0.653              1.794              1.871
 Vibration     3          0.658              1.776              1.786
 Vibration     4          0.687              1.690              1.466
 Vibration     5          0.731              1.563              1.140
 Vibration     6          0.767              1.468              0.960
 Vibration     7          0.771              1.456              0.938
 Vibration     8          0.904              1.142              0.547

 Optimization completed.
    -- Stationary point found.
 Normal termination of Gaussian 09 at Fri Aug 26 05:51:45 2022.

 -----------------------------------------------------------------
 #P Geom=AllCheck Guess=TCheck SCRF=Check CCSD(T,E4T,FrzG4)/GTBas1
 -----------------------------------------------------------------

 Structure from the checkpoint file:  "G4.Frag_668.chk"
 --------
 Frag_668
 --------
 Charge =  0 Multiplicity = 1

 SCF Done:  E(RHF) =  -248.123656175     A.U. after   11 cycles
 E2 =    -0.7370482841D+00 EUMP2 =    -0.24886070445962D+03
 CCSD(T)
 CCSD(T)= -0.24893232602D+03
 DQ=-248.9102854\CCSD=-248.9112485\CCSD(T)=-248.932326\RMSD=6.717e-09\P
 Normal termination of Gaussian 09 at Fri Aug 26 05:52:47 2022.

 ---------------------------------------------------------
 #P Geom=AllCheck Guess=TCheck SCRF=Check MP4=FrzG4/GTBas2
 ---------------------------------------------------------

 Structure from the checkpoint file:  "G4.Frag_668.chk"
 --------
 Frag_668
 --------
 Charge =  0 Multiplicity = 1

 SCF Done:  E(RHF) =  -248.131085325     A.U. after   11 cycles
 E2 =    -0.7491821459D+00 EUMP2 =    -0.24888026747113D+03
 Normal termination of Gaussian 09 at Fri Aug 26 05:53:06 2022.

 ---------------------------------------------------------
 #P Geom=AllCheck Guess=TCheck SCRF=Check MP4=FrzG4/GTBas3
 ---------------------------------------------------------

 Structure from the checkpoint file:  "G4.Frag_668.chk"
 --------
 Frag_668
 --------
 Charge =  0 Multiplicity = 1

 SCF Done:  E(RHF) =  -248.157612554     A.U. after   11 cycles
 E2 =    -0.9204411405D+00 EUMP2 =    -0.24907805369470D+03
 Normal termination of Gaussian 09 at Fri Aug 26 05:54:56 2022.

 -----------------------------------------------------------
 #P Geom=AllCheck Guess=TCheck SCRF=Check MP2=Full/GTLargeXP
 -----------------------------------------------------------

 Structure from the checkpoint file:  "G4.Frag_668.chk"
 --------
 Frag_668
 --------
 Charge =  0 Multiplicity = 1

 SCF Done:  E(RHF) =  -248.221572785     A.U. after   11 cycles
 E2 =    -0.1202977601D+01 EUMP2 =    -0.24942455038568D+03
 Normal termination of Gaussian 09 at Fri Aug 26 05:56:03 2022.
 SCF Done:  E(RHF) =  -248.241369715     A.U. after    8 cycles
 Normal termination of Gaussian 09 at Fri Aug 26 05:57:25 2022.

                         Standard orientation:
 ---------------------------------------------------------------------
 Center     Atomic      Atomic             Coordinates (Angstroms)
 Number     Number       Type             X           Y           Z
 ---------------------------------------------------------------------
      1          6           0        1.606821   -0.790667   -0.086529
      2          7           0        0.400378   -0.004044   -0.280061
      3          6           0        0.585599    1.392355    0.092368
      4          6           0       -0.765407   -0.591474    0.350115
      5          8           0       -1.954938   -0.016833   -0.137376
      6          1           0        1.946826   -0.825423    0.965929
      7          1           0        2.420870   -0.365164   -0.682042
      8          1           0        1.441602   -1.819116   -0.423327
      9          1           0        1.347010    1.850644   -0.546567
     10          1           0       -0.356315    1.926370   -0.046634
     11          1           0        0.902033    1.515298    1.145504
     12          1           0       -0.727742   -1.676627    0.167088
     13          1           0       -0.796337   -0.431348    1.442894
     14          1           0       -1.903170   -0.072946   -1.099130
 ---------------------------------------------------------------------

 SCF Done:  E(RHF) =  -248.245786019     A.U. after    8 cycles

 The electronic state is 1-A.
 Alpha  occ. eigenvalues --  -20.55473 -15.55136 -11.30131 -11.24944 -11.24144
 Alpha  occ. eigenvalues --   -1.37070  -1.22052  -0.95515  -0.93587  -0.81716
 Alpha  occ. eigenvalues --   -0.69752  -0.65905  -0.64824  -0.60079  -0.57693
 Alpha  occ. eigenvalues --   -0.54905  -0.53827  -0.51632  -0.49868  -0.45412
 Alpha  occ. eigenvalues --   -0.36543
 Alpha virt. eigenvalues --    0.03872   0.04218   0.04837   0.04929   0.06917
 Alpha virt. eigenvalues --    0.07035   0.07567   0.07764   0.08547   0.09988
 Alpha virt. eigenvalues --    0.13469   0.13673   0.14529   0.14952   0.15891

 Mulliken charges:
               1
     1  C   -0.493990
     2  N   -0.032310
     3  C   -0.478869
     4  C   -0.052885
     5  O   -0.573182
     6  H    0.142817
     7  H    0.170728
     8  H    0.165444
     9  H    0.167354
    10  H    0.200660
    11  H    0.137160
    12  H    0.136514
    13  H    0.138425
    14  H    0.372135
 Sum of Mulliken charges =  -0.00000

 Dipole moment (field-independent basis, Debye):
    X=              1.5931    Y=             -0.5527    Z=             -0.2866  Tot=              1.7104
 Quadrupole moment (field-independent basis, Debye-Ang):
   XX=            -36.0418   YY=            -31.2662   ZZ=            -31.6372
   XY=              0.6381   XZ=              2.1162   YZ=             -0.0683

 Normal termination of Gaussian 09 at Fri Aug 26 06:02:27 2022.
