 Gaussian 09, Revision E.01,
 Gaussian 09:  ES64L-G09RevE.01 30-Nov-2015

 -----
 #P G4
 -----

 ---------
 Frag_1000
 ---------
 Symbolic Z-matrix:
 Charge =  0 Multiplicity = 1

 SCF Done:  E(RB3LYP) =  -400.163635546     A.U. after   12 cycles
 SCF Done:  E(RB3LYP) =  -400.171738772     A.U. after   11 cycles
 SCF Done:  E(RB3LYP) =  -400.173830334     A.U. after   10 cycles
 SCF Done:  E(RB3LYP) =  -400.177632843     A.U. after   11 cycles
 SCF Done:  E(RB3LYP) =  -400.179166417     A.U. after   11 cycles
 SCF Done:  E(RB3LYP) =  -400.179909270     A.U. after   11 cycles
 SCF Done:  E(RB3LYP) =  -400.180109911     A.U. after   10 cycles
 SCF Done:  E(RB3LYP) =  -400.180372446     A.U. after   11 cycles
 SCF Done:  E(RB3LYP) =  -400.180554289     A.U. after   10 cycles
 SCF Done:  E(RB3LYP) =  -400.181268323     A.U. after   13 cycles
 SCF Done:  E(RB3LYP) =  -400.185079716     A.U. after    7 cycles
 SCF Done:  E(RB3LYP) =  -400.185081283     A.U. after    8 cycles
 SCF Done:  E(RB3LYP) =  -400.185081482     A.U. after    7 cycles
 Optimization completed.
    -- Stationary point found.
 Normal termination of Gaussian 09 at Tue Aug 23 16:29:53 2022.

 ----------------------------------------------------------
 #P Geom=AllCheck Guess=TCheck SCRF=Check B3LYP/GTBas3 Freq
 ----------------------------------------------------------

 Structure from the checkpoint file:  "G4.Frag_1000.chk"
 ---------
 Frag_1000
 ---------
 Charge =  0 Multiplicity = 1

 SCF Done:  E(RB3LYP) =  -400.185081482     A.U. after    1 cycles

  Exact polarizability:  55.256  -0.126  50.391  -0.223  -0.582  52.487
 Approx polarizability:  73.160  -1.829  72.907  -0.283   0.297  75.989

                      1                      2                      3
                      A                      A                      A
 Frequencies --    102.6026               177.0490               240.9300
 Red. masses --      4.2001                 1.0862                 2.1610
 Frc consts  --      0.0261                 0.0201                 0.0739
 IR Inten    --      3.5931                56.1243                14.2790

                      4                      5                      6
                      A                      A                      A
 Frequencies --    247.3168               270.4049               283.3559
 Red. masses --      1.3096                 1.4417                 1.1595
 Frc consts  --      0.0472                 0.0621                 0.0549
 IR Inten    --      5.5283                40.8359                91.2942

                      7                      8                      9
                      A                      A                      A
 Frequencies --    316.5578               358.5872               378.9418
 Red. masses --      2.3236                 3.8887                 2.6607
 Frc consts  --      0.1372                 0.2946                 0.2251
 IR Inten    --     15.0736                 5.4277                 1.0774

                     10                     11                     12
                      A                      A                      A
 Frequencies --    448.9871               507.0135               545.9476
 Red. masses --      3.0757                 2.2794                 4.7091
 Frc consts  --      0.3653                 0.3452                 0.8270
 IR Inten    --     21.3186                 2.7177                 3.8861

                     13                     14                     15
                      A                      A                      A
 Frequencies --    629.5439               644.3834               805.3322
 Red. masses --      1.2986                 3.8740                 3.8213
 Frc consts  --      0.3032                 0.9478                 1.4602
 IR Inten    --     83.5762                12.0487                48.8431

                     16                     17                     18
                      A                      A                      A
 Frequencies --    887.9877               927.3976               974.0838
 Red. masses --      1.5981                 1.6148                 1.8089
 Frc consts  --      0.7425                 0.8183                 1.0112
 IR Inten    --     73.1031                49.2431                24.1497

                     19                     20                     21
                      A                      A                      A
 Frequencies --   1048.7490              1074.7129              1093.6642
 Red. masses --      5.5161                 1.7234                 2.2293
 Frc consts  --      3.5746                 1.1728                 1.5710
 IR Inten    --    177.5208                22.6186                64.1755

                     22                     23                     24
                      A                      A                      A
 Frequencies --   1124.2169              1187.9867              1220.9509
 Red. masses --      2.9251                 1.8266                 1.2924
 Frc consts  --      2.1782                 1.5189                 1.1351
 IR Inten    --     79.6936               170.1786                 3.0174

                     25                     26                     27
                      A                      A                      A
 Frequencies --   1323.5578              1343.0545              1383.1375
 Red. masses --      1.8191                 1.3422                 1.6174
 Frc consts  --      1.8776                 1.4265                 1.8230
 IR Inten    --      2.6892                33.7866                64.4170

                     28                     29                     30
                      A                      A                      A
 Frequencies --   1393.7830              1405.5424              1479.6619
 Red. masses --      1.3303                 1.3386                 1.1768
 Frc consts  --      1.5226                 1.5581                 1.5180
 IR Inten    --     18.8071                13.8565                61.0535

                     31                     32                     33
                      A                      A                      A
 Frequencies --   1488.8881              1502.4948              1617.9254
 Red. masses --      1.1555                 1.1566                 1.1161
 Frc consts  --      1.5091                 1.5384                 1.7213
 IR Inten    --     27.0907                23.4887                48.3250

                     34                     35                     36
                      A                      A                      A
 Frequencies --   2980.2155              3027.6487              3097.0938
 Red. masses --      1.0840                 1.0407                 1.0957
 Frc consts  --      5.6727                 5.6208                 6.1924
 IR Inten    --     67.0941                23.2356                25.8613

                     37                     38                     39
                      A                      A                      A
 Frequencies --   3137.0229              3511.9602              3604.1582
 Red. masses --      1.1011                 1.0483                 1.0936
 Frc consts  --      6.3844                 7.6180                 8.3700
 IR Inten    --     12.5696                 3.7082                 7.0671

                     40                     41                     42
                      A                      A                      A
 Frequencies --   3639.8342              3813.5646              3827.8749
 Red. masses --      1.0640                 1.0656                 1.0659
 Frc consts  --      8.3053                 9.1306                 9.2017
 IR Inten    --     96.9615                34.9794                21.7140

 - Thermochemistry -
 -------------------
 Temperature   298.150 Kelvin.  Pressure   1.00000 Atm.
 Atom     1 has atomic number  6 and mass  12.00000

 Molecular mass:   107.05824 amu.
 Principal axes and moments of inertia in atomic units:
                           1         2         3
     Eigenvalues --   534.50807 747.94583 908.39569
           X            0.99833   0.05752  -0.00537
           Y           -0.05766   0.99785  -0.03105
           Z            0.00357   0.03131   0.99950
 This molecule is an asymmetric top.
 Rotational symmetry number  1.
 Warning -- assumption of classical behavior for rotation
           may cause significant error
 Rotational temperatures (Kelvin)      0.16204     0.11580     0.09535
 Rotational constants (GHZ):           3.37645     2.41293     1.98673
 Zero-point vibrational energy     353341.7 (Joules/Mol)
                                   84.45070 (Kcal/Mol)
 Warning -- explicit consideration of  12 degrees of freedom as
           vibrations may cause significant error
 Vibrational temperatures:    147.62   254.73   346.64   355.83   389.05
          (Kelvin)            407.69   455.46   515.93   545.21   645.99
                              729.48   785.50   905.77   927.12  1158.69
                             1277.61  1334.32  1401.49  1508.91  1546.27
                             1573.54  1617.50  1709.25  1756.67  1904.30
                             1932.35  1990.02  2005.34  2022.26  2128.90
                             2142.18  2161.75  2327.83  4287.86  4356.11
                             4456.02  4513.47  5052.92  5185.57  5236.90
                             5486.86  5507.45

 Zero-point correction=                           0.134581 (Hartree/Particle)
 Thermal correction to Energy=                    0.143092
 Thermal correction to Enthalpy=                  0.144037
 Thermal correction to Gibbs Free Energy=         0.102667
 Sum of electronic and zero-point Energies=           -400.050501
 Sum of electronic and thermal Energies=              -400.041989
 Sum of electronic and thermal Enthalpies=            -400.041045
 Sum of electronic and thermal Free Energies=         -400.082415

                     E (Thermal)             CV                S
                      KCal/Mol        Cal/Mol-Kelvin    Cal/Mol-Kelvin
 Total                   89.792             31.606             87.070
 Electronic               0.000              0.000              0.000
 Translational            0.889              2.981             39.921
 Rotational               0.889              2.981             27.387
 Vibrational             88.014             25.644             19.762
 Vibration     1          0.605              1.947              3.404
 Vibration     2          0.628              1.871              2.359
 Vibration     3          0.658              1.778              1.796
 Vibration     4          0.661              1.767              1.750
 Vibration     5          0.674              1.728              1.594
 Vibration     6          0.682              1.705              1.513
 Vibration     7          0.703              1.642              1.328
 Vibration     8          0.733              1.558              1.128
 Vibration     9          0.749              1.515              1.043
 Vibration    10          0.808              1.363              0.799
 Vibration    11          0.862              1.234              0.641
 Vibration    12          0.901              1.149              0.553

 Optimization completed.
    -- Stationary point found.
 Normal termination of Gaussian 09 at Tue Aug 23 16:34:21 2022.

 -----------------------------------------------------------------
 #P Geom=AllCheck Guess=TCheck SCRF=Check CCSD(T,E4T,FrzG4)/GTBas1
 -----------------------------------------------------------------

 Structure from the checkpoint file:  "G4.Frag_1000.chk"
 ---------
 Frag_1000
 ---------
 Charge =  0 Multiplicity = 1

 SCF Done:  E(RHF) =  -397.858628447     A.U. after   12 cycles
 E2 =    -0.1098259113D+01 EUMP2 =    -0.39895688755994D+03
 CCSD(T)
 CCSD(T)= -0.39903660285D+03
 99.0375343\MP4SDQ=-399.0071012\CCSD=-399.0069762\CCSD(T)=-399.0366028\
 Normal termination of Gaussian 09 at Tue Aug 23 16:47:53 2022.

 ---------------------------------------------------------
 #P Geom=AllCheck Guess=TCheck SCRF=Check MP4=FrzG4/GTBas2
 ---------------------------------------------------------

 Structure from the checkpoint file:  "G4.Frag_1000.chk"
 ---------
 Frag_1000
 ---------
 Charge =  0 Multiplicity = 1

 SCF Done:  E(RHF) =  -397.873977370     A.U. after   12 cycles
 E2 =    -0.1119709840D+01 EUMP2 =    -0.39899368720913D+03
 Normal termination of Gaussian 09 at Tue Aug 23 17:04:48 2022.

 ---------------------------------------------------------
 #P Geom=AllCheck Guess=TCheck SCRF=Check MP4=FrzG4/GTBas3
 ---------------------------------------------------------

 Structure from the checkpoint file:  "G4.Frag_1000.chk"
 ---------
 Frag_1000
 ---------
 Charge =  0 Multiplicity = 1

 SCF Done:  E(RHF) =  -397.916400983     A.U. after   11 cycles
 E2 =    -0.1362938915D+01 EUMP2 =    -0.39927933989814D+03
 Normal termination of Gaussian 09 at Tue Aug 23 21:52:31 2022.

 -----------------------------------------------------------
 #P Geom=AllCheck Guess=TCheck SCRF=Check MP2=Full/GTLargeXP
 -----------------------------------------------------------

 Structure from the checkpoint file:  "G4.Frag_1000.chk"
 ---------
 Frag_1000
 ---------
 Charge =  0 Multiplicity = 1

 SCF Done:  E(RHF) =  -398.029210389     A.U. after   11 cycles
 E2 =    -0.1774632279D+01 EUMP2 =    -0.39980384266783D+03
 Normal termination of Gaussian 09 at Tue Aug 23 22:04:04 2022.
 SCF Done:  E(RHF) =  -398.061388539     A.U. after    8 cycles
 Normal termination of Gaussian 09 at Tue Aug 23 22:12:54 2022.

                         Standard orientation:
 ---------------------------------------------------------------------
 Center     Atomic      Atomic             Coordinates (Angstroms)
 Number     Number       Type             X           Y           Z
 ---------------------------------------------------------------------
      1          6           0        1.412670    1.220394   -0.319691
      2          6           0        0.610111   -0.045699   -0.000523
      3          7           0        0.511159   -0.366799    1.420659
      4          8           0        1.232317   -1.187513   -0.564845
      5          6           0       -0.853279    0.060396   -0.502631
      6          8           0       -1.585352   -1.067314   -0.159829
      7          8           0       -1.391441    1.236531    0.085141
      8          1           0        2.443112    1.098418    0.027139
      9          1           0        0.966936    2.095560    0.157376
     10          1           0        1.434535    1.408406   -1.400548
     11          1           0        0.189431    0.451211    1.926895
     12          1           0        1.425519   -0.632608    1.771295
     13          1           0        1.332513   -1.036696   -1.510126
     14          1           0       -0.875946    0.139737   -1.601335
     15          1           0       -1.206526   -1.355392    0.689787
     16          1           0       -2.348900    1.134776    0.048235
 ---------------------------------------------------------------------

 SCF Done:  E(RHF) =  -398.068538101     A.U. after    8 cycles

 The electronic state is 1-A.
 Alpha  occ. eigenvalues --  -20.56534 -20.56460 -20.55424 -15.55238 -11.33367
 Alpha  occ. eigenvalues --  -11.32421 -11.22453  -1.41883  -1.37923  -1.33196
 Alpha  occ. eigenvalues --   -1.18546  -1.00769  -0.91973  -0.81591  -0.75690
 Alpha  occ. eigenvalues --   -0.68976  -0.67628  -0.65671  -0.62800  -0.60844
 Alpha  occ. eigenvalues --   -0.60297  -0.56818  -0.55463  -0.54219  -0.51585
 Alpha  occ. eigenvalues --   -0.48279  -0.47345  -0.44542  -0.41082
 Alpha virt. eigenvalues --    0.03310   0.04313   0.04717   0.05169   0.06766
 Alpha virt. eigenvalues --    0.07087   0.07249   0.07547   0.07940   0.10013
 Alpha virt. eigenvalues --    0.11861   0.12362   0.12848   0.13949   0.14471

 Mulliken charges:
               1
     1  C   -0.563306
     2  C    0.482905
     3  N   -0.794700
     4  O   -0.602732
     5  C    0.242186
     6  O   -0.613688
     7  O   -0.622021
     8  H    0.179968
     9  H    0.202617
    10  H    0.157151
    11  H    0.322530
    12  H    0.313479
    13  H    0.366424
    14  H    0.130121
    15  H    0.409030
    16  H    0.390036
 Sum of Mulliken charges =  -0.00000

 Dipole moment (field-independent basis, Debye):
    X=              1.0717    Y=              1.8745    Z=             -0.3224  Tot=              2.1832
 Quadrupole moment (field-independent basis, Debye-Ang):
   XX=            -41.0107   YY=            -48.7224   ZZ=            -36.9315
   XY=             -0.9480   XZ=             -0.5473   YZ=              0.0055

 Normal termination of Gaussian 09 at Wed Aug 24 02:36:44 2022.
