 Gaussian 09, Revision E.01,
 Gaussian 09:  ES64L-G09RevE.01 30-Nov-2015

 -----
 #P G4
 -----

 --------
 Frag_491
 --------
 Symbolic Z-matrix:
 Charge =  0 Multiplicity = 1

 SCF Done:  E(RB3LYP) =  -266.721707101     A.U. after   14 cycles
 SCF Done:  E(RB3LYP) =  -266.737675466     A.U. after   12 cycles
 SCF Done:  E(RB3LYP) =  -266.738615913     A.U. after   11 cycles
 SCF Done:  E(RB3LYP) =  -266.738664691     A.U. after   10 cycles
 SCF Done:  E(RB3LYP) =  -266.738687132     A.U. after   10 cycles
 SCF Done:  E(RB3LYP) =  -266.738699371     A.U. after    9 cycles
 SCF Done:  E(RB3LYP) =  -266.738708799     A.U. after    9 cycles
 SCF Done:  E(RB3LYP) =  -266.738711535     A.U. after    9 cycles
 SCF Done:  E(RB3LYP) =  -266.738711696     A.U. after    8 cycles
 Optimization completed.
    -- Stationary point found.
 Normal termination of Gaussian 09 at Fri Aug 26 13:55:13 2022.

 ----------------------------------------------------------
 #P Geom=AllCheck Guess=TCheck SCRF=Check B3LYP/GTBas3 Freq
 ----------------------------------------------------------

 Structure from the checkpoint file:  "G4.Frag_491.chk"
 --------
 Frag_491
 --------
 Charge =  0 Multiplicity = 1

 SCF Done:  E(RB3LYP) =  -266.738711696     A.U. after    1 cycles

  Exact polarizability:  64.539   0.947  65.588   0.009   0.002  36.314
 Approx polarizability:  90.723   0.571 101.992   0.026   0.008  56.299

                      1                      2                      3
                      A                      A                      A
 Frequencies --     47.5915               145.1618               225.0072
 Red. masses --      3.4212                 1.0616                 1.0319
 Frc consts  --      0.0046                 0.0132                 0.0308
 IR Inten    --      0.3477                 0.0000                 0.2848

                      4                      5                      6
                      A                      A                      A
 Frequencies --    280.1422               374.1191               428.3259
 Red. masses --      2.8677                 3.1018                 3.8151
 Frc consts  --      0.1326                 0.2558                 0.4124
 IR Inten    --      1.1814                 0.0048                 7.2365

                      7                      8                      9
                      A                      A                      A
 Frequencies --    439.6348               570.4684               603.0470
 Red. masses --      2.7558                 3.3702                 2.1384
 Frc consts  --      0.3138                 0.6462                 0.4582
 IR Inten    --      0.8055                27.4249                 9.7478

                     10                     11                     12
                      A                      A                      A
 Frequencies --    706.1142               858.3428               975.3840
 Red. masses --      3.3891                 1.1171                 1.8040
 Frc consts  --      0.9956                 0.4849                 1.0112
 IR Inten    --      1.8042                 6.5151                 9.0563

                     13                     14                     15
                      A                      A                      A
 Frequencies --    981.1413              1003.9795              1072.5088
 Red. masses --      1.3615                 2.4296                 1.5073
 Frc consts  --      0.7722                 1.4429                 1.0215
 IR Inten    --     84.8507                18.5391                38.1825

                     16                     17                     18
                      A                      A                      A
 Frequencies --   1078.8230              1099.6610              1115.7522
 Red. masses --      1.7556                 1.3199                 1.5303
 Frc consts  --      1.2039                 0.9404                 1.1224
 IR Inten    --      6.5266                 4.4331                24.7338

                     19                     20                     21
                      A                      A                      A
 Frequencies --   1345.6281              1373.6281              1403.5470
 Red. masses --      1.6403                 1.5070                 1.2877
 Frc consts  --      1.7500                 1.6754                 1.4946
 IR Inten    --    124.9026                29.3600                38.0667

                     22                     23                     24
                      A                      A                      A
 Frequencies --   1420.3908              1465.3001              1469.0120
 Red. masses --      1.5558                 1.0551                 1.0471
 Frc consts  --      1.8494                 1.3348                 1.3313
 IR Inten    --     43.6850                12.8153                 1.5809

                     25                     26                     27
                      A                      A                      A
 Frequencies --   1486.4928              1490.7335              1685.3307
 Red. masses --      1.0740                 1.0441                 8.1795
 Frc consts  --      1.3983                 1.3671                13.6883
 IR Inten    --     15.4329                15.2829                48.0432

                     28                     29                     30
                      A                      A                      A
 Frequencies --   1738.6571              3031.5531              3037.7589
 Red. masses --      9.1356                 1.0384                 1.0368
 Frc consts  --     16.2711                 5.6225                 5.6372
 IR Inten    --      1.2896                 1.4486                15.6982

                     31                     32                     33
                      A                      A                      A
 Frequencies --   3084.5367              3097.6952              3121.2753
 Red. masses --      1.0984                 1.0984                 1.1027
 Frc consts  --      6.1574                 6.2102                 6.3294
 IR Inten    --      7.1251                15.0423                18.6425

                     34                     35                     36
                      A                      A                      A
 Frequencies --   3151.2899              3396.0207              3457.9633
 Red. masses --      1.0990                 1.0718                 1.0751
 Frc consts  --      6.4300                 7.2827                 7.5741
 IR Inten    --      7.2089                 6.1200                 0.2302

 - Thermochemistry -
 -------------------
 Temperature   298.150 Kelvin.  Pressure   1.00000 Atm.
 Atom     1 has atomic number  6 and mass  12.00000

 Molecular mass:    84.06875 amu.
 Principal axes and moments of inertia in atomic units:
                           1         2         3
     Eigenvalues --   361.67107 531.88401 871.28670
           X            0.99975   0.02215  -0.00005
           Y           -0.02215   0.99975  -0.00001
           Z            0.00005   0.00002   1.00000
 This molecule is an asymmetric top.
 Rotational symmetry number  1.
 Rotational temperatures (Kelvin)      0.23948     0.16284     0.09941
 Rotational constants (GHZ):           4.99001     3.39311     2.07135
 Zero-point vibrational energy     312596.3 (Joules/Mol)
                                   74.71231 (Kcal/Mol)
 Warning -- explicit consideration of   9 degrees of freedom as
           vibrations may cause significant error
 Vibrational temperatures:     68.47   208.86   323.73   403.06   538.27
          (Kelvin)            616.26   632.54   820.78   867.65  1015.94
                             1234.96  1403.36  1411.64  1444.50  1543.10
                             1552.18  1582.16  1605.32  1936.06  1976.34
                             2019.39  2043.62  2108.24  2113.58  2138.73
                             2144.83  2424.81  2501.54  4361.72  4370.65
                             4437.95  4456.89  4490.81  4534.00  4886.11
                             4975.23

 Zero-point correction=                           0.119062 (Hartree/Particle)
 Thermal correction to Energy=                    0.126031
 Thermal correction to Enthalpy=                  0.126975
 Thermal correction to Gibbs Free Energy=         0.088119
 Sum of electronic and zero-point Energies=           -266.619650
 Sum of electronic and thermal Energies=              -266.612681
 Sum of electronic and thermal Enthalpies=            -266.611737
 Sum of electronic and thermal Free Energies=         -266.650593

                     E (Thermal)             CV                S
                      KCal/Mol        Cal/Mol-Kelvin    Cal/Mol-Kelvin
 Total                   79.085             24.344             81.780
 Electronic               0.000              0.000              0.000
 Translational            0.889              2.981             39.201
 Rotational               0.889              2.981             26.619
 Vibrational             77.308             18.382             15.960
 Vibration     1          0.595              1.978              4.915
 Vibration     2          0.617              1.908              2.735
 Vibration     3          0.650              1.803              1.918
 Vibration     4          0.680              1.710              1.533
 Vibration     5          0.745              1.525              1.063
 Vibration     6          0.790              1.409              0.864
 Vibration     7          0.800              1.384              0.828
 Vibration     8          0.927              1.095              0.503
 Vibration     9          0.961              1.025              0.444

 Normal termination of Gaussian 09 at Fri Aug 26 13:55:44 2022.

 -----------------------------------------------------------------
 #P Geom=AllCheck Guess=TCheck SCRF=Check CCSD(T,E4T,FrzG4)/GTBas1
 -----------------------------------------------------------------

 Structure from the checkpoint file:  "G4.Frag_491.chk"
 --------
 Frag_491
 --------
 Charge =  0 Multiplicity = 1

 SCF Done:  E(RHF) =  -264.996313207     A.U. after   12 cycles
 E2 =    -0.8373028184D+00 EUMP2 =    -0.26583361602559D+03
 CCSD(T)
 CCSD(T)= -0.26591734823D+03
 Q=-265.8852267\CCSD=-265.8854649\CCSD(T)=-265.9173482\RMSD=9.654e-09\P
 Normal termination of Gaussian 09 at Fri Aug 26 13:57:34 2022.

 ---------------------------------------------------------
 #P Geom=AllCheck Guess=TCheck SCRF=Check MP4=FrzG4/GTBas2
 ---------------------------------------------------------

 Structure from the checkpoint file:  "G4.Frag_491.chk"
 --------
 Frag_491
 --------
 Charge =  0 Multiplicity = 1

 SCF Done:  E(RHF) =  -265.003608455     A.U. after   13 cycles
 E2 =    -0.8471253063D+00 EUMP2 =    -0.26585073376139D+03
 Normal termination of Gaussian 09 at Fri Aug 26 13:58:13 2022.

 ---------------------------------------------------------
 #P Geom=AllCheck Guess=TCheck SCRF=Check MP4=FrzG4/GTBas3
 ---------------------------------------------------------

 Structure from the checkpoint file:  "G4.Frag_491.chk"
 --------
 Frag_491
 --------
 Charge =  0 Multiplicity = 1

 SCF Done:  E(RHF) =  -265.029559055     A.U. after   12 cycles
 E2 =    -0.1013948876D+01 EUMP2 =    -0.26604350793075D+03
 Normal termination of Gaussian 09 at Fri Aug 26 14:01:28 2022.

 -----------------------------------------------------------
 #P Geom=AllCheck Guess=TCheck SCRF=Check MP2=Full/GTLargeXP
 -----------------------------------------------------------

 Structure from the checkpoint file:  "G4.Frag_491.chk"
 --------
 Frag_491
 --------
 Charge =  0 Multiplicity = 1

 SCF Done:  E(RHF) =  -265.091791238     A.U. after   12 cycles
 E2 =    -0.1335265387D+01 EUMP2 =    -0.26642705662432D+03
 Normal termination of Gaussian 09 at Fri Aug 26 14:03:21 2022.
 SCF Done:  E(RHF) =  -265.112117077     A.U. after    8 cycles
 Normal termination of Gaussian 09 at Fri Aug 26 14:05:09 2022.

                         Standard orientation:
 ---------------------------------------------------------------------
 Center     Atomic      Atomic             Coordinates (Angstroms)
 Number     Number       Type             X           Y           Z
 ---------------------------------------------------------------------
      1          6           0        1.544156    1.108808   -0.001014
      2          6           0        0.774156   -0.187731    0.000398
      3          7           0        1.405613   -1.291498    0.001043
      4          6           0       -0.748791   -0.136946    0.000084
      5          6           0       -1.425195    1.214021    0.000919
      6          7           0       -1.356706   -1.255727   -0.001279
      7          1           0        1.308100    1.718356    0.878837
      8          1           0        2.611715    0.887666   -0.001213
      9          1           0        1.307363    1.716939   -0.881643
     10          1           0        0.719548   -2.056034    0.001400
     11          1           0       -2.512546    1.104775    0.000346
     12          1           0       -1.136344    1.800093    0.880174
     13          1           0       -1.135661    1.801661   -0.877074
     14          1           0       -2.370481   -1.131791   -0.001498
 ---------------------------------------------------------------------

 SCF Done:  E(RHF) =  -265.116238269     A.U. after    8 cycles

 The electronic state is 1-A.
 Alpha  occ. eigenvalues --  -15.56126 -15.54473 -11.30345 -11.28578 -11.25020
 Alpha  occ. eigenvalues --  -11.23069  -1.24892  -1.18710  -1.02413  -0.97757
 Alpha  occ. eigenvalues --   -0.85232  -0.73006  -0.66975  -0.65193  -0.61497
 Alpha  occ. eigenvalues --   -0.57650  -0.57348  -0.55678  -0.54926  -0.47497
 Alpha  occ. eigenvalues --   -0.44284  -0.41910  -0.39701
 Alpha virt. eigenvalues --    0.03025   0.03977   0.05146   0.05181   0.06649
 Alpha virt. eigenvalues --    0.07051   0.07547   0.08173   0.08299   0.08879
 Alpha virt. eigenvalues --    0.09421   0.10011   0.10143   0.10398   0.13457

 Mulliken charges:
               1
     1  C   -0.570270
     2  C    0.334300
     3  N   -0.595462
     4  C    0.296814
     5  C   -0.590445
     6  N   -0.620372
     7  H    0.176096
     8  H    0.218608
     9  H    0.176129
    10  H    0.319568
    11  H    0.175062
    12  H    0.195716
    13  H    0.195730
    14  H    0.288526
 Sum of Mulliken charges =  -0.00000

 Dipole moment (field-independent basis, Debye):
    X=             -2.5232    Y=              3.4820    Z=              0.0008  Tot=              4.3001
 Quadrupole moment (field-independent basis, Debye-Ang):
   XX=            -37.8705   YY=            -39.5028   ZZ=            -38.1324
   XY=              2.1649   XZ=             -0.0043   YZ=             -0.0031

 Normal termination of Gaussian 09 at Fri Aug 26 14:12:27 2022.
