 Gaussian 09, Revision E.01,
 Gaussian 09:  ES64L-G09RevE.01 30-Nov-2015

 -----
 #P G4
 -----

 --------
 Frag_759
 --------
 Symbolic Z-matrix:
 Charge =  0 Multiplicity = 1

 SCF Done:  E(RB3LYP) =  -344.822578048     A.U. after   12 cycles
 SCF Done:  E(RB3LYP) =  -344.827984120     A.U. after   11 cycles
 SCF Done:  E(RB3LYP) =  -344.828459904     A.U. after   10 cycles
 SCF Done:  E(RB3LYP) =  -344.828716595     A.U. after   10 cycles
 SCF Done:  E(RB3LYP) =  -344.829081598     A.U. after   11 cycles
 SCF Done:  E(RB3LYP) =  -344.829253781     A.U. after   10 cycles
 SCF Done:  E(RB3LYP) =  -344.829367167     A.U. after   10 cycles
 SCF Done:  E(RB3LYP) =  -344.829399322     A.U. after   10 cycles
 SCF Done:  E(RB3LYP) =  -344.829428034     A.U. after   10 cycles
 SCF Done:  E(RB3LYP) =  -344.829434832     A.U. after    9 cycles
 SCF Done:  E(RB3LYP) =  -344.829435335     A.U. after    7 cycles
 SCF Done:  E(RB3LYP) =  -344.829435273     A.U. after    7 cycles
 Optimization completed.
    -- Stationary point found.
 Normal termination of Gaussian 09 at Fri Aug 26 06:11:19 2022.

 ----------------------------------------------------------
 #P Geom=AllCheck Guess=TCheck SCRF=Check B3LYP/GTBas3 Freq
 ----------------------------------------------------------

 Structure from the checkpoint file:  "G4.Frag_759.chk"
 --------
 Frag_759
 --------
 Charge =  0 Multiplicity = 1

 SCF Done:  E(RB3LYP) =  -344.829435273     A.U. after    1 cycles

  Exact polarizability:  49.364   0.250  44.923   0.029  -0.182  42.191
 Approx polarizability:  63.704   1.581  60.640  -0.315   2.026  61.239

                      1                      2                      3
                      A                      A                      A
 Frequencies --    103.9577               160.5580               176.9705
 Red. masses --      1.9184                 1.2902                 1.1332
 Frc consts  --      0.0122                 0.0196                 0.0209
 IR Inten    --     18.6212                51.4457                 3.8927

                      4                      5                      6
                      A                      A                      A
 Frequencies --    241.0126               282.0070               318.4485
 Red. masses --      1.1851                 2.9260                 1.3611
 Frc consts  --      0.0406                 0.1371                 0.0813
 IR Inten    --      4.3340                 4.7690                40.1466

                      7                      8                      9
                      A                      A                      A
 Frequencies --    378.4481               411.1945               508.5829
 Red. masses --      2.5522                 2.0231                 3.8250
 Frc consts  --      0.2154                 0.2015                 0.5829
 IR Inten    --     19.2021                37.8798                 6.6880

                     10                     11                     12
                      A                      A                      A
 Frequencies --    558.5188               600.1069               778.5312
 Red. masses --      3.7981                 4.2607                 4.6085
 Frc consts  --      0.6981                 0.9040                 1.6458
 IR Inten    --     19.5073                 1.7662                13.6831

                     13                     14                     15
                      A                      A                      A
 Frequencies --    904.4560               967.1561              1048.0111
 Red. masses --      2.5318                 1.8839                 1.8897
 Frc consts  --      1.2203                 1.0382                 1.2229
 IR Inten    --     69.0507                60.8189                88.8883

                     16                     17                     18
                      A                      A                      A
 Frequencies --   1112.8719              1134.8832              1183.8326
 Red. masses --      6.3783                 1.9401                 1.2813
 Frc consts  --      4.6542                 1.4722                 1.0580
 IR Inten    --     65.1255               139.8489                 1.9285

                     19                     20                     21
                      A                      A                      A
 Frequencies --   1207.0392              1236.4539              1340.1535
 Red. masses --      2.0341                 2.1830                 1.4506
 Frc consts  --      1.7461                 1.9664                 1.5350
 IR Inten    --    125.0187               114.3406               176.3255

                     22                     23                     24
                      A                      A                      A
 Frequencies --   1383.0171              1442.2129              1470.6955
 Red. masses --      1.2877                 1.7687                 1.1300
 Frc consts  --      1.4512                 2.1675                 1.4400
 IR Inten    --     25.4534                73.6313                13.6320

                     25                     26                     27
                      A                      A                      A
 Frequencies --   1480.4620              1486.5237              1505.8907
 Red. masses --      1.0579                 1.0650                 1.1067
 Frc consts  --      1.3661                 1.3865                 1.4786
 IR Inten    --      1.4923                 3.0245                 6.9026

                     28                     29                     30
                      A                      A                      A
 Frequencies --   1514.7080              3011.8161              3062.2455
 Red. masses --      1.0494                 1.0375                 1.0348
 Frc consts  --      1.4186                 5.5448                 5.7172
 IR Inten    --      5.8189                44.6386                 5.5949

                     31                     32                     33
                      A                      A                      A
 Frequencies --   3081.1008              3124.4567              3142.0863
 Red. masses --      1.0970                 1.1024                 1.1024
 Frc consts  --      6.1358                 6.3406                 6.4128
 IR Inten    --     34.9016                21.6141                16.0690

                     34                     35                     36
                      A                      A                      A
 Frequencies --   3148.3721              3793.4983              3814.7602
 Red. masses --      1.1029                 1.0648                 1.0651
 Frc consts  --      6.4410                 9.0277                 9.1319
 IR Inten    --     12.0530                30.1570                50.0502

 - Thermochemistry -
 -------------------
 Temperature   298.150 Kelvin.  Pressure   1.00000 Atm.
 Atom     1 has atomic number  6 and mass  12.00000

 Molecular mass:    92.04734 amu.
 Principal axes and moments of inertia in atomic units:
                           1         2         3
     Eigenvalues --   375.04599 607.37405 630.27870
           X            0.99980  -0.00987   0.01764
           Y            0.01381   0.97069  -0.23992
           Z           -0.01476   0.24012   0.97063
 This molecule is an asymmetric top.
 Rotational symmetry number  1.
 Rotational temperatures (Kelvin)      0.23094     0.14260     0.13742
 Rotational constants (GHZ):           4.81205     2.97138     2.86340
 Zero-point vibrational energy     305735.8 (Joules/Mol)
                                   73.07262 (Kcal/Mol)
 Warning -- explicit consideration of  11 degrees of freedom as
           vibrations may cause significant error
 Vibrational temperatures:    149.57   231.01   254.62   346.76   405.74
          (Kelvin)            458.18   544.50   591.62   731.74   803.58
                              863.42  1120.13  1301.31  1391.52  1507.85
                             1601.17  1632.84  1703.27  1736.66  1778.98
                             1928.18  1989.85  2075.02  2116.00  2130.05
                             2138.77  2166.64  2179.32  4333.33  4405.88
                             4433.01  4495.39  4520.76  4529.80  5457.99
                             5488.58

 Zero-point correction=                           0.116449 (Hartree/Particle)
 Thermal correction to Energy=                    0.124116
 Thermal correction to Enthalpy=                  0.125060
 Thermal correction to Gibbs Free Energy=         0.085467
 Sum of electronic and zero-point Energies=           -344.712987
 Sum of electronic and thermal Energies=              -344.705319
 Sum of electronic and thermal Enthalpies=            -344.704375
 Sum of electronic and thermal Free Energies=         -344.743969

                     E (Thermal)             CV                S
                      KCal/Mol        Cal/Mol-Kelvin    Cal/Mol-Kelvin
 Total                   77.884             26.900             83.332
 Electronic               0.000              0.000              0.000
 Translational            0.889              2.981             39.471
 Rotational               0.889              2.981             26.465
 Vibrational             76.107             20.938             17.396
 Vibration     1          0.605              1.946              3.379
 Vibration     2          0.622              1.891              2.543
 Vibration     3          0.628              1.871              2.360
 Vibration     4          0.658              1.778              1.795
 Vibration     5          0.681              1.707              1.521
 Vibration     6          0.705              1.638              1.318
 Vibration     7          0.749              1.516              1.045
 Vibration     8          0.775              1.446              0.922
 Vibration     9          0.864              1.231              0.637
 Vibration    10          0.914              1.121              0.527
 Vibration    11          0.958              1.032              0.449

 Normal termination of Gaussian 09 at Fri Aug 26 06:11:51 2022.

 -----------------------------------------------------------------
 #P Geom=AllCheck Guess=TCheck SCRF=Check CCSD(T,E4T,FrzG4)/GTBas1
 -----------------------------------------------------------------

 Structure from the checkpoint file:  "G4.Frag_759.chk"
 --------
 Frag_759
 --------
 Charge =  0 Multiplicity = 1

 SCF Done:  E(RHF) =  -342.836850452     A.U. after   12 cycles
 E2 =    -0.9281905439D+00 EUMP2 =    -0.34376504099563D+03
 CCSD(T)
 CCSD(T)= -0.34383514446D+03
 =-343.8102891\CCSD=-343.8101396\CCSD(T)=-343.8351445\RMSD=3.695e-09\PG
 Normal termination of Gaussian 09 at Fri Aug 26 06:14:02 2022.

 ---------------------------------------------------------
 #P Geom=AllCheck Guess=TCheck SCRF=Check MP4=FrzG4/GTBas2
 ---------------------------------------------------------

 Structure from the checkpoint file:  "G4.Frag_759.chk"
 --------
 Frag_759
 --------
 Charge =  0 Multiplicity = 1

 SCF Done:  E(RHF) =  -342.847954634     A.U. after   11 cycles
 E2 =    -0.9447419661D+00 EUMP2 =    -0.34379269659968D+03
 Normal termination of Gaussian 09 at Fri Aug 26 06:14:47 2022.

 ---------------------------------------------------------
 #P Geom=AllCheck Guess=TCheck SCRF=Check MP4=FrzG4/GTBas3
 ---------------------------------------------------------

 Structure from the checkpoint file:  "G4.Frag_759.chk"
 --------
 Frag_759
 --------
 Charge =  0 Multiplicity = 1

 SCF Done:  E(RHF) =  -342.882210773     A.U. after   10 cycles
 E2 =    -0.1158574687D+01 EUMP2 =    -0.34404078545969D+03
 Normal termination of Gaussian 09 at Fri Aug 26 06:18:42 2022.

 -----------------------------------------------------------
 #P Geom=AllCheck Guess=TCheck SCRF=Check MP2=Full/GTLargeXP
 -----------------------------------------------------------

 Structure from the checkpoint file:  "G4.Frag_759.chk"
 --------
 Frag_759
 --------
 Charge =  0 Multiplicity = 1

 SCF Done:  E(RHF) =  -342.978264163     A.U. after   11 cycles
 E2 =    -0.1510130460D+01 EUMP2 =    -0.34448839462244D+03
 Normal termination of Gaussian 09 at Fri Aug 26 06:20:34 2022.
 SCF Done:  E(RHF) =  -343.006125258     A.U. after    8 cycles
 Normal termination of Gaussian 09 at Fri Aug 26 06:22:23 2022.

                         Standard orientation:
 ---------------------------------------------------------------------
 Center     Atomic      Atomic             Coordinates (Angstroms)
 Number     Number       Type             X           Y           Z
 ---------------------------------------------------------------------
      1          6           0        1.987062    0.009311   -0.022522
      2          8           0        0.781929   -0.513025   -0.554867
      3          6           0       -0.422438   -0.020332    0.009946
      4          6           0       -0.625178    1.474131   -0.213125
      5          8           0       -0.475373   -0.247089    1.386420
      6          8           0       -1.423328   -0.763554   -0.627810
      7          1           0        1.978600   -0.017669    1.072324
      8          1           0        2.794018   -0.625651   -0.394886
      9          1           0        2.169215    1.039574   -0.355825
     10          1           0       -1.638904    1.740839    0.090571
     11          1           0       -0.494472    1.706741   -1.272011
     12          1           0        0.080166    2.060471    0.379757
     13          1           0       -0.618299   -1.195424    1.496024
     14          1           0       -0.972821   -1.298200   -1.291691
 ---------------------------------------------------------------------

 SCF Done:  E(RHF) =  -343.012391765     A.U. after    8 cycles

 The electronic state is 1-A.
 Alpha  occ. eigenvalues --  -20.56935 -20.56693 -20.56569 -11.39454 -11.27713
 Alpha  occ. eigenvalues --  -11.21904  -1.46013  -1.35224  -1.34353  -1.00990
 Alpha  occ. eigenvalues --   -0.94542  -0.82006  -0.73725  -0.72346  -0.67331
 Alpha  occ. eigenvalues --   -0.64186  -0.61561  -0.57079  -0.55394  -0.54485
 Alpha  occ. eigenvalues --   -0.54179  -0.51911  -0.49624  -0.46860  -0.44695
 Alpha virt. eigenvalues --    0.03626   0.04290   0.04568   0.05233   0.06869
 Alpha virt. eigenvalues --    0.07240   0.07351   0.07597   0.08953   0.09853
 Alpha virt. eigenvalues --    0.12432   0.14607   0.14937   0.15479   0.15662

 Mulliken charges:
               1
     1  C   -0.380323
     2  O   -0.406917
     3  C    0.658968
     4  C   -0.525401
     5  O   -0.589690
     6  O   -0.633766
     7  H    0.192464
     8  H    0.185682
     9  H    0.162265
    10  H    0.191819
    11  H    0.184394
    12  H    0.184404
    13  H    0.374779
    14  H    0.401323
 Sum of Mulliken charges =  -0.00000

 Dipole moment (field-independent basis, Debye):
    X=              1.6996    Y=             -0.1446    Z=             -0.4315  Tot=              1.7595
 Quadrupole moment (field-independent basis, Debye-Ang):
   XX=            -37.5994   YY=            -33.1892   ZZ=            -37.5012
   XY=              0.4097   XZ=              0.5598   YZ=             -1.2979

 Normal termination of Gaussian 09 at Fri Aug 26 06:29:36 2022.
