 Gaussian 09, Revision E.01,
 Gaussian 09:  ES64L-G09RevE.01 30-Nov-2015

 -----
 #P G4
 -----

 --------
 Frag_495
 --------
 Symbolic Z-matrix:
 Charge =  0 Multiplicity = 1

 SCF Done:  E(RB3LYP) =  -173.256108154     A.U. after   13 cycles
 SCF Done:  E(RB3LYP) =  -173.259830849     A.U. after   11 cycles
 SCF Done:  E(RB3LYP) =  -173.261089101     A.U. after   11 cycles
 SCF Done:  E(RB3LYP) =  -173.263771039     A.U. after   13 cycles
 SCF Done:  E(RB3LYP) =  -173.264370052     A.U. after   10 cycles
 SCF Done:  E(RB3LYP) =  -173.265077300     A.U. after   11 cycles
 SCF Done:  E(RB3LYP) =  -173.265268069     A.U. after   11 cycles
 SCF Done:  E(RB3LYP) =  -173.265329386     A.U. after   10 cycles
 SCF Done:  E(RB3LYP) =  -173.265346028     A.U. after    9 cycles
 SCF Done:  E(RB3LYP) =  -173.265348400     A.U. after    8 cycles
 SCF Done:  E(RB3LYP) =  -173.265348713     A.U. after    7 cycles
 Optimization completed.
    -- Stationary point found.
 Normal termination of Gaussian 09 at Sat Aug 20 04:32:18 2022.

 ----------------------------------------------------------
 #P Geom=AllCheck Guess=TCheck SCRF=Check B3LYP/GTBas3 Freq
 ----------------------------------------------------------

 Structure from the checkpoint file:  "G4.Frag_495.chk"
 --------
 Frag_495
 --------
 Charge =  0 Multiplicity = 1

 SCF Done:  E(RB3LYP) =  -173.265348713     A.U. after    1 cycles

  Exact polarizability:  54.596   0.217  34.818  -5.002   2.789  32.777
 Approx polarizability:  73.080  -2.305  49.192 -10.827   4.652  48.628

                      1                      2                      3
                      A                      A                      A
 Frequencies --    116.6295               277.9831               333.7621
 Red. masses --      2.4977                 1.0760                 2.0194
 Frc consts  --      0.0200                 0.0490                 0.1325
 IR Inten    --      0.5997                41.9997                 6.9282

                      4                      5                      6
                      A                      A                      A
 Frequencies --    454.6782               657.2667               853.4260
 Red. masses --      2.1127                 1.5594                 1.2606
 Frc consts  --      0.2573                 0.3969                 0.5410
 IR Inten    --      5.4087                 7.8679               124.4550

                      7                      8                      9
                      A                      A                      A
 Frequencies --    899.3719               944.5509               954.6528
 Red. masses --      1.9893                 1.3073                 1.3685
 Frc consts  --      0.9480                 0.6872                 0.7348
 IR Inten    --      4.5002                10.4652                31.6096

                     10                     11                     12
                      A                      A                      A
 Frequencies --   1043.1755              1069.2277              1159.9303
 Red. masses --      1.0981                 2.6537                 1.3412
 Frc consts  --      0.7040                 1.7875                 1.0632
 IR Inten    --     12.5575                 8.0784                 6.3127

                     13                     14                     15
                      A                      A                      A
 Frequencies --   1189.9674              1305.4041              1319.9395
 Red. masses --      1.6589                 1.3062                 1.1674
 Frc consts  --      1.3840                 1.3114                 1.1984
 IR Inten    --      3.4243                 3.4469                 2.2304

                     16                     17                     18
                      A                      A                      A
 Frequencies --   1405.5889              1461.0730              1500.8243
 Red. masses --      1.3039                 1.2236                 1.0942
 Frc consts  --      1.5178                 1.5390                 1.4521
 IR Inten    --     11.2645                11.0465                 0.8654

                     19                     20                     21
                      A                      A                      A
 Frequencies --   1656.3761              1719.2707              2955.0887
 Red. masses --      1.0930                 4.7814                 1.0691
 Frc consts  --      1.7668                 8.3270                 5.5005
 IR Inten    --     21.1915                 3.9625                66.1235

                     22                     23                     24
                      A                      A                      A
 Frequencies --   3020.9276              3138.5662              3152.6714
 Red. masses --      1.0901                 1.0595                 1.0915
 Frc consts  --      5.8611                 6.1492                 6.3920
 IR Inten    --     31.3887                13.0610                 6.4143

                     25                     26                     27
                      A                      A                      A
 Frequencies --   3222.9849              3487.1614              3568.3158
 Red. masses --      1.1139                 1.0490                 1.0926
 Frc consts  --      6.8174                 7.5159                 8.1969
 IR Inten    --     17.1581                 1.5931                 0.0695

 - Thermochemistry -
 -------------------
 Temperature   298.150 Kelvin.  Pressure   1.00000 Atm.
 Atom     1 has atomic number  6 and mass  12.00000

 Molecular mass:    57.05785 amu.
 Principal axes and moments of inertia in atomic units:
                           1         2         3
     Eigenvalues --    70.60139 426.64074 440.01391
           X            0.99991   0.01351   0.00112
           Y           -0.01352   0.98742   0.15754
           Z            0.00103  -0.15754   0.98751
 This molecule is an asymmetric top.
 Rotational symmetry number  1.
 Rotational temperatures (Kelvin)      1.22680     0.20301     0.19684
 Rotational constants (GHZ):          25.56240     4.23012     4.10155
 Zero-point vibrational energy     256412.5 (Joules/Mol)
                                   61.28405 (Kcal/Mol)
 Warning -- explicit consideration of   4 degrees of freedom as
           vibrations may cause significant error
 Vibrational temperatures:    167.80   399.96   480.21   654.18   945.66
          (Kelvin)           1227.89  1293.99  1359.00  1373.53  1500.89
                             1538.38  1668.88  1712.10  1878.18  1899.10
                             2022.33  2102.16  2159.35  2383.15  2473.64
                             4251.71  4346.44  4515.69  4535.99  4637.15
                             5017.24  5134.00

 Zero-point correction=                           0.097662 (Hartree/Particle)
 Thermal correction to Energy=                    0.102765
 Thermal correction to Enthalpy=                  0.103709
 Thermal correction to Gibbs Free Energy=         0.070396
 Sum of electronic and zero-point Energies=           -173.167686
 Sum of electronic and thermal Energies=              -173.162584
 Sum of electronic and thermal Enthalpies=            -173.161639
 Sum of electronic and thermal Free Energies=         -173.194952

                     E (Thermal)             CV                S
                      KCal/Mol        Cal/Mol-Kelvin    Cal/Mol-Kelvin
 Total                   64.486             17.132             70.113
 Electronic               0.000              0.000              0.000
 Translational            0.889              2.981             38.046
 Rotational               0.889              2.981             24.098
 Vibrational             62.709             11.171              7.970
 Vibration     1          0.608              1.936              3.155
 Vibration     2          0.679              1.714              1.546
 Vibration     3          0.715              1.608              1.242
 Vibration     4          0.813              1.351              0.782

 Normal termination of Gaussian 09 at Sat Aug 20 04:33:03 2022.

 -----------------------------------------------------------------
 #P Geom=AllCheck Guess=TCheck SCRF=Check CCSD(T,E4T,FrzG4)/GTBas1
 -----------------------------------------------------------------

 Structure from the checkpoint file:  "G4.Frag_495.chk"
 --------
 Frag_495
 --------
 Charge =  0 Multiplicity = 1

 SCF Done:  E(RHF) =  -172.089189288     A.U. after   12 cycles
 E2 =    -0.5464095408D+00 EUMP2 =    -0.17263559882841D+03
 CCSD(T)
 CCSD(T)= -0.17269869849D+03
 \MP4SDQ=-172.6792334\CCSD=-172.6806174\CCSD(T)=-172.6986985\RMSD=5.088
 Normal termination of Gaussian 09 at Sat Aug 20 04:33:31 2022.

 ---------------------------------------------------------
 #P Geom=AllCheck Guess=TCheck SCRF=Check MP4=FrzG4/GTBas2
 ---------------------------------------------------------

 Structure from the checkpoint file:  "G4.Frag_495.chk"
 --------
 Frag_495
 --------
 Charge =  0 Multiplicity = 1

 SCF Done:  E(RHF) =  -172.096993606     A.U. after   12 cycles
 E2 =    -0.5538350099D+00 EUMP2 =    -0.17265082861622D+03
 Normal termination of Gaussian 09 at Sat Aug 20 04:33:47 2022.

 ---------------------------------------------------------
 #P Geom=AllCheck Guess=TCheck SCRF=Check MP4=FrzG4/GTBas3
 ---------------------------------------------------------

 Structure from the checkpoint file:  "G4.Frag_495.chk"
 --------
 Frag_495
 --------
 Charge =  0 Multiplicity = 1

 SCF Done:  E(RHF) =  -172.114723098     A.U. after   11 cycles
 E2 =    -0.6737253051D+00 EUMP2 =    -0.17278844840349D+03
 Normal termination of Gaussian 09 at Sat Aug 20 04:41:10 2022.

 -----------------------------------------------------------
 #P Geom=AllCheck Guess=TCheck SCRF=Check MP2=Full/GTLargeXP
 -----------------------------------------------------------

 Structure from the checkpoint file:  "G4.Frag_495.chk"
 --------
 Frag_495
 --------
 Charge =  0 Multiplicity = 1

 SCF Done:  E(RHF) =  -172.158190615     A.U. after   12 cycles
 E2 =    -0.8888932702D+00 EUMP2 =    -0.17304708388550D+03
 Normal termination of Gaussian 09 at Sat Aug 20 04:42:06 2022.
 SCF Done:  E(RHF) =  -172.171996163     A.U. after    8 cycles
 Normal termination of Gaussian 09 at Sat Aug 20 04:43:43 2022.

                         Standard orientation:
 ---------------------------------------------------------------------
 Center     Atomic      Atomic             Coordinates (Angstroms)
 Number     Number       Type             X           Y           Z
 ---------------------------------------------------------------------
      1          6           0       -1.841591    0.022788    0.252461
      2          6           0       -0.693939   -0.291237   -0.339445
      3          6           0        0.571200    0.512229   -0.239019
      4          7           0        1.682319   -0.345918    0.194749
      5          1           0       -2.731156   -0.588638    0.143324
      6          1           0       -1.939750    0.913785    0.867178
      7          1           0       -0.614674   -1.195749   -0.939933
      8          1           0        0.393625    1.391816    0.402781
      9          1           0        0.833002    0.897019   -1.234730
     10          1           0        1.521641   -0.645982    1.152031
     11          1           0        2.547057    0.186500    0.202122
 ---------------------------------------------------------------------

 SCF Done:  E(RHF) =  -172.174913946     A.U. after    8 cycles

 The electronic state is 1-A.
 Alpha  occ. eigenvalues --  -15.54284 -11.25534 -11.23044 -11.22145  -1.18164
 Alpha  occ. eigenvalues --   -1.04628  -0.89854  -0.75971  -0.67004  -0.64128
 Alpha  occ. eigenvalues --   -0.59281  -0.57099  -0.53158  -0.48876  -0.40055
 Alpha  occ. eigenvalues --   -0.36589
 Alpha virt. eigenvalues --    0.04062   0.04434   0.05285   0.05616   0.07096
 Alpha virt. eigenvalues --    0.07650   0.07804   0.08864   0.09256   0.10853
 Alpha virt. eigenvalues --    0.12177   0.12664   0.13573   0.15848   0.16730

 Mulliken charges:
               1
     1  C   -0.418743
     2  C   -0.194468
     3  C   -0.149346
     4  N   -0.666262
     5  H    0.186842
     6  H    0.167962
     7  H    0.211639
     8  H    0.126091
     9  H    0.163283
    10  H    0.284959
    11  H    0.288043
 Sum of Mulliken charges =  -0.00000

 Dipole moment (field-independent basis, Debye):
    X=              0.2306    Y=              1.0910    Z=              0.7660  Tot=              1.3528
 Quadrupole moment (field-independent basis, Debye-Ang):
   XX=            -24.6599   YY=            -27.1203   ZZ=            -25.8172
   XY=              2.8184   XZ=              0.9029   YZ=              0.2032

 Normal termination of Gaussian 09 at Sat Aug 20 05:33:06 2022.
