 Gaussian 09, Revision E.01,
 Gaussian 09:  ES64L-G09RevE.01 30-Nov-2015

 -----
 #P G4
 -----

 --------
 Frag_802
 --------
 Symbolic Z-matrix:
 Charge =  0 Multiplicity = 1

 SCF Done:  E(RB3LYP) =  -246.042148450     A.U. after   15 cycles
 SCF Done:  E(RB3LYP) =  -246.051469411     A.U. after   13 cycles
 SCF Done:  E(RB3LYP) =  -246.045583588     A.U. after   14 cycles
 SCF Done:  E(RB3LYP) =  -246.052241011     A.U. after   12 cycles
 SCF Done:  E(RB3LYP) =  -246.052417296     A.U. after   12 cycles
 SCF Done:  E(RB3LYP) =  -246.052442507     A.U. after   12 cycles
 SCF Done:  E(RB3LYP) =  -246.052612719     A.U. after   11 cycles
 SCF Done:  E(RB3LYP) =  -246.052614077     A.U. after    9 cycles
 SCF Done:  E(RB3LYP) =  -246.052604765     A.U. after   10 cycles
 SCF Done:  E(RB3LYP) =  -246.052614781     A.U. after    9 cycles
 Optimization completed.
    -- Stationary point found.
 Normal termination of Gaussian 09 at Mon Aug 22 21:19:53 2022.

 ----------------------------------------------------------
 #P Geom=AllCheck Guess=TCheck SCRF=Check B3LYP/GTBas3 Freq
 ----------------------------------------------------------

 Structure from the checkpoint file:  "G4.Frag_802.chk"
 --------
 Frag_802
 --------
 Charge =  0 Multiplicity = 1

 SCF Done:  E(RB3LYP) =  -246.052614782     A.U. after    1 cycles

  Exact polarizability:  58.836  -0.494  36.065  -0.000  -0.000  19.968
 Approx polarizability:  95.699  -7.304  61.316  -0.000  -0.000  29.276

                      1                      2                      3
                      A                      A                      A
 Frequencies --    114.1066               187.6471               252.3316
 Red. masses --      1.2161                 4.1424                 4.2463
 Frc consts  --      0.0093                 0.0859                 0.1593
 IR Inten    --    200.2561                 7.4084                 0.0088

                      4                      5                      6
                      A                      A                      A
 Frequencies --    487.5661               569.1632               599.6144
 Red. masses --      3.2644                 1.1166                 7.8813
 Frc consts  --      0.4572                 0.2131                 1.6695
 IR Inten    --      4.2764                 2.9492                 6.0579

                      7                      8                      9
                      A                      A                      A
 Frequencies --    664.7017               689.5630               773.6949
 Red. masses --      1.2558                 1.2998                 6.6377
 Frc consts  --      0.3269                 0.3642                 2.3410
 IR Inten    --     39.9358                28.9425                19.3091

                     10                     11                     12
                      A                      A                      A
 Frequencies --    796.1184              1090.6549              1336.0278
 Red. masses --      3.8413                 1.9120                 3.9318
 Frc consts  --      1.4345                 1.3400                 4.1349
 IR Inten    --     18.0081                 2.3137               216.8079

                     13                     14                     15
                      A                      A                      A
 Frequencies --   1608.7381              1781.0689              2227.6622
 Red. masses --      1.2460                10.2375                 5.8893
 Frc consts  --      1.9000                19.1339                17.2191
 IR Inten    --    109.9731               321.8453                38.8900

                     16                     17                     18
                      A                      A                      A
 Frequencies --   3496.4956              3603.3431              3745.7964
 Red. masses --      1.1633                 1.0446                 1.1053
 Frc consts  --      8.3792                 7.9908                 9.1377
 IR Inten    --     53.4226                56.6718                45.8184

 - Thermochemistry -
 -------------------
 Temperature   298.150 Kelvin.  Pressure   1.00000 Atm.
 Atom     1 has atomic number  6 and mass  12.00000

 Molecular mass:    69.02146 amu.
 Principal axes and moments of inertia in atomic units:
                           1         2         3
     Eigenvalues --   158.18573 435.20494 593.39067
           X            0.99923   0.03936  -0.00000
           Y           -0.03936   0.99923  -0.00000
           Z            0.00000   0.00000   1.00000
 This molecule is an asymmetric top.
 Rotational symmetry number  1.
 Rotational temperatures (Kelvin)      0.54755     0.19902     0.14596
 Rotational constants (GHZ):          11.40900     4.14688     3.04140
 Zero-point vibrational energy     143697.2 (Joules/Mol)
                                   34.34445 (Kcal/Mol)
 Warning -- explicit consideration of   6 degrees of freedom as
           vibrations may cause significant error
 Vibrational temperatures:    164.17   269.98   363.05   701.50   818.90
          (Kelvin)            862.71   956.36   992.13  1113.17  1145.44
                             1569.21  1922.24  2314.61  2562.56  3205.11
                             5030.67  5184.40  5389.36

 Zero-point correction=                           0.054731 (Hartree/Particle)
 Thermal correction to Energy=                    0.060358
 Thermal correction to Enthalpy=                  0.061302
 Thermal correction to Gibbs Free Energy=         0.026214
 Sum of electronic and zero-point Energies=           -245.997883
 Sum of electronic and thermal Energies=              -245.992257
 Sum of electronic and thermal Enthalpies=            -245.991313
 Sum of electronic and thermal Free Energies=         -246.026400

                     E (Thermal)             CV                S
                      KCal/Mol        Cal/Mol-Kelvin    Cal/Mol-Kelvin
 Total                   37.875             18.526             73.848
 Electronic               0.000              0.000              0.000
 Translational            0.889              2.981             38.613
 Rotational               0.889              2.981             25.216
 Vibrational             36.098             12.564             10.019
 Vibration     1          0.607              1.938              3.198
 Vibration     2          0.632              1.857              2.251
 Vibration     3          0.664              1.759              1.714
 Vibration     4          0.844              1.278              0.690
 Vibration     5          0.925              1.098              0.506
 Vibration     6          0.958              1.033              0.450

 Optimization completed.
    -- Stationary point found.
 Normal termination of Gaussian 09 at Mon Aug 22 21:20:36 2022.

 -----------------------------------------------------------------
 #P Geom=AllCheck Guess=TCheck SCRF=Check CCSD(T,E4T,FrzG4)/GTBas1
 -----------------------------------------------------------------

 Structure from the checkpoint file:  "G4.Frag_802.chk"
 --------
 Frag_802
 --------
 Charge =  0 Multiplicity = 1

 SCF Done:  E(RHF) =  -244.599390562     A.U. after   15 cycles
 E2 =    -0.7091678857D+00 EUMP2 =    -0.24530855844751D+03
 CCSD(T)
 CCSD(T)= -0.24535695793D+03
 245.3618398\MP4SDQ=-245.3307269\CCSD=-245.3290372\CCSD(T)=-245.3569579
 Normal termination of Gaussian 09 at Mon Aug 22 21:21:34 2022.

 ---------------------------------------------------------
 #P Geom=AllCheck Guess=TCheck SCRF=Check MP4=FrzG4/GTBas2
 ---------------------------------------------------------

 Structure from the checkpoint file:  "G4.Frag_802.chk"
 --------
 Frag_802
 --------
 Charge =  0 Multiplicity = 1

 SCF Done:  E(RHF) =  -244.609695539     A.U. after   15 cycles
 E2 =    -0.7181053619D+00 EUMP2 =    -0.24532780090104D+03
 Normal termination of Gaussian 09 at Mon Aug 22 21:22:10 2022.

 ---------------------------------------------------------
 #P Geom=AllCheck Guess=TCheck SCRF=Check MP4=FrzG4/GTBas3
 ---------------------------------------------------------

 Structure from the checkpoint file:  "G4.Frag_802.chk"
 --------
 Frag_802
 --------
 Charge =  0 Multiplicity = 1

 SCF Done:  E(RHF) =  -244.629142256     A.U. after   14 cycles
 E2 =    -0.8479641200D+00 EUMP2 =    -0.24547710637567D+03
 Normal termination of Gaussian 09 at Mon Aug 22 21:42:35 2022.

 -----------------------------------------------------------
 #P Geom=AllCheck Guess=TCheck SCRF=Check MP2=Full/GTLargeXP
 -----------------------------------------------------------

 Structure from the checkpoint file:  "G4.Frag_802.chk"
 --------
 Frag_802
 --------
 Charge =  0 Multiplicity = 1

 SCF Done:  E(RHF) =  -244.694263127     A.U. after   15 cycles
 E2 =    -0.1119501740D+01 EUMP2 =    -0.24581376486746D+03
 Normal termination of Gaussian 09 at Mon Aug 22 21:44:03 2022.
 SCF Done:  E(RHF) =  -244.713325299     A.U. after    9 cycles
 Normal termination of Gaussian 09 at Mon Aug 22 21:46:04 2022.

                         Standard orientation:
 ---------------------------------------------------------------------
 Center     Atomic      Atomic             Coordinates (Angstroms)
 Number     Number       Type             X           Y           Z
 ---------------------------------------------------------------------
      1          6           0        2.168193   -0.067932   -0.000012
      2          6           0        0.968402    0.006549    0.000030
      3          6           0       -0.484589    0.148497    0.000048
      4          7           0       -1.147904   -1.042478   -0.000021
      5          8           0       -1.036544    1.230342   -0.000020
      6          1           0        3.229851   -0.118109   -0.000079
      7          1           0       -0.659552   -1.920570    0.000024
      8          1           0       -2.154655   -1.029392   -0.000028
 ---------------------------------------------------------------------

 SCF Done:  E(RHF) =  -244.717067801     A.U. after    8 cycles

 The electronic state is 1-A.
 Alpha  occ. eigenvalues --  -20.53613 -15.59933 -11.38787 -11.26483 -11.25748
 Alpha  occ. eigenvalues --   -1.40099  -1.22984  -1.06131  -0.89716  -0.77505
 Alpha  occ. eigenvalues --   -0.73551  -0.69860  -0.62982  -0.59785  -0.46580
 Alpha  occ. eigenvalues --   -0.43062  -0.42450  -0.42396
 Alpha virt. eigenvalues --    0.03197   0.03626   0.05507   0.05830   0.06883
 Alpha virt. eigenvalues --    0.07433   0.07681   0.09945   0.10056   0.10136
 Alpha virt. eigenvalues --    0.11165   0.11250   0.12530   0.13574   0.14560

 Mulliken charges:
               1
     1  C   -0.446395
     2  C    0.220350
     3  C    0.525057
     4  N   -0.708227
     5  O   -0.565873
     6  H    0.261647
     7  H    0.343384
     8  H    0.370058
 Sum of Mulliken charges =  -0.00000

 Dipole moment (field-independent basis, Debye):
    X=              1.3179    Y=             -3.9949    Z=              0.0001  Tot=              4.2066
 Quadrupole moment (field-independent basis, Debye-Ang):
   XX=            -20.1413   YY=            -30.1701   ZZ=            -30.5800
   XY=              4.6531   XZ=             -0.0004   YZ=             -0.0000

 Normal termination of Gaussian 09 at Mon Aug 22 22:41:59 2022.
