 Gaussian 09, Revision E.01,
 Gaussian 09:  ES64L-G09RevE.01 30-Nov-2015

 -----
 #P G4
 -----

 --------
 Frag_805
 --------
 Symbolic Z-matrix:
 Charge =  0 Multiplicity = 1

 SCF Done:  E(RB3LYP) =  -207.967945493     A.U. after   13 cycles
 SCF Done:  E(RB3LYP) =  -207.969183357     A.U. after   11 cycles
 SCF Done:  E(RB3LYP) =  -207.966339654     A.U. after   14 cycles
 SCF Done:  E(RB3LYP) =  -207.969858776     A.U. after   11 cycles
 SCF Done:  E(RB3LYP) =  -207.970187961     A.U. after   10 cycles
 SCF Done:  E(RB3LYP) =  -207.970205671     A.U. after   11 cycles
 SCF Done:  E(RB3LYP) =  -207.970370002     A.U. after   11 cycles
 SCF Done:  E(RB3LYP) =  -207.970416109     A.U. after   10 cycles
 SCF Done:  E(RB3LYP) =  -207.970418472     A.U. after    8 cycles
 Optimization completed.
    -- Stationary point found.
 Normal termination of Gaussian 09 at Fri Aug 26 15:13:09 2022.

 ----------------------------------------------------------
 #P Geom=AllCheck Guess=TCheck SCRF=Check B3LYP/GTBas3 Freq
 ----------------------------------------------------------

 Structure from the checkpoint file:  "G4.Frag_805.chk"
 --------
 Frag_805
 --------
 Charge =  0 Multiplicity = 1

 SCF Done:  E(RB3LYP) =  -207.970418472     A.U. after    1 cycles

  Exact polarizability:  37.285   2.848  25.705   0.358  -0.819  22.261
 Approx polarizability:  60.418   7.492  37.208  -0.341  -1.178  31.957

                      1                      2                      3
                      A                      A                      A
 Frequencies --    219.4869               310.1116               397.6562
 Red. masses --      4.4147                 1.6585                 2.0941
 Frc consts  --      0.1253                 0.0940                 0.1951
 IR Inten    --     10.4981                97.9990                35.3640

                      4                      5                      6
                      A                      A                      A
 Frequencies --    586.1064               894.4296               990.9907
 Red. masses --      8.8205                 4.7900                 1.5936
 Frc consts  --      1.7852                 2.2578                 0.9221
 IR Inten    --      0.9705                13.5628                23.9490

                      7                      8                      9
                      A                      A                      A
 Frequencies --   1081.6391              1223.3026              1374.6224
 Red. masses --      6.4170                 1.0976                 1.2367
 Frc consts  --      4.4233                 0.9677                 1.3768
 IR Inten    --     91.5483                15.5734                 2.3981

                     10                     11                     12
                      A                      A                      A
 Frequencies --   1416.3001              1482.4728              2358.9343
 Red. masses --      1.2073                 1.0736                12.5896
 Frc consts  --      1.4269                 1.3901                41.2755
 IR Inten    --     45.8098                 2.9329                 0.2840

                     13                     14                     15
                      A                      A                      A
 Frequencies --   3005.8485              3092.2021              3814.4643
 Red. masses --      1.0692                 1.0915                 1.0666
 Frc consts  --      5.6915                 6.1491                 9.1432
 IR Inten    --     25.4840                 4.8574                36.3504

 - Thermochemistry -
 -------------------
 Temperature   298.150 Kelvin.  Pressure   1.00000 Atm.
 Atom     1 has atomic number  7 and mass  14.00307

 Molecular mass:    57.02146 amu.
 Principal axes and moments of inertia in atomic units:
                           1         2         3
     Eigenvalues --    53.45853 373.62819 411.87372
           X            0.99994   0.00417   0.00970
           Y           -0.00369   0.99876  -0.04958
           Z           -0.00990   0.04954   0.99872
 This molecule is an asymmetric top.
 Rotational symmetry number  1.
 Rotational temperatures (Kelvin)      1.62021     0.23182     0.21029
 Rotational constants (GHZ):          33.75965     4.83031     4.38178
 Zero-point vibrational energy     133076.0 (Joules/Mol)
                                   31.80592 (Kcal/Mol)
 Warning -- explicit consideration of   4 degrees of freedom as
           vibrations may cause significant error
 Vibrational temperatures:    315.79   446.18   572.14   843.28  1286.88
          (Kelvin)           1425.81  1556.24  1760.06  1977.77  2037.74
                             2132.95  3393.98  4324.74  4448.98  5488.16

 Zero-point correction=                           0.050686 (Hartree/Particle)
 Thermal correction to Energy=                    0.055092
 Thermal correction to Enthalpy=                  0.056037
 Thermal correction to Gibbs Free Energy=         0.024282
 Sum of electronic and zero-point Energies=           -207.919733
 Sum of electronic and thermal Energies=              -207.915326
 Sum of electronic and thermal Enthalpies=            -207.914382
 Sum of electronic and thermal Free Energies=         -207.946136

                     E (Thermal)             CV                S
                      KCal/Mol        Cal/Mol-Kelvin    Cal/Mol-Kelvin
 Total                   34.571             13.643             66.832
 Electronic               0.000              0.000              0.000
 Translational            0.889              2.981             38.044
 Rotational               0.889              2.981             23.624
 Vibrational             32.794              7.682              5.165
 Vibration     1          0.647              1.811              1.963
 Vibration     2          0.699              1.654              1.362
 Vibration     3          0.764              1.475              0.971
 Vibration     4          0.943              1.061              0.474

 Optimization completed.
    -- Stationary point found.
 Normal termination of Gaussian 09 at Fri Aug 26 15:13:20 2022.

 -----------------------------------------------------------------
 #P Geom=AllCheck Guess=TCheck SCRF=Check CCSD(T,E4T,FrzG4)/GTBas1
 -----------------------------------------------------------------

 Structure from the checkpoint file:  "G4.Frag_805.chk"
 --------
 Frag_805
 --------
 Charge =  0 Multiplicity = 1

 SCF Done:  E(RHF) =  -206.764217510     A.U. after   14 cycles
 E2 =    -0.5867290258D+00 EUMP2 =    -0.20735094653530D+03
 CCSD(T)
 CCSD(T)= -0.20739143181D+03
 3712174\CCSD(T)=-207.3914318\RMSD=2.517e-09\PG=C01 [X(C2H3N1O1)]\\@
 Normal termination of Gaussian 09 at Fri Aug 26 15:13:36 2022.

 ---------------------------------------------------------
 #P Geom=AllCheck Guess=TCheck SCRF=Check MP4=FrzG4/GTBas2
 ---------------------------------------------------------

 Structure from the checkpoint file:  "G4.Frag_805.chk"
 --------
 Frag_805
 --------
 Charge =  0 Multiplicity = 1

 SCF Done:  E(RHF) =  -206.771673437     A.U. after   13 cycles
 E2 =    -0.5945997282D+00 EUMP2 =    -0.20736627316478D+03
 Normal termination of Gaussian 09 at Fri Aug 26 15:13:42 2022.

 ---------------------------------------------------------
 #P Geom=AllCheck Guess=TCheck SCRF=Check MP4=FrzG4/GTBas3
 ---------------------------------------------------------

 Structure from the checkpoint file:  "G4.Frag_805.chk"
 --------
 Frag_805
 --------
 Charge =  0 Multiplicity = 1

 SCF Done:  E(RHF) =  -206.789201962     A.U. after   13 cycles
 E2 =    -0.7056179790D+00 EUMP2 =    -0.20749481994103D+03
 Normal termination of Gaussian 09 at Fri Aug 26 15:14:01 2022.

 -----------------------------------------------------------
 #P Geom=AllCheck Guess=TCheck SCRF=Check MP2=Full/GTLargeXP
 -----------------------------------------------------------

 Structure from the checkpoint file:  "G4.Frag_805.chk"
 --------
 Frag_805
 --------
 Charge =  0 Multiplicity = 1

 SCF Done:  E(RHF) =  -206.845546955     A.U. after   13 cycles
 E2 =    -0.9278098241D+00 EUMP2 =    -0.20777335677891D+03
 Normal termination of Gaussian 09 at Fri Aug 26 15:14:15 2022.
 SCF Done:  E(RHF) =  -206.861966284     A.U. after   10 cycles
 Normal termination of Gaussian 09 at Fri Aug 26 15:14:33 2022.

                         Standard orientation:
 ---------------------------------------------------------------------
 Center     Atomic      Atomic             Coordinates (Angstroms)
 Number     Number       Type             X           Y           Z
 ---------------------------------------------------------------------
      1          7           0       -1.910952   -0.280244   -0.015193
      2          6           0       -0.825353    0.114930   -0.005810
      3          6           0        0.570850    0.588085    0.038054
      4          8           0        1.508654   -0.452342   -0.109609
      5          1           0        0.734080    1.278898   -0.794587
      6          1           0        0.709510    1.158459    0.968296
      7          1           0        1.390854   -1.074998    0.616047
 ---------------------------------------------------------------------

 SCF Done:  E(RHF) =  -206.865276567     A.U. after    8 cycles

 The electronic state is 1-A.
 Alpha  occ. eigenvalues --  -20.60109 -15.58482 -11.34880 -11.28383  -1.40963
 Alpha  occ. eigenvalues --   -1.23001  -1.01497  -0.77182  -0.71261  -0.66084
 Alpha  occ. eigenvalues --   -0.58962  -0.56290  -0.51507  -0.48106  -0.47062
 Alpha virt. eigenvalues --    0.03391   0.04553   0.05142   0.05375   0.07613
 Alpha virt. eigenvalues --    0.07824   0.07994   0.11553   0.12306   0.13289
 Alpha virt. eigenvalues --    0.14395   0.14501   0.15692   0.17050   0.18407

 Mulliken charges:
               1
     1  N   -0.427312
     2  C    0.304215
     3  C   -0.135111
     4  O   -0.526719
     5  H    0.216168
     6  H    0.194299
     7  H    0.374460
 Sum of Mulliken charges =  -0.00000

 Dipole moment (field-independent basis, Debye):
    X=              2.6204    Y=              1.3410    Z=              1.3626  Tot=              3.2437
 Quadrupole moment (field-independent basis, Debye-Ang):
   XX=            -32.8764   YY=            -20.8612   ZZ=            -22.0867
   XY=             -1.0463   XZ=              1.9771   YZ=             -1.8000

 Normal termination of Gaussian 09 at Fri Aug 26 15:16:10 2022.
