 Gaussian 09, Revision E.01,
 Gaussian 09:  ES64L-G09RevE.01 30-Nov-2015

 -----
 #P G4
 -----

 ---------
 Frag_1044
 ---------
 Symbolic Z-matrix:
 Charge =  0 Multiplicity = 1

 SCF Done:  E(RB3LYP) =  -420.043236931     A.U. after   12 cycles
 SCF Done:  E(RB3LYP) =  -420.050377355     A.U. after   11 cycles
 SCF Done:  E(RB3LYP) =  -420.051878038     A.U. after   11 cycles
 SCF Done:  E(RB3LYP) =  -420.053427836     A.U. after   11 cycles
 SCF Done:  E(RB3LYP) =  -420.054065793     A.U. after   10 cycles
 SCF Done:  E(RB3LYP) =  -420.054055786     A.U. after   11 cycles
 SCF Done:  E(RB3LYP) =  -420.054253296     A.U. after   11 cycles
 SCF Done:  E(RB3LYP) =  -420.054293497     A.U. after    9 cycles
 SCF Done:  E(RB3LYP) =  -420.054307543     A.U. after    8 cycles
 SCF Done:  E(RB3LYP) =  -420.054322750     A.U. after    9 cycles
 SCF Done:  E(RB3LYP) =  -420.054328530     A.U. after    7 cycles
 SCF Done:  E(RB3LYP) =  -420.054328785     A.U. after    6 cycles
 SCF Done:  E(RB3LYP) =  -420.054328934     A.U. after    7 cycles
 Optimization completed.
    -- Stationary point found.
 Normal termination of Gaussian 09 at Fri Aug 19 08:52:34 2022.

 ----------------------------------------------------------
 #P Geom=AllCheck Guess=TCheck SCRF=Check B3LYP/GTBas3 Freq
 ----------------------------------------------------------

 Structure from the checkpoint file:  "G4.Frag_1044.chk"
 ---------
 Frag_1044
 ---------
 Charge =  0 Multiplicity = 1

 SCF Done:  E(RB3LYP) =  -420.054328934     A.U. after    1 cycles

  Exact polarizability:  49.003  -0.849  49.870   0.556  -0.427  47.963
 Approx polarizability:  67.523  -0.513  73.107  -1.734   0.599  66.300

                      1                      2                      3
                      A                      A                      A
 Frequencies --     88.7887               170.8902               233.0810
 Red. masses --      4.7149                 1.0852                 4.4731
 Frc consts  --      0.0219                 0.0187                 0.1432
 IR Inten    --      5.2332                 0.2356                 4.5498

                      4                      5                      6
                      A                      A                      A
 Frequencies --    255.5893               312.0035               333.3501
 Red. masses --      3.1915                 1.1814                 1.4487
 Frc consts  --      0.1228                 0.0678                 0.0948
 IR Inten    --      5.3479                19.2801                44.2735

                      7                      8                      9
                      A                      A                      A
 Frequencies --    337.7012               376.4665               409.9926
 Red. masses --      1.2738                 2.8509                 2.0116
 Frc consts  --      0.0856                 0.2381                 0.1992
 IR Inten    --     39.0012                12.9369                52.1281

                     10                     11                     12
                      A                      A                      A
 Frequencies --    460.9462               491.9850               531.3970
 Red. masses --      1.2792                 2.5320                 4.9749
 Frc consts  --      0.1601                 0.3611                 0.8277
 IR Inten    --    175.7977                63.9496                 4.9889

                     13                     14                     15
                      A                      A                      A
 Frequencies --    560.4355               646.3626               787.4487
 Red. masses --      3.0892                 4.6517                 3.8970
 Frc consts  --      0.5717                 1.1450                 1.4237
 IR Inten    --     42.5907                25.3762                 7.5342

                     16                     17                     18
                      A                      A                      A
 Frequencies --    945.2961               963.2684              1061.7526
 Red. masses --      2.0576                 2.2307                 2.6930
 Frc consts  --      1.0833                 1.2195                 1.7887
 IR Inten    --     49.4211                43.7790                29.3960

                     19                     20                     21
                      A                      A                      A
 Frequencies --   1079.5397              1106.3850              1131.9359
 Red. masses --      1.8183                 3.0025                 1.9350
 Frc consts  --      1.2485                 2.1655                 1.4608
 IR Inten    --     72.0388               281.7242                92.6446

                     22                     23                     24
                      A                      A                      A
 Frequencies --   1183.0127              1272.4606              1299.9558
 Red. masses --      3.0418                 1.1709                 1.2533
 Frc consts  --      2.5082                 1.1170                 1.2478
 IR Inten    --     63.6287                13.2518                45.3056

                     25                     26                     27
                      A                      A                      A
 Frequencies --   1348.6524              1387.3670              1424.8100
 Red. masses --      1.4481                 1.2408                 1.8139
 Frc consts  --      1.5518                 1.4071                 2.1696
 IR Inten    --     45.6388                20.5969                96.8933

                     28                     29                     30
                      A                      A                      A
 Frequencies --   1435.5832              1449.0686              1472.7656
 Red. masses --      1.5568                 1.5811                 1.0678
 Frc consts  --      1.8903                 1.9561                 1.3646
 IR Inten    --      9.7477                55.0746                 1.4020

                     31                     32                     33
                      A                      A                      A
 Frequencies --   1497.9915              2869.6341              3052.4308
 Red. masses --      1.1119                 1.0805                 1.0395
 Frc consts  --      1.4700                 5.2425                 5.7067
 IR Inten    --     19.1682               112.3526                13.0655

                     34                     35                     36
                      A                      A                      A
 Frequencies --   3132.2803              3156.6001              3779.3788
 Red. masses --      1.0968                 1.1021                 1.0652
 Frc consts  --      6.3401                 6.4699                 8.9641
 IR Inten    --     12.1188                 7.3634                24.6438

                     37                     38                     39
                      A                      A                      A
 Frequencies --   3791.7659              3804.1500              3811.7561
 Red. masses --      1.0648                 1.0659                 1.0650
 Frc consts  --      9.0202                 9.0880                 9.1166
 IR Inten    --     36.1066                24.1713                41.4935

 - Thermochemistry -
 -------------------
 Temperature   298.150 Kelvin.  Pressure   1.00000 Atm.
 Atom     1 has atomic number  6 and mass  12.00000

 Molecular mass:   108.04226 amu.
 Principal axes and moments of inertia in atomic units:
                           1         2         3
     Eigenvalues --   534.99788 752.77881 894.55328
           X            0.99913  -0.01547   0.03882
           Y            0.01657   0.99947  -0.02807
           Z           -0.03837   0.02869   0.99885
 This molecule is an asymmetric top.
 Rotational symmetry number  1.
 Warning -- assumption of classical behavior for rotation
           may cause significant error
 Rotational temperatures (Kelvin)      0.16190     0.11506     0.09682
 Rotational constants (GHZ):           3.37336     2.39744     2.01748
 Zero-point vibrational energy     319727.6 (Joules/Mol)
                                   76.41673 (Kcal/Mol)
 Warning -- explicit consideration of  13 degrees of freedom as
           vibrations may cause significant error
 Vibrational temperatures:    127.75   245.87   335.35   367.74   448.90
          (Kelvin)            479.62   485.88   541.65   589.89   663.20
                              707.86   764.56   806.34   929.97  1132.96
                             1360.07  1385.93  1527.62  1553.21  1591.84
                             1628.60  1702.09  1830.78  1870.34  1940.41
                             1996.11  2049.98  2065.48  2084.88  2118.98
                             2155.27  4128.76  4391.76  4506.65  4541.64
                             5437.68  5455.50  5473.32  5484.26

 Zero-point correction=                           0.121778 (Hartree/Particle)
 Thermal correction to Energy=                    0.130124
 Thermal correction to Enthalpy=                  0.131068
 Thermal correction to Gibbs Free Energy=         0.089910
 Sum of electronic and zero-point Energies=           -419.932551
 Sum of electronic and thermal Energies=              -419.924205
 Sum of electronic and thermal Enthalpies=            -419.923261
 Sum of electronic and thermal Free Energies=         -419.964419

                     E (Thermal)             CV                S
                      KCal/Mol        Cal/Mol-Kelvin    Cal/Mol-Kelvin
 Total                   81.654             30.881             86.624
 Electronic               0.000              0.000              0.000
 Translational            0.889              2.981             39.949
 Rotational               0.889              2.981             27.379
 Vibrational             79.876             24.919             19.297
 Vibration     1          0.602              1.957              3.687
 Vibration     2          0.626              1.878              2.426
 Vibration     3          0.654              1.790              1.855
 Vibration     4          0.666              1.753              1.692
 Vibration     5          0.700              1.651              1.352
 Vibration     6          0.715              1.609              1.244
 Vibration     7          0.718              1.600              1.223
 Vibration     8          0.747              1.520              1.053
 Vibration     9          0.774              1.449              0.927
 Vibration    10          0.819              1.337              0.763
 Vibration    11          0.848              1.268              0.678
 Vibration    12          0.886              1.181              0.584
 Vibration    13          0.916              1.117              0.523

 Optimization completed.
    -- Stationary point found.
 Normal termination of Gaussian 09 at Fri Aug 19 08:56:27 2022.

 -----------------------------------------------------------------
 #P Geom=AllCheck Guess=TCheck SCRF=Check CCSD(T,E4T,FrzG4)/GTBas1
 -----------------------------------------------------------------

 Structure from the checkpoint file:  "G4.Frag_1044.chk"
 ---------
 Frag_1044
 ---------
 Charge =  0 Multiplicity = 1

 SCF Done:  E(RHF) =  -417.688850609     A.U. after   11 cycles
 E2 =    -0.1110284076D+01 EUMP2 =    -0.41879913468427D+03
 CCSD(T)
 CCSD(T)= -0.41887304532D+03
 CCSD(T)=-418.8730453\RMSD=9.715e-09\PG=C01 [X(C3H8O4)]\\@
 Normal termination of Gaussian 09 at Fri Aug 19 09:09:16 2022.

 ---------------------------------------------------------
 #P Geom=AllCheck Guess=TCheck SCRF=Check MP4=FrzG4/GTBas2
 ---------------------------------------------------------

 Structure from the checkpoint file:  "G4.Frag_1044.chk"
 ---------
 Frag_1044
 ---------
 Charge =  0 Multiplicity = 1

 SCF Done:  E(RHF) =  -417.703985146     A.U. after   12 cycles
 E2 =    -0.1132074855D+01 EUMP2 =    -0.41883606000035D+03
 Normal termination of Gaussian 09 at Fri Aug 19 09:24:59 2022.

 ---------------------------------------------------------
 #P Geom=AllCheck Guess=TCheck SCRF=Check MP4=FrzG4/GTBas3
 ---------------------------------------------------------

 Structure from the checkpoint file:  "G4.Frag_1044.chk"
 ---------
 Frag_1044
 ---------
 Charge =  0 Multiplicity = 1

 SCF Done:  E(RHF) =  -417.749294323     A.U. after   11 cycles
 E2 =    -0.1381662766D+01 EUMP2 =    -0.41913095708941D+03
 Normal termination of Gaussian 09 at Fri Aug 19 13:50:54 2022.

 -----------------------------------------------------------
 #P Geom=AllCheck Guess=TCheck SCRF=Check MP2=Full/GTLargeXP
 -----------------------------------------------------------

 Structure from the checkpoint file:  "G4.Frag_1044.chk"
 ---------
 Frag_1044
 ---------
 Charge =  0 Multiplicity = 1

 SCF Done:  E(RHF) =  -417.869948803     A.U. after   12 cycles
 E2 =    -0.1798655510D+01 EUMP2 =    -0.41966860431234D+03
 Normal termination of Gaussian 09 at Fri Aug 19 14:01:35 2022.
 SCF Done:  E(RHF) =  -417.904017953     A.U. after    8 cycles
 Normal termination of Gaussian 09 at Fri Aug 19 14:09:41 2022.

                         Standard orientation:
 ---------------------------------------------------------------------
 Center     Atomic      Atomic             Coordinates (Angstroms)
 Number     Number       Type             X           Y           Z
 ---------------------------------------------------------------------
      1          6           0        0.816493   -0.034222    1.479200
      2          6           0        0.605937   -0.002071   -0.025875
      3          8           0        1.138243   -1.137908   -0.676799
      4          8           0        1.209930    1.188682   -0.510132
      5          6           0       -0.889341    0.001463   -0.425428
      6          8           0       -1.538386    1.122195    0.091705
      7          8           0       -1.568722   -1.107885    0.084395
      8          1           0        0.343562   -0.924152    1.896328
      9          1           0        1.887067   -0.037786    1.707481
     10          1           0        0.365438    0.844665    1.942483
     11          1           0        2.021182   -1.301279   -0.326437
     12          1           0        1.213737    1.123360   -1.473782
     13          1           0       -0.926245   -0.000493   -1.536048
     14          1           0       -0.942216    1.866721   -0.058477
     15          1           0       -1.089579   -1.882733   -0.232283
 ---------------------------------------------------------------------

 SCF Done:  E(RHF) =  -417.911690548     A.U. after    8 cycles

 The electronic state is 1-A.
 Alpha  occ. eigenvalues --  -20.58828 -20.58389 -20.56451 -20.56347 -11.35343
 Alpha  occ. eigenvalues --  -11.34123 -11.22665  -1.44468  -1.40743  -1.36060
 Alpha  occ. eigenvalues --   -1.33700  -1.02932  -0.93461  -0.82774  -0.76519
 Alpha  occ. eigenvalues --   -0.72993  -0.70111  -0.65167  -0.65010  -0.63768
 Alpha  occ. eigenvalues --   -0.59098  -0.56697  -0.55506  -0.55033  -0.52297
 Alpha  occ. eigenvalues --   -0.50973  -0.50194  -0.49087  -0.42255
 Alpha virt. eigenvalues --    0.03138   0.03966   0.04872   0.05164   0.06961
 Alpha virt. eigenvalues --    0.07104   0.07207   0.07533   0.08218   0.09877
 Alpha virt. eigenvalues --    0.12898   0.13096   0.13782   0.14266   0.15027

 Mulliken charges:
               1
     1  C   -0.533818
     2  C    0.433685
     3  O   -0.629010
     4  O   -0.621585
     5  C    0.266507
     6  O   -0.569142
     7  O   -0.580254
     8  H    0.197548
     9  H    0.167212
    10  H    0.196398
    11  H    0.383590
    12  H    0.382562
    13  H    0.134237
    14  H    0.384063
    15  H    0.388006
 Sum of Mulliken charges =  -0.00000

 Dipole moment (field-independent basis, Debye):
    X=              3.3367    Y=             -0.5384    Z=             -1.0927  Tot=              3.5521
 Quadrupole moment (field-independent basis, Debye-Ang):
   XX=            -47.4592   YY=            -39.7432   ZZ=            -39.4022
   XY=             -2.2467   XZ=              2.0223   YZ=             -1.9678

 Normal termination of Gaussian 09 at Fri Aug 19 18:13:50 2022.
