 Gaussian 09, Revision E.01,
 Gaussian 09:  ES64L-G09RevE.01 30-Nov-2015

 -----
 #P G4
 -----

 --------
 Frag_925
 --------
 Symbolic Z-matrix:
 Charge =  0 Multiplicity = 1

 SCF Done:  E(RB3LYP) =  -339.326954805     A.U. after   13 cycles
 SCF Done:  E(RB3LYP) =  -339.345325365     A.U. after   12 cycles
 SCF Done:  E(RB3LYP) =  -339.346421607     A.U. after   12 cycles
 SCF Done:  E(RB3LYP) =  -339.346850955     A.U. after   11 cycles
 SCF Done:  E(RB3LYP) =  -339.347079843     A.U. after   11 cycles
 SCF Done:  E(RB3LYP) =  -339.347342880     A.U. after   10 cycles
 SCF Done:  E(RB3LYP) =  -339.249006004     A.U. after   15 cycles
 SCF Done:  E(RB3LYP) =  -339.347429905     A.U. after   10 cycles
 SCF Done:  E(RB3LYP) =  -339.347887585     A.U. after   11 cycles
 SCF Done:  E(RB3LYP) =  -339.348182950     A.U. after   11 cycles
 SCF Done:  E(RB3LYP) =  -339.349736120     A.U. after    8 cycles
 SCF Done:  E(RB3LYP) =  -339.349737497     A.U. after    7 cycles
 SCF Done:  E(RB3LYP) =  -339.349737759     A.U. after    7 cycles
 Optimization completed.
    -- Stationary point found.
 Normal termination of Gaussian 09 at Sat Aug 20 21:51:48 2022.

 ----------------------------------------------------------
 #P Geom=AllCheck Guess=TCheck SCRF=Check B3LYP/GTBas3 Freq
 ----------------------------------------------------------

 Structure from the checkpoint file:  "G4.Frag_925.chk"
 --------
 Frag_925
 --------
 Charge =  0 Multiplicity = 1

 SCF Done:  E(RB3LYP) =  -339.349737759     A.U. after    1 cycles

  Exact polarizability:  68.692  -4.741  69.804   0.357  -0.736  49.275
 Approx polarizability:  92.937 -10.315 109.801   2.289  -2.486  72.330

                      1                      2                      3
                      A                      A                      A
 Frequencies --     97.8276               242.7578               272.5832
 Red. masses --      3.7290                 2.3882                 1.1220
 Frc consts  --      0.0210                 0.0829                 0.0491
 IR Inten    --      0.8876                 1.8467                 7.0908

                      4                      5                      6
                      A                      A                      A
 Frequencies --    294.4029               342.3648               354.3965
 Red. masses --      1.7656                 1.6090                 1.3600
 Frc consts  --      0.0902                 0.1111                 0.1006
 IR Inten    --      5.7811                17.8108                40.4308

                      7                      8                      9
                      A                      A                      A
 Frequencies --    404.6816               425.5460               442.3686
 Red. masses --      2.1978                 2.0509                 1.5236
 Frc consts  --      0.2121                 0.2188                 0.1757
 IR Inten    --     19.3067                 9.0114                15.9706

                     10                     11                     12
                      A                      A                      A
 Frequencies --    465.6147               531.8730               542.8403
 Red. masses --      1.9868                 2.6935                 2.5809
 Frc consts  --      0.2538                 0.4489                 0.4481
 IR Inten    --      9.9009                15.8353                32.3570

                     13                     14                     15
                      A                      A                      A
 Frequencies --    663.3330               713.1058               725.1459
 Red. masses --      2.0752                 1.3031                 3.4024
 Frc consts  --      0.5380                 0.3904                 1.0541
 IR Inten    --    119.0520                57.5708                 5.1806

                     16                     17                     18
                      A                      A                      A
 Frequencies --    768.4536               832.9909               846.8350
 Red. masses --      1.4286                 1.4147                 1.2801
 Frc consts  --      0.4970                 0.5784                 0.5409
 IR Inten    --     76.0212                91.0931               225.0448

                     19                     20                     21
                      A                      A                      A
 Frequencies --    871.0459               944.6635               982.5805
 Red. masses --      2.1574                 2.3076                 1.4959
 Frc consts  --      0.9644                 1.2133                 0.8509
 IR Inten    --     42.0467               146.3695                30.2243

                     22                     23                     24
                      A                      A                      A
 Frequencies --    996.3231              1027.3768              1120.5486
 Red. masses --      1.3834                 2.1764                 1.4844
 Frc consts  --      0.8091                 1.3535                 1.0982
 IR Inten    --     30.2334                43.6572                 2.3223

                     25                     26                     27
                      A                      A                      A
 Frequencies --   1162.9236              1232.6601              1326.7494
 Red. masses --      1.2185                 2.5378                 1.7726
 Frc consts  --      0.9709                 2.2719                 1.8384
 IR Inten    --      4.2558                94.1994                46.6574

                     28                     29                     30
                      A                      A                      A
 Frequencies --   1342.1813              1393.6129              1444.4424
 Red. masses --      2.1387                 2.2555                 1.2050
 Frc consts  --      2.2699                 2.5809                 1.4813
 IR Inten    --      6.8005                23.5889                 6.9532

                     31                     32                     33
                      A                      A                      A
 Frequencies --   1612.9987              1622.7481              1634.9707
 Red. masses --      1.1282                 1.1448                 1.0996
 Frc consts  --      1.7295                 1.7762                 1.7318
 IR Inten    --     63.6471                13.2867                67.5690

                     34                     35                     36
                      A                      A                      A
 Frequencies --   1644.2973              1713.1687              3155.6903
 Red. masses --      1.1085                 5.2682                 1.0653
 Frc consts  --      1.7658                 9.1099                 6.2506
 IR Inten    --     39.4084                75.3541                13.5101

                     37                     38                     39
                      A                      A                      A
 Frequencies --   3267.9127              3483.3762              3498.1718
 Red. masses --      1.1085                 1.0485                 1.0494
 Frc consts  --      6.9746                 7.4955                 7.5660
 IR Inten    --      3.6817                 0.8937                 1.6923

                     40                     41                     42
                      A                      A                      A
 Frequencies --   3501.1833              3531.5749              3574.1818
 Red. masses --      1.0483                 1.0475                 1.0933
 Frc consts  --      7.5711                 7.6972                 8.2292
 IR Inten    --      0.7343                27.8090                 1.3364

                     43                     44                     45
                      A                      A                      A
 Frequencies --   3579.9693              3591.7920              3646.8174
 Red. masses --      1.0917                 1.0933                 1.0965
 Frc consts  --      8.2434                 8.3105                 8.5920
 IR Inten    --      3.7362                 1.1377                22.5430

 - Thermochemistry -
 -------------------
 Temperature   298.150 Kelvin.  Pressure   1.00000 Atm.
 Atom     1 has atomic number  6 and mass  12.00000

 Molecular mass:   102.09055 amu.
 Principal axes and moments of inertia in atomic units:
                           1         2         3
     Eigenvalues --   533.72302 736.61204 919.52435
           X            0.99992  -0.00548  -0.01153
           Y            0.00543   0.99997  -0.00482
           Z            0.01155   0.00476   0.99992
 This molecule is an asymmetric top.
 Rotational symmetry number  1.
 Warning -- assumption of classical behavior for rotation
           may cause significant error
 Rotational temperatures (Kelvin)      0.16228     0.11758     0.09419
 Rotational constants (GHZ):           3.38142     2.45006     1.96269
 Zero-point vibrational energy     393996.6 (Joules/Mol)
                                   94.16744 (Kcal/Mol)
 Warning -- explicit consideration of  12 degrees of freedom as
           vibrations may cause significant error
 Vibrational temperatures:    140.75   349.27   392.19   423.58   492.59
          (Kelvin)            509.90   582.25   612.26   636.47   669.91
                              765.25   781.03   954.39  1026.00  1043.32
                             1105.63  1198.49  1218.41  1253.24  1359.16
                             1413.71  1433.48  1478.16  1612.22  1673.19
                             1773.52  1908.89  1931.10  2005.10  2078.23
                             2320.74  2334.77  2352.36  2365.77  2464.86
                             4540.33  4701.79  5011.80  5033.08  5037.42
                             5081.14  5142.44  5150.77  5167.78  5246.95

 Zero-point correction=                           0.150065 (Hartree/Particle)
 Thermal correction to Energy=                    0.158131
 Thermal correction to Enthalpy=                  0.159076
 Thermal correction to Gibbs Free Energy=         0.118848
 Sum of electronic and zero-point Energies=           -339.199672
 Sum of electronic and thermal Energies=              -339.191606
 Sum of electronic and thermal Enthalpies=            -339.190662
 Sum of electronic and thermal Free Energies=         -339.230890

                     E (Thermal)             CV                S
                      KCal/Mol        Cal/Mol-Kelvin    Cal/Mol-Kelvin
 Total                   99.229             32.006             84.665
 Electronic               0.000              0.000              0.000
 Translational            0.889              2.981             39.780
 Rotational               0.889              2.981             27.383
 Vibrational             97.451             26.045             17.503
 Vibration     1          0.603              1.951              3.497
 Vibration     2          0.659              1.775              1.783
 Vibration     3          0.676              1.724              1.580
 Vibration     4          0.689              1.684              1.449
 Vibration     5          0.721              1.591              1.201
 Vibration     6          0.730              1.566              1.147
 Vibration     7          0.770              1.460              0.946
 Vibration     8          0.787              1.415              0.873
 Vibration     9          0.802              1.378              0.819
 Vibration    10          0.823              1.326              0.750
 Vibration    11          0.887              1.179              0.583
 Vibration    12          0.898              1.155              0.559

 Optimization completed.
    -- Stationary point found.
 Normal termination of Gaussian 09 at Sat Aug 20 21:56:52 2022.

 -----------------------------------------------------------------
 #P Geom=AllCheck Guess=TCheck SCRF=Check CCSD(T,E4T,FrzG4)/GTBas1
 -----------------------------------------------------------------

 Structure from the checkpoint file:  "G4.Frag_925.chk"
 --------
 Frag_925
 --------
 Charge =  0 Multiplicity = 1

 SCF Done:  E(RHF) =  -337.180268988     A.U. after   12 cycles
 E2 =    -0.1046420746D+01 EUMP2 =    -0.33822668973421D+03
 CCSD(T)
 CCSD(T)= -0.33831874903D+03
 42338\CCSD=-338.2851219\CCSD(T)=-338.318749\RMSD=8.351e-09\PG=C01 [X(C
 Normal termination of Gaussian 09 at Sat Aug 20 22:12:12 2022.

 ---------------------------------------------------------
 #P Geom=AllCheck Guess=TCheck SCRF=Check MP4=FrzG4/GTBas2
 ---------------------------------------------------------

 Structure from the checkpoint file:  "G4.Frag_925.chk"
 --------
 Frag_925
 --------
 Charge =  0 Multiplicity = 1

 SCF Done:  E(RHF) =  -337.195501733     A.U. after   12 cycles
 E2 =    -0.1065447479D+01 EUMP2 =    -0.33826094921108D+03
 Normal termination of Gaussian 09 at Sat Aug 20 22:32:30 2022.

 ---------------------------------------------------------
 #P Geom=AllCheck Guess=TCheck SCRF=Check MP4=FrzG4/GTBas3
 ---------------------------------------------------------

 Structure from the checkpoint file:  "G4.Frag_925.chk"
 --------
 Frag_925
 --------
 Charge =  0 Multiplicity = 1

 SCF Done:  E(RHF) =  -337.233500093     A.U. after   11 cycles
 E2 =    -0.1276724767D+01 EUMP2 =    -0.33851022485965D+03
 Normal termination of Gaussian 09 at Sun Aug 21 03:22:16 2022.

 -----------------------------------------------------------
 #P Geom=AllCheck Guess=TCheck SCRF=Check MP2=Full/GTLargeXP
 -----------------------------------------------------------

 Structure from the checkpoint file:  "G4.Frag_925.chk"
 --------
 Frag_925
 --------
 Charge =  0 Multiplicity = 1

 SCF Done:  E(RHF) =  -337.322443856     A.U. after   12 cycles
 E2 =    -0.1667945924D+01 EUMP2 =    -0.33899038977910D+03
 Normal termination of Gaussian 09 at Sun Aug 21 03:35:13 2022.
 SCF Done:  E(RHF) =  -337.348204266     A.U. after    8 cycles
 Normal termination of Gaussian 09 at Sun Aug 21 03:44:49 2022.

                         Standard orientation:
 ---------------------------------------------------------------------
 Center     Atomic      Atomic             Coordinates (Angstroms)
 Number     Number       Type             X           Y           Z
 ---------------------------------------------------------------------
      1          6           0       -1.637262    1.250403   -0.017849
      2          6           0       -0.950889    0.101453   -0.020027
      3          7           0       -1.531726   -1.164840    0.073100
      4          6           0        0.585988    0.028535    0.000122
      5          7           0        1.150743    1.351361   -0.227037
      6          7           0        0.981098   -1.029609   -0.952975
      7          7           0        1.120623   -0.413056    1.290558
      8          1           0       -1.130292    2.202034    0.034230
      9          1           0       -2.722766    1.255296   -0.007632
     10          1           0       -2.526288   -1.187360   -0.099658
     11          1           0       -1.017504   -1.863487   -0.449246
     12          1           0        0.862985    1.707427   -1.132357
     13          1           0        2.163146    1.274296   -0.219931
     14          1           0        1.971726   -1.214127   -0.821391
     15          1           0        0.848514   -0.699433   -1.904784
     16          1           0        0.631794   -1.261159    1.563674
     17          1           0        0.886492    0.297180    1.978098
 ---------------------------------------------------------------------

 SCF Done:  E(RHF) =  -337.353785755     A.U. after    8 cycles

 The electronic state is 1-A.
 Alpha  occ. eigenvalues --  -15.54998 -15.54776 -15.54321 -15.54074 -11.32700
 Alpha  occ. eigenvalues --  -11.26629 -11.19516  -1.27481  -1.19666  -1.13469
 Alpha  occ. eigenvalues --   -1.12893  -0.99381  -0.86047  -0.74885  -0.71019
 Alpha  occ. eigenvalues --   -0.69667  -0.66271  -0.64033  -0.60399  -0.58106
 Alpha  occ. eigenvalues --   -0.57374  -0.54921  -0.52502  -0.48801  -0.46086
 Alpha  occ. eigenvalues --   -0.40774  -0.38885  -0.31560
 Alpha virt. eigenvalues --    0.03510   0.04344   0.04890   0.05491   0.06531
 Alpha virt. eigenvalues --    0.06851   0.07724   0.07942   0.08281   0.09845
 Alpha virt. eigenvalues --    0.11089   0.11439   0.12212   0.12422   0.12753

 Mulliken charges:
               1
     1  C   -0.569871
     2  C    0.238633
     3  N   -0.772321
     4  C    0.494293
     5  N   -0.765533
     6  N   -0.760222
     7  N   -0.732565
     8  H    0.212809
     9  H    0.160082
    10  H    0.306117
    11  H    0.349226
    12  H    0.300920
    13  H    0.302572
    14  H    0.316096
    15  H    0.289785
    16  H    0.316581
    17  H    0.313399
 Sum of Mulliken charges =  -0.00000

 Dipole moment (field-independent basis, Debye):
    X=              0.1141    Y=             -0.3770    Z=             -1.9042  Tot=              1.9446
 Quadrupole moment (field-independent basis, Debye-Ang):
   XX=            -40.7680   YY=            -45.9946   ZZ=            -42.1915
   XY=              2.3026   XZ=             -2.4297   YZ=             -0.4365

 Normal termination of Gaussian 09 at Sun Aug 21 08:30:38 2022.
