 Gaussian 09, Revision E.01,
 Gaussian 09:  ES64L-G09RevE.01 30-Nov-2015

 -----
 #P G4
 -----

 ---------
 Frag_1049
 ---------
 Symbolic Z-matrix:
 Charge =  0 Multiplicity = 1

 SCF Done:  E(RB3LYP) =  -264.430109435     A.U. after   15 cycles
 SCF Done:  E(RB3LYP) =  -264.483392417     A.U. after   12 cycles
 SCF Done:  E(RB3LYP) =  -264.518863339     A.U. after   13 cycles
 SCF Done:  E(RB3LYP) =  -264.527288280     A.U. after   12 cycles
 SCF Done:  E(RB3LYP) =  -264.533310508     A.U. after   12 cycles
 SCF Done:  E(RB3LYP) =  -264.536121566     A.U. after   12 cycles
 SCF Done:  E(RB3LYP) =  -264.537872025     A.U. after   11 cycles
 SCF Done:  E(RB3LYP) =  -264.538327643     A.U. after   11 cycles
 SCF Done:  E(RB3LYP) =  -264.538562090     A.U. after   11 cycles
 SCF Done:  E(RB3LYP) =  -264.538774615     A.U. after   11 cycles
 SCF Done:  E(RB3LYP) =  -264.540469580     A.U. after    8 cycles
 SCF Done:  E(RB3LYP) =  -264.540470990     A.U. after    7 cycles
 SCF Done:  E(RB3LYP) =  -264.540471405     A.U. after    8 cycles
 Optimization completed.
    -- Stationary point found.
 Normal termination of Gaussian 09 at Tue Aug 30 12:07:03 2022.

 ----------------------------------------------------------
 #P Geom=AllCheck Guess=TCheck SCRF=Check B3LYP/GTBas3 Freq
 ----------------------------------------------------------

 Structure from the checkpoint file:  "G4.Frag_1049.chk"
 ---------
 Frag_1049
 ---------
 Charge =  0 Multiplicity = 1

 SCF Done:  E(RB3LYP) =  -264.540471405     A.U. after    1 cycles

  Exact polarizability:  55.546   4.240  44.832   1.675  -0.407  25.215
 Approx polarizability:  82.412  10.677  64.112   1.147   0.893  38.020

                      1                      2                      3
                      A                      A                      A
 Frequencies --    239.6642               252.3979               302.0582
 Red. masses --      1.2945                 2.9821                 2.2847
 Frc consts  --      0.0438                 0.1119                 0.1228
 IR Inten    --    100.1186                 1.8547                75.4967

                      4                      5                      6
                      A                      A                      A
 Frequencies --    346.9333               406.6565               444.7937
 Red. masses --      1.1667                 1.1731                 2.6214
 Frc consts  --      0.0827                 0.1143                 0.3056
 IR Inten    --      8.2409                58.4776                 2.0176

                      7                      8                      9
                      A                      A                      A
 Frequencies --    561.3077               612.3783               695.9558
 Red. masses --      2.2827                 4.0577                 1.3870
 Frc consts  --      0.4237                 0.8965                 0.3958
 IR Inten    --     58.8331                17.8011                86.7674

                     10                     11                     12
                      A                      A                      A
 Frequencies --    810.9510               822.6143               925.8627
 Red. masses --      1.6321                 1.3685                 3.4185
 Frc consts  --      0.6324                 0.5456                 1.7265
 IR Inten    --    223.8716               166.4916                 1.2484

                     13                     14                     15
                      A                      A                      A
 Frequencies --   1095.3357              1158.2802              1195.3955
 Red. masses --      3.0362                 1.3444                 1.5748
 Frc consts  --      2.1462                 1.0627                 1.3258
 IR Inten    --     66.9612                 8.0401                62.6528

                     16                     17                     18
                      A                      A                      A
 Frequencies --   1236.8869              1352.5329              1427.9753
 Red. masses --      1.1189                 1.7410                 2.2997
 Frc consts  --      1.0086                 1.8765                 2.7628
 IR Inten    --     52.7941                20.3858                26.9412

                     19                     20                     21
                      A                      A                      A
 Frequencies --   1626.0408              1632.2637              1769.0207
 Red. masses --      1.1604                 1.1409                 5.4456
 Frc consts  --      1.8076                 1.7910                10.0407
 IR Inten    --     31.7134                65.6100                57.5071

                     22                     23                     24
                      A                      A                      A
 Frequencies --   3157.4541              3503.0057              3515.8458
 Red. masses --      1.0902                 1.0506                 1.0478
 Frc consts  --      6.4036                 7.5958                 7.6314
 IR Inten    --     26.4322                 2.1899                 5.8185

                     25                     26                     27
                      A                      A                      A
 Frequencies --   3612.4693              3621.3165              3772.2211
 Red. masses --      1.0917                 1.0945                 1.0666
 Frc consts  --      8.3935                 8.4568                 8.9425
 IR Inten    --      4.4609                14.8401                19.3065

 - Thermochemistry -
 -------------------
 Temperature   298.150 Kelvin.  Pressure   1.00000 Atm.
 Atom     1 has atomic number  7 and mass  14.00307

 Molecular mass:    74.04801 amu.
 Principal axes and moments of inertia in atomic units:
                           1         2         3
     Eigenvalues --   184.91013 464.62939 638.04334
           X            0.99985  -0.00319   0.01724
           Y            0.00359   0.99972  -0.02351
           Z           -0.01716   0.02357   0.99957
 This molecule is an asymmetric top.
 Rotational symmetry number  1.
 Rotational temperatures (Kelvin)      0.46841     0.18641     0.13575
 Rotational constants (GHZ):           9.76010     3.88426     2.82856
 Zero-point vibrational energy     239837.0 (Joules/Mol)
                                   57.32242 (Kcal/Mol)
 Warning -- explicit consideration of   8 degrees of freedom as
           vibrations may cause significant error
 Vibrational temperatures:    344.82   363.14   434.59   499.16   585.09
          (Kelvin)            639.96   807.60   881.07  1001.32  1166.78
                             1183.56  1332.11  1575.94  1666.50  1719.91
                             1779.60  1945.99  2054.54  2339.51  2348.46
                             2545.22  4542.87  5040.04  5058.51  5197.53
                             5210.26  5427.38

 Zero-point correction=                           0.091349 (Hartree/Particle)
 Thermal correction to Energy=                    0.097266
 Thermal correction to Enthalpy=                  0.098210
 Thermal correction to Gibbs Free Energy=         0.062952
 Sum of electronic and zero-point Energies=           -264.449122
 Sum of electronic and thermal Energies=              -264.443206
 Sum of electronic and thermal Enthalpies=            -264.442262
 Sum of electronic and thermal Free Energies=         -264.477520

                     E (Thermal)             CV                S
                      KCal/Mol        Cal/Mol-Kelvin    Cal/Mol-Kelvin
 Total                   61.035             21.501             74.206
 Electronic               0.000              0.000              0.000
 Translational            0.889              2.981             38.822
 Rotational               0.889              2.981             25.508
 Vibrational             59.258             15.540              9.876
 Vibration     1          0.657              1.780              1.805
 Vibration     2          0.664              1.759              1.714
 Vibration     3          0.694              1.670              1.405
 Vibration     4          0.725              1.582              1.180
 Vibration     5          0.771              1.456              0.939
 Vibration     6          0.804              1.372              0.812
 Vibration     7          0.917              1.115              0.521
 Vibration     8          0.972              1.006              0.429

 Optimization completed.
    -- Stationary point found.
 Normal termination of Gaussian 09 at Tue Aug 30 12:07:21 2022.

 -----------------------------------------------------------------
 #P Geom=AllCheck Guess=TCheck SCRF=Check CCSD(T,E4T,FrzG4)/GTBas1
 -----------------------------------------------------------------

 Structure from the checkpoint file:  "G4.Frag_1049.chk"
 ---------
 Frag_1049
 ---------
 Charge =  0 Multiplicity = 1

 SCF Done:  E(RHF) =  -262.942162673     A.U. after   12 cycles
 E2 =    -0.7583843883D+00 EUMP2 =    -0.26370054706181D+03
 CCSD(T)
 CCSD(T)= -0.26376051426D+03
 \MP4SDQ=-263.7375577\CCSD=-263.7378779\CCSD(T)=-263.7605143\RMSD=7.579
 Normal termination of Gaussian 09 at Tue Aug 30 12:08:14 2022.

 ---------------------------------------------------------
 #P Geom=AllCheck Guess=TCheck SCRF=Check MP4=FrzG4/GTBas2
 ---------------------------------------------------------

 Structure from the checkpoint file:  "G4.Frag_1049.chk"
 ---------
 Frag_1049
 ---------
 Charge =  0 Multiplicity = 1

 SCF Done:  E(RHF) =  -262.954481841     A.U. after   13 cycles
 E2 =    -0.7724786147D+00 EUMP2 =    -0.26372696045542D+03
 Normal termination of Gaussian 09 at Tue Aug 30 12:08:30 2022.

 ---------------------------------------------------------
 #P Geom=AllCheck Guess=TCheck SCRF=Check MP4=FrzG4/GTBas3
 ---------------------------------------------------------

 Structure from the checkpoint file:  "G4.Frag_1049.chk"
 ---------
 Frag_1049
 ---------
 Charge =  0 Multiplicity = 1

 SCF Done:  E(RHF) =  -262.984208414     A.U. after   11 cycles
 E2 =    -0.9276865671D+00 EUMP2 =    -0.26391189498154D+03
 Normal termination of Gaussian 09 at Tue Aug 30 12:09:45 2022.

 -----------------------------------------------------------
 #P Geom=AllCheck Guess=TCheck SCRF=Check MP2=Full/GTLargeXP
 -----------------------------------------------------------

 Structure from the checkpoint file:  "G4.Frag_1049.chk"
 ---------
 Frag_1049
 ---------
 Charge =  0 Multiplicity = 1

 SCF Done:  E(RHF) =  -263.059198677     A.U. after   12 cycles
 E2 =    -0.1214111807D+01 EUMP2 =    -0.26427331048415D+03
 Normal termination of Gaussian 09 at Tue Aug 30 12:10:33 2022.
 SCF Done:  E(RHF) =  -263.080417902     A.U. after    9 cycles
 Normal termination of Gaussian 09 at Tue Aug 30 12:11:25 2022.

                         Standard orientation:
 ---------------------------------------------------------------------
 Center     Atomic      Atomic             Coordinates (Angstroms)
 Number     Number       Type             X           Y           Z
 ---------------------------------------------------------------------
      1          7           0        1.703296   -0.647567   -0.107186
      2          6           0        0.442431   -0.034877    0.002548
      3          7           0        0.520034    1.359853    0.084653
      4          6           0       -0.719365   -0.704986    0.032628
      5          8           0       -1.925061   -0.007513    0.071872
      6          1           0        2.335802   -0.331531    0.621382
      7          1           0        1.642127   -1.657656   -0.090918
      8          1           0       -0.404327    1.771139    0.042901
      9          1           0        1.128748    1.751550   -0.625112
     10          1           0       -0.766225   -1.785396    0.135419
     11          1           0       -2.437346   -0.234826   -0.711977
 ---------------------------------------------------------------------

 SCF Done:  E(RHF) =  -263.085019565     A.U. after    8 cycles

 The electronic state is 1-A.
 Alpha  occ. eigenvalues --  -20.56435 -15.56271 -15.55584 -11.29522 -11.24710
 Alpha  occ. eigenvalues --   -1.36951  -1.25032  -1.15023  -0.96516  -0.77948
 Alpha  occ. eigenvalues --   -0.71339  -0.70848  -0.65304  -0.61111  -0.60361
 Alpha  occ. eigenvalues --   -0.57951  -0.51234  -0.48167  -0.42468  -0.29936
 Alpha virt. eigenvalues --    0.03921   0.04535   0.05031   0.06435   0.07035
 Alpha virt. eigenvalues --    0.08235   0.08350   0.10628   0.11101   0.12692
 Alpha virt. eigenvalues --    0.13170   0.13860   0.14105   0.14891   0.15160

 Mulliken charges:
               1
     1  N   -0.709554
     2  C    0.375650
     3  N   -0.728499
     4  C   -0.170399
     5  O   -0.581245
     6  H    0.316927
     7  H    0.304181
     8  H    0.336804
     9  H    0.317559
    10  H    0.163355
    11  H    0.375221
 Sum of Mulliken charges =  -0.00000

 Dipole moment (field-independent basis, Debye):
    X=              0.5060    Y=             -0.7918    Z=             -1.2280  Tot=              1.5463
 Quadrupole moment (field-independent basis, Debye-Ang):
   XX=            -28.3871   YY=            -26.1923   ZZ=            -32.3258
   XY=             -0.2749   XZ=              5.2402   YZ=             -2.4206

 Normal termination of Gaussian 09 at Tue Aug 30 12:16:56 2022.
