 Gaussian 09, Revision E.01,
 Gaussian 09:  ES64L-G09RevE.01 30-Nov-2015

 -----
 #P G4
 -----

 --------
 Frag_931
 --------
 Symbolic Z-matrix:
 Charge =  0 Multiplicity = 1

 SCF Done:  E(RB3LYP) =  -242.378795283     A.U. after   13 cycles
 SCF Done:  E(RB3LYP) =  -242.381129807     A.U. after   11 cycles
 SCF Done:  E(RB3LYP) =  -242.381201763     A.U. after   10 cycles
 SCF Done:  E(RB3LYP) =  -242.381230744     A.U. after    9 cycles
 SCF Done:  E(RB3LYP) =  -242.381259576     A.U. after   10 cycles
 SCF Done:  E(RB3LYP) =  -242.381282650     A.U. after   11 cycles
 SCF Done:  E(RB3LYP) =  -242.381292443     A.U. after    9 cycles
 SCF Done:  E(RB3LYP) =  -242.381296926     A.U. after    8 cycles
 SCF Done:  E(RB3LYP) =  -242.381295080     A.U. after    9 cycles
 SCF Done:  E(RB3LYP) =  -242.381295865     A.U. after    8 cycles
 Optimization completed.
    -- Stationary point found.
 Normal termination of Gaussian 09 at Tue Aug 30 10:26:12 2022.

 ----------------------------------------------------------
 #P Geom=AllCheck Guess=TCheck SCRF=Check B3LYP/GTBas3 Freq
 ----------------------------------------------------------

 Structure from the checkpoint file:  "G4.Frag_931.chk"
 --------
 Frag_931
 --------
 Charge =  0 Multiplicity = 1

 SCF Done:  E(RB3LYP) =  -242.381295865     A.U. after    1 cycles

  Exact polarizability:  33.547  -0.740  30.622  -0.839  -0.240  26.197
 Approx polarizability:  45.658  -1.625  42.624  -0.769  -1.141  39.612

                      1                      2                      3
                      A                      A                      A
 Frequencies --    176.0385               236.0074               316.9423
 Red. masses --      1.0878                 1.0758                 1.2315
 Frc consts  --      0.0199                 0.0353                 0.0729
 IR Inten    --    105.5074                14.1716                69.0648

                      4                      5                      6
                      A                      A                      A
 Frequencies --    496.7655               538.6163               592.3972
 Red. masses --      2.5640                 3.9810                 2.8637
 Frc consts  --      0.3728                 0.6805                 0.5921
 IR Inten    --      2.4354                13.2855                10.7767

                      7                      8                      9
                      A                      A                      A
 Frequencies --    832.4487               865.0966               905.2263
 Red. masses --      5.7287                 1.9121                 3.5579
 Frc consts  --      2.3390                 0.8431                 1.7177
 IR Inten    --      3.7399               292.4886                24.2327

                     10                     11                     12
                      A                      A                      A
 Frequencies --   1071.4907              1174.1422              1264.6365
 Red. masses --      2.1160                 2.0197                 1.1122
 Frc consts  --      1.4314                 1.6405                 1.0480
 IR Inten    --     11.9523                72.1149                 2.2525

                     13                     14                     15
                      A                      A                      A
 Frequencies --   1368.9803              1435.1744              1618.2513
 Red. masses --      1.3114                 1.2805                 1.0854
 Frc consts  --      1.4481                 1.5540                 1.6746
 IR Inten    --     27.7671                30.4658                 2.1279

                     16                     17                     18
                      A                      A                      A
 Frequencies --   1656.8872              3349.4003              3361.4643
 Red. masses --      1.0901                 1.0536                 1.0577
 Frc consts  --      1.7633                 6.9639                 7.0413
 IR Inten    --     33.3138                21.6633                 5.9116

                     19                     20                     21
                      A                      A                      A
 Frequencies --   3538.5892              3562.9604              3795.1363
 Red. masses --      1.0848                 1.0831                 1.0667
 Frc consts  --      8.0034                 8.1007                 9.0518
 IR Inten    --      1.3113                 4.2287                40.5651

 - Thermochemistry -
 -------------------
 Temperature   298.150 Kelvin.  Pressure   1.00000 Atm.
 Atom     1 has atomic number  7 and mass  14.00307

 Molecular mass:    63.04326 amu.
 Principal axes and moments of inertia in atomic units:
                           1         2         3
     Eigenvalues --   182.92178 187.80066 328.85132
           X            0.72812  -0.68501  -0.02449
           Y            0.68538   0.72810   0.01128
           Z            0.01011  -0.02500   0.99964
 This molecule is an asymmetric top.
 Rotational symmetry number  1.
 Rotational temperatures (Kelvin)      0.47350     0.46120     0.26338
 Rotational constants (GHZ):           9.86619     9.60988     5.48802
 Zero-point vibrational energy     192339.5 (Joules/Mol)
                                   45.97024 (Kcal/Mol)
 Warning -- explicit consideration of   6 degrees of freedom as
           vibrations may cause significant error
 Vibrational temperatures:    253.28   339.56   456.01   714.73   774.95
          (Kelvin)            852.33  1197.71  1244.68  1302.42  1541.63
                             1689.33  1819.53  1969.65  2064.89  2328.30
                             2383.89  4819.03  4836.39  5091.23  5126.30
                             5460.35

 Zero-point correction=                           0.073258 (Hartree/Particle)
 Thermal correction to Energy=                    0.078448
 Thermal correction to Enthalpy=                  0.079392
 Thermal correction to Gibbs Free Energy=         0.046045
 Sum of electronic and zero-point Energies=           -242.308038
 Sum of electronic and thermal Energies=              -242.302848
 Sum of electronic and thermal Enthalpies=            -242.301904
 Sum of electronic and thermal Free Energies=         -242.335251

                     E (Thermal)             CV                S
                      KCal/Mol        Cal/Mol-Kelvin    Cal/Mol-Kelvin
 Total                   49.227             17.369             70.184
 Electronic               0.000              0.000              0.000
 Translational            0.889              2.981             38.343
 Rotational               0.889              2.981             23.939
 Vibrational             47.449             11.407              7.902
 Vibration     1          0.628              1.872              2.370
 Vibration     2          0.655              1.786              1.833
 Vibration     3          0.704              1.641              1.326
 Vibration     4          0.852              1.257              0.666
 Vibration     5          0.894              1.165              0.568
 Vibration     6          0.950              1.048              0.463

 Normal termination of Gaussian 09 at Tue Aug 30 10:26:25 2022.

 -----------------------------------------------------------------
 #P Geom=AllCheck Guess=TCheck SCRF=Check CCSD(T,E4T,FrzG4)/GTBas1
 -----------------------------------------------------------------

 Structure from the checkpoint file:  "G4.Frag_931.chk"
 --------
 Frag_931
 --------
 Charge =  0 Multiplicity = 1

 SCF Done:  E(RHF) =  -240.968413948     A.U. after   12 cycles
 E2 =    -0.6772055498D+00 EUMP2 =    -0.24164561949783D+03
 CCSD(T)
 CCSD(T)= -0.24169539606D+03
 .6761579\CCSD=-241.6767242\CCSD(T)=-241.6953961\RMSD=9.950e-09\PG=C01
 Normal termination of Gaussian 09 at Tue Aug 30 10:26:50 2022.

 ---------------------------------------------------------
 #P Geom=AllCheck Guess=TCheck SCRF=Check MP4=FrzG4/GTBas2
 ---------------------------------------------------------

 Structure from the checkpoint file:  "G4.Frag_931.chk"
 --------
 Frag_931
 --------
 Charge =  0 Multiplicity = 1

 SCF Done:  E(RHF) =  -240.979486623     A.U. after   12 cycles
 E2 =    -0.6904022957D+00 EUMP2 =    -0.24166988891837D+03
 Normal termination of Gaussian 09 at Tue Aug 30 10:26:57 2022.

 ---------------------------------------------------------
 #P Geom=AllCheck Guess=TCheck SCRF=Check MP4=FrzG4/GTBas3
 ---------------------------------------------------------

 Structure from the checkpoint file:  "G4.Frag_931.chk"
 --------
 Frag_931
 --------
 Charge =  0 Multiplicity = 1

 SCF Done:  E(RHF) =  -241.006320488     A.U. after   12 cycles
 E2 =    -0.8283376029D+00 EUMP2 =    -0.24183465809095D+03
 Normal termination of Gaussian 09 at Tue Aug 30 10:27:27 2022.

 -----------------------------------------------------------
 #P Geom=AllCheck Guess=TCheck SCRF=Check MP2=Full/GTLargeXP
 -----------------------------------------------------------

 Structure from the checkpoint file:  "G4.Frag_931.chk"
 --------
 Frag_931
 --------
 Charge =  0 Multiplicity = 1

 SCF Done:  E(RHF) =  -241.077891698     A.U. after   12 cycles
 E2 =    -0.1069277788D+01 EUMP2 =    -0.24214716948552D+03
 Normal termination of Gaussian 09 at Tue Aug 30 10:27:46 2022.
 SCF Done:  E(RHF) =  -241.098035849     A.U. after    9 cycles
 Normal termination of Gaussian 09 at Tue Aug 30 10:28:11 2022.

                         Standard orientation:
 ---------------------------------------------------------------------
 Center     Atomic      Atomic             Coordinates (Angstroms)
 Number     Number       Type             X           Y           Z
 ---------------------------------------------------------------------
      1          7           0        0.194665    1.305644    0.079210
      2          7           0        0.005048   -0.016957   -0.433524
      3          7           0       -1.147651   -0.682963    0.051959
      4          8           0        1.064895   -0.778595    0.150683
      5          1           0       -0.460872    1.901498   -0.420036
      6          1           0       -0.048507    1.325967    1.076316
      7          1           0       -1.271000   -0.483471    1.051122
      8          1           0       -1.935504   -0.286091   -0.449842
      9          1           0        1.832287   -0.469217   -0.346538
 ---------------------------------------------------------------------

 SCF Done:  E(RHF) =  -241.102414216     A.U. after    8 cycles

 The electronic state is 1-A.
 Alpha  occ. eigenvalues --  -20.58504 -15.67774 -15.58821 -15.58510  -1.43943
 Alpha  occ. eigenvalues --   -1.25781  -1.15919  -0.92922  -0.74927  -0.70911
 Alpha  occ. eigenvalues --   -0.65379  -0.63268  -0.61034  -0.51636  -0.49183
 Alpha  occ. eigenvalues --   -0.40973  -0.40654
 Alpha virt. eigenvalues --    0.04676   0.06039   0.06638   0.07312   0.09573
 Alpha virt. eigenvalues --    0.09816   0.10036   0.10409   0.12225   0.15185
 Alpha virt. eigenvalues --    0.16457   0.17254   0.17980   0.20029   0.21423

 Mulliken charges:
               1
     1  N   -0.590544
     2  N    0.093635
     3  N   -0.556793
     4  O   -0.505498
     5  H    0.302520
     6  H    0.281062
     7  H    0.274475
     8  H    0.305477
     9  H    0.395668
 Sum of Mulliken charges =  -0.00000

 Dipole moment (field-independent basis, Debye):
    X=             -1.6267    Y=              2.3857    Z=              0.5617  Tot=              2.9416
 Quadrupole moment (field-independent basis, Debye-Ang):
   XX=            -19.5610   YY=            -27.6014   ZZ=            -23.4594
   XY=             -3.1821   XZ=             -1.7368   YZ=              0.3703

 Normal termination of Gaussian 09 at Tue Aug 30 10:30:41 2022.
