 Gaussian 09, Revision E.01,
 Gaussian 09:  ES64L-G09RevE.01 30-Nov-2015

 -----
 #P G4
 -----

 --------
 Frag_477
 --------
 Symbolic Z-matrix:
 Charge =  0 Multiplicity = 1

 SCF Done:  E(RB3LYP) =  -248.476080689     A.U. after   13 cycles
 SCF Done:  E(RB3LYP) =  -248.501728679     A.U. after   12 cycles
 SCF Done:  E(RB3LYP) =  -248.507946763     A.U. after   12 cycles
 SCF Done:  E(RB3LYP) =  -248.508547625     A.U. after   10 cycles
 SCF Done:  E(RB3LYP) =  -248.508597819     A.U. after    9 cycles
 SCF Done:  E(RB3LYP) =  -248.508624732     A.U. after    9 cycles
 SCF Done:  E(RB3LYP) =  -248.508630364     A.U. after    8 cycles
 SCF Done:  E(RB3LYP) =  -248.508632419     A.U. after    7 cycles
 SCF Done:  E(RB3LYP) =  -248.508636647     A.U. after    9 cycles
 SCF Done:  E(RB3LYP) =  -248.508643711     A.U. after    9 cycles
 SCF Done:  E(RB3LYP) =  -248.509047366     A.U. after    7 cycles
 SCF Done:  E(RB3LYP) =  -248.509047462     A.U. after    7 cycles
 SCF Done:  E(RB3LYP) =  -248.509047481     A.U. after    6 cycles
 Optimization completed.
    -- Stationary point found.
 Normal termination of Gaussian 09 at Tue Aug 30 10:48:18 2022.

 ----------------------------------------------------------
 #P Geom=AllCheck Guess=TCheck SCRF=Check B3LYP/GTBas3 Freq
 ----------------------------------------------------------

 Structure from the checkpoint file:  "G4.Frag_477.chk"
 --------
 Frag_477
 --------
 Charge =  0 Multiplicity = 1

 SCF Done:  E(RB3LYP) =  -248.509047481     A.U. after    1 cycles

  Exact polarizability:  58.762  -4.339  48.056   0.985  -0.375  28.194
 Approx polarizability:  83.948 -10.580  69.614   0.795   0.206  41.247

                      1                      2                      3
                      A                      A                      A
 Frequencies --    105.6900               169.9737               277.8133
 Red. masses --      1.1087                 1.4782                 2.4087
 Frc consts  --      0.0073                 0.0252                 0.1095
 IR Inten    --      0.2859                20.5816                 1.4254

                      4                      5                      6
                      A                      A                      A
 Frequencies --    311.3699               406.5981               490.4548
 Red. masses --      1.8941                 1.0688                 3.4571
 Frc consts  --      0.1082                 0.1041                 0.4900
 IR Inten    --     19.0976                79.4887                 6.6179

                      7                      8                      9
                      A                      A                      A
 Frequencies --    556.9759               586.3795               715.2511
 Red. masses --      2.8308                 1.6412                 1.6819
 Frc consts  --      0.5174                 0.3325                 0.5069
 IR Inten    --     19.3801               130.8772               114.0321

                     10                     11                     12
                      A                      A                      A
 Frequencies --    730.3131               863.3447              1023.6928
 Red. masses --      1.7616                 2.9070                 1.6071
 Frc consts  --      0.5536                 1.2766                 0.9923
 IR Inten    --     73.9120                14.9415                27.5800

                     13                     14                     15
                      A                      A                      A
 Frequencies --   1055.9315              1099.4958              1138.5911
 Red. masses --      1.4074                 2.3419                 1.6133
 Frc consts  --      0.9246                 1.6680                 1.2323
 IR Inten    --      0.6037                21.1511                66.1408

                     16                     17                     18
                      A                      A                      A
 Frequencies --   1233.4056              1319.4834              1413.3115
 Red. masses --      1.1949                 2.0119                 1.2700
 Frc consts  --      1.0710                 2.0638                 1.4946
 IR Inten    --     59.8375                88.5502                15.0786

                     19                     20                     21
                      A                      A                      A
 Frequencies --   1463.1697              1483.7835              1505.0243
 Red. masses --      1.8232                 1.0567                 1.0766
 Frc consts  --      2.2997                 1.3707                 1.4368
 IR Inten    --     12.5721                 4.4062                 3.8242

                     22                     23                     24
                      A                      A                      A
 Frequencies --   1634.7571              1759.6205              2998.6464
 Red. masses --      1.1836                 6.1856                 1.0424
 Frc consts  --      1.8636                11.2842                 5.5226
 IR Inten    --     59.5092               254.1003                54.7872

                     25                     26                     27
                      A                      A                      A
 Frequencies --   3044.5314              3074.8585              3153.8878
 Red. masses --      1.0939                 1.0978                 1.0882
 Frc consts  --      5.9739                 6.1153                 6.3775
 IR Inten    --     37.0035                31.4801                23.2275

                     28                     29                     30
                      A                      A                      A
 Frequencies --   3553.4829              3664.1230              3837.7870
 Red. masses --      1.0483                 1.0956                 1.0654
 Frc consts  --      7.7991                 8.6663                 9.2453
 IR Inten    --      9.3355                12.0795                39.7546

 - Thermochemistry -
 -------------------
 Temperature   298.150 Kelvin.  Pressure   1.00000 Atm.
 Atom     1 has atomic number  6 and mass  12.00000

 Molecular mass:    73.05276 amu.
 Principal axes and moments of inertia in atomic units:
                           1         2         3
     Eigenvalues --   189.02657 486.07459 661.61824
           X            0.99999  -0.00219   0.00460
           Y            0.00228   0.99984  -0.01770
           Z           -0.00456   0.01771   0.99983
 This molecule is an asymmetric top.
 Rotational symmetry number  1.
 Rotational temperatures (Kelvin)      0.45821     0.17819     0.13091
 Rotational constants (GHZ):           9.54755     3.71289     2.72777
 Zero-point vibrational energy     267196.4 (Joules/Mol)
                                   63.86147 (Kcal/Mol)
 Warning -- explicit consideration of   8 degrees of freedom as
           vibrations may cause significant error
 Vibrational temperatures:    152.06   244.55   399.71   447.99   585.00
          (Kelvin)            705.65   801.36   843.67  1029.09  1050.76
                             1242.16  1472.86  1519.25  1581.93  1638.18
                             1774.59  1898.44  2033.44  2105.17  2134.83
                             2165.39  2352.05  2531.70  4314.38  4380.40
                             4424.03  4537.74  5112.66  5271.85  5521.71

 Zero-point correction=                           0.101770 (Hartree/Particle)
 Thermal correction to Energy=                    0.108109
 Thermal correction to Enthalpy=                  0.109053
 Thermal correction to Gibbs Free Energy=         0.072550
 Sum of electronic and zero-point Energies=           -248.407278
 Sum of electronic and thermal Energies=              -248.400939
 Sum of electronic and thermal Enthalpies=            -248.399994
 Sum of electronic and thermal Free Energies=         -248.436497

                     E (Thermal)             CV                S
                      KCal/Mol        Cal/Mol-Kelvin    Cal/Mol-Kelvin
 Total                   67.839             22.129             76.827
 Electronic               0.000              0.000              0.000
 Translational            0.889              2.981             38.782
 Rotational               0.889              2.981             25.611
 Vibrational             66.062             16.167             12.433
 Vibration     1          0.605              1.945              3.347
 Vibration     2          0.625              1.879              2.436
 Vibration     3          0.679              1.715              1.547
 Vibration     4          0.700              1.652              1.355
 Vibration     5          0.771              1.456              0.939
 Vibration     6          0.846              1.271              0.682
 Vibration     7          0.912              1.124              0.530
 Vibration     8          0.943              1.061              0.474

 Optimization completed.
    -- Stationary point found.
 Normal termination of Gaussian 09 at Tue Aug 30 10:48:39 2022.

 -----------------------------------------------------------------
 #P Geom=AllCheck Guess=TCheck SCRF=Check CCSD(T,E4T,FrzG4)/GTBas1
 -----------------------------------------------------------------

 Structure from the checkpoint file:  "G4.Frag_477.chk"
 --------
 Frag_477
 --------
 Charge =  0 Multiplicity = 1

 SCF Done:  E(RHF) =  -246.958194349     A.U. after   12 cycles
 E2 =    -0.7261967762D+00 EUMP2 =    -0.24768439112467D+03
 CCSD(T)
 CCSD(T)= -0.24774902447D+03
 247.7263786\CCSD(T)=-247.7490245\RMSD=5.791e-09\PG=C01 [X(C3H7N1O1)]\\
 Normal termination of Gaussian 09 at Tue Aug 30 10:49:33 2022.

 ---------------------------------------------------------
 #P Geom=AllCheck Guess=TCheck SCRF=Check MP4=FrzG4/GTBas2
 ---------------------------------------------------------

 Structure from the checkpoint file:  "G4.Frag_477.chk"
 --------
 Frag_477
 --------
 Charge =  0 Multiplicity = 1

 SCF Done:  E(RHF) =  -246.967340488     A.U. after   12 cycles
 E2 =    -0.7374866607D+00 EUMP2 =    -0.24770482714858D+03
 Normal termination of Gaussian 09 at Tue Aug 30 10:49:49 2022.

 ---------------------------------------------------------
 #P Geom=AllCheck Guess=TCheck SCRF=Check MP4=FrzG4/GTBas3
 ---------------------------------------------------------

 Structure from the checkpoint file:  "G4.Frag_477.chk"
 --------
 Frag_477
 --------
 Charge =  0 Multiplicity = 1

 SCF Done:  E(RHF) =  -246.996129935     A.U. after   11 cycles
 E2 =    -0.8947521137D+00 EUMP2 =    -0.24789088204830D+03
 Normal termination of Gaussian 09 at Tue Aug 30 10:51:11 2022.

 -----------------------------------------------------------
 #P Geom=AllCheck Guess=TCheck SCRF=Check MP2=Full/GTLargeXP
 -----------------------------------------------------------

 Structure from the checkpoint file:  "G4.Frag_477.chk"
 --------
 Frag_477
 --------
 Charge =  0 Multiplicity = 1

 SCF Done:  E(RHF) =  -247.061774349     A.U. after   12 cycles
 E2 =    -0.1175164917D+01 EUMP2 =    -0.24823693926509D+03
 Normal termination of Gaussian 09 at Tue Aug 30 10:52:02 2022.
 SCF Done:  E(RHF) =  -247.082110786     A.U. after    9 cycles
 Normal termination of Gaussian 09 at Tue Aug 30 10:53:06 2022.

                         Standard orientation:
 ---------------------------------------------------------------------
 Center     Atomic      Atomic             Coordinates (Angstroms)
 Number     Number       Type             X           Y           Z
 ---------------------------------------------------------------------
      1          6           0        2.040235    0.005578   -0.014484
      2          6           0        0.700681   -0.674591    0.003144
      3          6           0       -0.487019   -0.050307    0.014005
      4          7           0       -0.711039    1.319466    0.095047
      5          8           0       -1.690840   -0.697581   -0.001658
      6          1           0        2.759965   -0.562215   -0.614896
      7          1           0        1.992390    1.008903   -0.456526
      8          1           0        2.482346    0.119740    0.985479
      9          1           0        0.694303   -1.759752    0.056986
     10          1           0       -1.526153    1.612469   -0.427545
     11          1           0        0.098177    1.881756   -0.122134
     12          1           0       -1.520416   -1.640592   -0.089421
 ---------------------------------------------------------------------

 SCF Done:  E(RHF) =  -247.086434497     A.U. after    8 cycles

 The electronic state is 1-A.
 Alpha  occ. eigenvalues --  -20.58646 -15.56524 -11.32636 -11.22034 -11.19850
 Alpha  occ. eigenvalues --   -1.41176  -1.20494  -1.03394  -0.90997  -0.80873
 Alpha  occ. eigenvalues --   -0.71204  -0.65094  -0.63177  -0.60604  -0.58616
 Alpha  occ. eigenvalues --   -0.55358  -0.52517  -0.50683  -0.45965  -0.30431
 Alpha virt. eigenvalues --    0.03946   0.04425   0.04649   0.06076   0.06800
 Alpha virt. eigenvalues --    0.07393   0.08042   0.09108   0.09752   0.10433
 Alpha virt. eigenvalues --    0.11539   0.12765   0.13761   0.14705   0.16146

 Mulliken charges:
               1
     1  C   -0.487932
     2  C   -0.321811
     3  C    0.402908
     4  N   -0.689759
     5  O   -0.558211
     6  H    0.168073
     7  H    0.142535
     8  H    0.173151
     9  H    0.151872
    10  H    0.319338
    11  H    0.311817
    12  H    0.388019
 Sum of Mulliken charges =  -0.00000

 Dipole moment (field-independent basis, Debye):
    X=              0.5804    Y=             -0.0597    Z=             -1.1583  Tot=              1.2970
 Quadrupole moment (field-independent basis, Debye-Ang):
   XX=            -32.6390   YY=            -25.0126   ZZ=            -34.1935
   XY=              1.1546   XZ=              1.6958   YZ=             -2.0024

 Normal termination of Gaussian 09 at Tue Aug 30 10:59:38 2022.
