 Gaussian 09, Revision E.01,
 Gaussian 09:  ES64L-G09RevE.01 30-Nov-2015

 -----
 #P G4
 -----

 ---------
 Frag_1103
 ---------
 Symbolic Z-matrix:
 Charge =  0 Multiplicity = 1

 SCF Done:  E(RB3LYP) =  -301.671965708     A.U. after   12 cycles
 SCF Done:  E(RB3LYP) =  -301.679741898     A.U. after   11 cycles
 SCF Done:  E(RB3LYP) =  -301.680264912     A.U. after   10 cycles
 SCF Done:  E(RB3LYP) =  -301.680446450     A.U. after    9 cycles
 SCF Done:  E(RB3LYP) =  -301.680621326     A.U. after   10 cycles
 SCF Done:  E(RB3LYP) =  -301.680662884     A.U. after    9 cycles
 SCF Done:  E(RB3LYP) =  -301.680863547     A.U. after   11 cycles
 SCF Done:  E(RB3LYP) =  -301.681217001     A.U. after   10 cycles
 SCF Done:  E(RB3LYP) =  -301.681684582     A.U. after   11 cycles
 SCF Done:  E(RB3LYP) =  -301.681848408     A.U. after   11 cycles
 SCF Done:  E(RB3LYP) =  -301.693171254     A.U. after    8 cycles
 SCF Done:  E(RB3LYP) =  -301.693173814     A.U. after    8 cycles
 SCF Done:  E(RB3LYP) =  -301.693174180     A.U. after    7 cycles
 Optimization completed.
    -- Stationary point found.
 Normal termination of Gaussian 09 at Thu Aug 25 04:24:46 2022.

 ----------------------------------------------------------
 #P Geom=AllCheck Guess=TCheck SCRF=Check B3LYP/GTBas3 Freq
 ----------------------------------------------------------

 Structure from the checkpoint file:  "G4.Frag_1103.chk"
 ---------
 Frag_1103
 ---------
 Charge =  0 Multiplicity = 1

 SCF Done:  E(RB3LYP) =  -301.693174180     A.U. after    1 cycles

  Exact polarizability:  34.326   0.410  34.456   0.001   0.001  34.042
 Approx polarizability:  46.860  -0.691  49.737   0.000   0.010  45.638

                      1                      2                      3
                      A                      A                      A
 Frequencies --    214.3308               238.8405               341.7002
 Red. masses --      1.1500                 1.0867                 1.6557
 Frc consts  --      0.0311                 0.0365                 0.1139
 IR Inten    --     17.3791                 0.3567                45.1942

                      4                      5                      6
                      A                      A                      A
 Frequencies --    416.2104               432.8781               490.8651
 Red. masses --      2.5154                 1.1371                 1.9513
 Frc consts  --      0.2567                 0.1255                 0.2770
 IR Inten    --     33.8946                73.0347                13.7085

                      7                      8                      9
                      A                      A                      A
 Frequencies --    544.7243               571.3192               575.4395
 Red. masses --      3.1283                 3.4964                 3.1589
 Frc consts  --      0.5469                 0.6724                 0.6163
 IR Inten    --      8.9343                64.0212                43.1852

                     10                     11                     12
                      A                      A                      A
 Frequencies --    814.7833               829.4182               878.9648
 Red. masses --      1.2784                 4.6832                 1.9417
 Frc consts  --      0.5000                 1.8982                 0.8838
 IR Inten    --    383.0470                 1.4053                11.1454

                     13                     14                     15
                      A                      A                      A
 Frequencies --    984.0201              1021.8687              1109.8687
 Red. masses --      2.5942                 2.4206                 1.4570
 Frc consts  --      1.4800                 1.4893                 1.0574
 IR Inten    --    143.8090               109.4263               106.1833

                     16                     17                     18
                      A                      A                      A
 Frequencies --   1238.6171              1330.9419              1378.9429
 Red. masses --      1.6393                 1.6264                 2.0072
 Frc consts  --      1.4818                 1.6975                 2.2487
 IR Inten    --    160.0678                 4.4934                58.5952

                     19                     20                     21
                      A                      A                      A
 Frequencies --   1425.7847              1632.2755              1636.8980
 Red. masses --      1.6156                 1.0972                 1.1590
 Frc consts  --      1.9351                 1.7223                 1.8298
 IR Inten    --    187.4095                49.5328                42.7494

                     22                     23                     24
                      A                      A                      A
 Frequencies --   3513.5869              3516.8676              3606.9898
 Red. masses --      1.0488                 1.0478                 1.0943
 Frc consts  --      7.6287                 7.6352                 8.3884
 IR Inten    --      3.0525                 1.3744                 1.1959

                     25                     26                     27
                      A                      A                      A
 Frequencies --   3608.5448              3810.6617              3813.0444
 Red. masses --      1.0939                 1.0649                 1.0647
 Frc consts  --      8.3922                 9.1107                 9.1209
 IR Inten    --      5.8715                58.3220                18.0758

 - Thermochemistry -
 -------------------
 Temperature   298.150 Kelvin.  Pressure   1.00000 Atm.
 Atom     1 has atomic number  7 and mass  14.00307

 Molecular mass:    78.04293 amu.
 Principal axes and moments of inertia in atomic units:
                           1         2         3
     Eigenvalues --   332.15744 346.00027 365.11523
           X            0.95300   0.30296   0.00005
           Y           -0.30296   0.95300  -0.00112
           Z           -0.00039   0.00105   1.00000
 This molecule is an asymmetric top.
 Rotational symmetry number  1.
 Rotational temperatures (Kelvin)      0.26076     0.25033     0.23722
 Rotational constants (GHZ):           5.43339     5.21601     4.94294
 Zero-point vibrational energy     239123.9 (Joules/Mol)
                                   57.15197 (Kcal/Mol)
 Warning -- explicit consideration of   9 degrees of freedom as
           vibrations may cause significant error
 Vibrational temperatures:    308.37   343.64   491.63   598.83   622.81
          (Kelvin)            706.24   783.74   822.00   827.93  1172.29
                             1193.35  1264.63  1415.78  1470.24  1596.85
                             1782.09  1914.93  1983.99  2051.38  2348.48
                             2355.13  5055.26  5059.98  5189.65  5191.88
                             5482.69  5486.11

 Zero-point correction=                           0.091077 (Hartree/Particle)
 Thermal correction to Energy=                    0.097013
 Thermal correction to Enthalpy=                  0.097957
 Thermal correction to Gibbs Free Energy=         0.062742
 Sum of electronic and zero-point Energies=           -301.602097
 Sum of electronic and thermal Energies=              -301.596161
 Sum of electronic and thermal Enthalpies=            -301.595217
 Sum of electronic and thermal Free Energies=         -301.630432

                     E (Thermal)             CV                S
                      KCal/Mol        Cal/Mol-Kelvin    Cal/Mol-Kelvin
 Total                   60.877             21.985             74.116
 Electronic               0.000              0.000              0.000
 Translational            0.889              2.981             38.979
 Rotational               0.889              2.981             25.243
 Vibrational             59.099             16.023              9.894
 Vibration     1          0.644              1.819              2.006
 Vibration     2          0.657              1.781              1.812
 Vibration     3          0.721              1.592              1.204
 Vibration     4          0.779              1.435              0.905
 Vibration     5          0.794              1.399              0.849
 Vibration     6          0.847              1.270              0.681
 Vibration     7          0.900              1.151              0.555
 Vibration     8          0.927              1.093              0.502
 Vibration     9          0.932              1.084              0.494

 Optimization completed.
    -- Stationary point found.
 Normal termination of Gaussian 09 at Thu Aug 25 04:26:05 2022.

 -----------------------------------------------------------------
 #P Geom=AllCheck Guess=TCheck SCRF=Check CCSD(T,E4T,FrzG4)/GTBas1
 -----------------------------------------------------------------

 Structure from the checkpoint file:  "G4.Frag_1103.chk"
 ---------
 Frag_1103
 ---------
 Charge =  0 Multiplicity = 1

 SCF Done:  E(RHF) =  -299.973743988     A.U. after   11 cycles
 E2 =    -0.8167139894D+00 EUMP2 =    -0.30079045797754D+03
 CCSD(T)
 CCSD(T)= -0.30084385039D+03
 271\MP4SDQ=-300.8234812\CCSD=-300.8235594\CCSD(T)=-300.8438504\RMSD=8.
 Normal termination of Gaussian 09 at Thu Aug 25 04:27:57 2022.

 ---------------------------------------------------------
 #P Geom=AllCheck Guess=TCheck SCRF=Check MP4=FrzG4/GTBas2
 ---------------------------------------------------------

 Structure from the checkpoint file:  "G4.Frag_1103.chk"
 ---------
 Frag_1103
 ---------
 Charge =  0 Multiplicity = 1

 SCF Done:  E(RHF) =  -299.987630710     A.U. after   11 cycles
 E2 =    -0.8341096453D+00 EUMP2 =    -0.30082174035492D+03
 Normal termination of Gaussian 09 at Thu Aug 25 04:30:18 2022.

 ---------------------------------------------------------
 #P Geom=AllCheck Guess=TCheck SCRF=Check MP4=FrzG4/GTBas3
 ---------------------------------------------------------

 Structure from the checkpoint file:  "G4.Frag_1103.chk"
 ---------
 Frag_1103
 ---------
 Charge =  0 Multiplicity = 1

 SCF Done:  E(RHF) =  -300.021678453     A.U. after   10 cycles
 E2 =    -0.1009079204D+01 EUMP2 =    -0.30103075765659D+03
 Normal termination of Gaussian 09 at Thu Aug 25 05:10:49 2022.

 -----------------------------------------------------------
 #P Geom=AllCheck Guess=TCheck SCRF=Check MP2=Full/GTLargeXP
 -----------------------------------------------------------

 Structure from the checkpoint file:  "G4.Frag_1103.chk"
 ---------
 Frag_1103
 ---------
 Charge =  0 Multiplicity = 1

 SCF Done:  E(RHF) =  -300.111182013     A.U. after   11 cycles
 E2 =    -0.1309414643D+01 EUMP2 =    -0.30142059665598D+03
 Normal termination of Gaussian 09 at Thu Aug 25 05:13:14 2022.
 SCF Done:  E(RHF) =  -300.135430966     A.U. after    8 cycles
 Normal termination of Gaussian 09 at Thu Aug 25 05:16:02 2022.

                         Standard orientation:
 ---------------------------------------------------------------------
 Center     Atomic      Atomic             Coordinates (Angstroms)
 Number     Number       Type             X           Y           Z
 ---------------------------------------------------------------------
      1          7           0       -1.255182   -0.029455    0.713586
      2          6           0       -0.000051    0.000131   -0.021936
      3          7           0        1.254753    0.026797    0.714191
      4          8           0       -0.086723    1.169269   -0.789624
      5          8           0        0.087048   -1.166368   -0.793676
      6          1           0       -1.194435   -0.702198    1.469738
      7          1           0       -1.446442    0.885901    1.106523
      8          1           0        1.194341    0.696544    1.472952
      9          1           0        1.446679   -0.890300    1.102592
     10          1           0        0.791189    1.284417   -1.171537
     11          1           0       -0.790633   -1.279761   -1.176685
 ---------------------------------------------------------------------

 SCF Done:  E(RHF) =  -300.140915378     A.U. after    8 cycles

 The electronic state is 1-A.
 Alpha  occ. eigenvalues --  -20.56424 -20.56422 -15.55490 -15.55486 -11.39994
 Alpha  occ. eigenvalues --   -1.43643  -1.34595  -1.19844  -1.15245  -0.85026
 Alpha  occ. eigenvalues --   -0.76780  -0.70158  -0.68062  -0.64135  -0.61422
 Alpha  occ. eigenvalues --   -0.60361  -0.53719  -0.51117  -0.48079  -0.47578
 Alpha  occ. eigenvalues --   -0.40085
 Alpha virt. eigenvalues --    0.03832   0.05083   0.05404   0.05502   0.08825
 Alpha virt. eigenvalues --    0.09701   0.10048   0.10146   0.10432   0.13251
 Alpha virt. eigenvalues --    0.14696   0.15563   0.16313   0.17623   0.17861

 Mulliken charges:
               1
     1  N   -0.728663
     2  C    0.650787
     3  N   -0.728956
     4  O   -0.600357
     5  O   -0.600341
     6  H    0.297271
     7  H    0.313228
     8  H    0.297322
     9  H    0.313368
    10  H    0.393181
    11  H    0.393159
 Sum of Mulliken charges =  -0.00000

 Dipole moment (field-independent basis, Debye):
    X=              0.0017    Y=             -0.0041    Z=              2.3737  Tot=              2.3737
 Quadrupole moment (field-independent basis, Debye-Ang):
   XX=            -32.7829   YY=            -30.2959   ZZ=            -25.0530
   XY=              2.3899   XZ=              0.0037   YZ=             -0.0078

 Normal termination of Gaussian 09 at Thu Aug 25 06:41:56 2022.
