 Gaussian 09, Revision E.01,
 Gaussian 09:  ES64L-G09RevE.01 30-Nov-2015

 -----
 #P G4
 -----

 --------
 Frag_910
 --------
 Symbolic Z-matrix:
 Charge =  0 Multiplicity = 1

 SCF Done:  E(RB3LYP) =  -303.807948672     A.U. after   14 cycles
 SCF Done:  E(RB3LYP) =  -303.822106053     A.U. after   13 cycles
 SCF Done:  E(RB3LYP) =  -303.823444916     A.U. after   13 cycles
 SCF Done:  E(RB3LYP) =  -303.823740842     A.U. after   14 cycles
 SCF Done:  E(RB3LYP) =  -303.824425311     A.U. after   13 cycles
 SCF Done:  E(RB3LYP) =  -303.825158232     A.U. after   15 cycles
 SCF Done:  E(RB3LYP) =  -303.825898710     A.U. after   13 cycles
 SCF Done:  E(RB3LYP) =  -303.826326113     A.U. after   12 cycles
 SCF Done:  E(RB3LYP) =  -303.826352004     A.U. after   13 cycles
 SCF Done:  E(RB3LYP) =  -303.826394595     A.U. after   13 cycles
 SCF Done:  E(RB3LYP) =  -303.826397255     A.U. after    9 cycles
 Optimization completed.
    -- Stationary point found.
 Normal termination of Gaussian 09 at Tue Aug 23 12:44:45 2022.

 ----------------------------------------------------------
 #P Geom=AllCheck Guess=TCheck SCRF=Check B3LYP/GTBas3 Freq
 ----------------------------------------------------------

 Structure from the checkpoint file:  "G4.Frag_910.chk"
 --------
 Frag_910
 --------
 Charge =  0 Multiplicity = 1

 SCF Done:  E(RB3LYP) =  -303.826397255     A.U. after    1 cycles

  Exact polarizability:  64.719   0.011  44.981   0.670   0.020  46.211
 Approx polarizability:  91.178   0.014  59.881  -2.751   0.044  70.359

                      1                      2                      3
                      A                      A                      A
 Frequencies --    100.0431               162.7339               213.9500
 Red. masses --      5.7148                 1.0500                 1.0246
 Frc consts  --      0.0337                 0.0164                 0.0276
 IR Inten    --      0.3198               103.7508                 2.2834

                      4                      5                      6
                      A                      A                      A
 Frequencies --    248.0327               309.5971               355.0113
 Red. masses --      1.0446                 2.9576                 3.2353
 Frc consts  --      0.0379                 0.1670                 0.2402
 IR Inten    --      0.0141                 1.9285                 5.3728

                      7                      8                      9
                      A                      A                      A
 Frequencies --    356.8654               414.8001               477.6498
 Red. masses --      3.5734                 2.6956                 3.3395
 Frc consts  --      0.2681                 0.2733                 0.4489
 IR Inten    --      3.7029                 1.3440                 3.0981

                     10                     11                     12
                      A                      A                      A
 Frequencies --    629.0868               758.4241               850.7054
 Red. masses --      4.1045                 4.6371                 2.7625
 Frc consts  --      0.9570                 1.5715                 1.1779
 IR Inten    --      9.1025                11.2273                28.5436

                     13                     14                     15
                      A                      A                      A
 Frequencies --    906.7981               942.3207               986.5396
 Red. masses --      1.5990                 1.1739                 1.8492
 Frc consts  --      0.7747                 0.6141                 1.0604
 IR Inten    --     10.7298                10.9532                 8.3357

                     16                     17                     18
                      A                      A                      A
 Frequencies --   1027.0368              1118.7477              1228.4384
 Red. masses --      1.3307                 1.4228                 2.9718
 Frc consts  --      0.8270                 1.0492                 2.6423
 IR Inten    --      3.8587                76.8889                57.6600

                     19                     20                     21
                      A                      A                      A
 Frequencies --   1236.5951              1340.9526              1386.1867
 Red. masses --      3.1855                 1.6456                 1.2593
 Frc consts  --      2.8700                 1.7435                 1.4256
 IR Inten    --     85.8055                42.3677                 9.9441

                     22                     23                     24
                      A                      A                      A
 Frequencies --   1404.1810              1475.7600              1479.2269
 Red. masses --      1.2275                 1.0486                 1.0486
 Frc consts  --      1.4260                 1.3456                 1.3518
 IR Inten    --      5.1926                 0.2313                 0.3377

                     25                     26                     27
                      A                      A                      A
 Frequencies --   1483.4607              1492.2468              1506.7771
 Red. masses --      1.2338                 1.0917                 1.0982
 Frc consts  --      1.5998                 1.4323                 1.4690
 IR Inten    --     15.8075                 8.4172                 8.5582

                     28                     29                     30
                      A                      A                      A
 Frequencies --   1659.1356              3038.6936              3042.9991
 Red. masses --      9.1144                 1.0358                 1.0361
 Frc consts  --     14.7824                 5.6351                 5.6525
 IR Inten    --      4.1744                11.0805                19.5737

                     31                     32                     33
                      A                      A                      A
 Frequencies --   3112.8038              3117.4280              3133.8371
 Red. masses --      1.0997                 1.0997                 1.1031
 Frc consts  --      6.2778                 6.2967                 6.3827
 IR Inten    --      6.5039                28.1689                 6.6146

                     34                     35                     36
                      A                      A                      A
 Frequencies --   3136.9633              3234.9544              3826.3419
 Red. masses --      1.1027                 1.0742                 1.0661
 Frc consts  --      6.3931                 6.6234                 9.1962
 IR Inten    --     23.3008                34.5605                20.4522

 - Thermochemistry -
 -------------------
 Temperature   298.150 Kelvin.  Pressure   1.00000 Atm.
 Atom     1 has atomic number  6 and mass  12.00000

 Molecular mass:    88.06366 amu.
 Principal axes and moments of inertia in atomic units:
                           1         2         3
     Eigenvalues --   382.25913 598.28484 610.20837
           X            1.00000   0.00009  -0.00257
           Y           -0.00010   1.00000  -0.00067
           Z            0.00256   0.00067   1.00000
 This molecule is an asymmetric top.
 Rotational symmetry number  1.
 Rotational temperatures (Kelvin)      0.22658     0.14477     0.14194
 Rotational constants (GHZ):           4.72125     3.01653     2.95758
 Zero-point vibrational energy     306216.0 (Joules/Mol)
                                   73.18739 (Kcal/Mol)
 Warning -- explicit consideration of   9 degrees of freedom as
           vibrations may cause significant error
 Vibrational temperatures:    143.94   234.14   307.83   356.86   445.44
          (Kelvin)            510.78   513.45   596.80   687.23   905.11
                             1091.20  1223.97  1304.68  1355.79  1419.41
                             1477.67  1609.63  1767.45  1779.18  1929.33
                             1994.41  2020.30  2123.29  2128.27  2134.37
                             2147.01  2167.91  2387.12  4372.00  4378.19
                             4478.62  4485.28  4508.89  4513.38  4654.37
                             5505.25

 Zero-point correction=                           0.116632 (Hartree/Particle)
 Thermal correction to Energy=                    0.124080
 Thermal correction to Enthalpy=                  0.125024
 Thermal correction to Gibbs Free Energy=         0.085929
 Sum of electronic and zero-point Energies=           -303.709766
 Sum of electronic and thermal Energies=              -303.702317
 Sum of electronic and thermal Enthalpies=            -303.701373
 Sum of electronic and thermal Free Energies=         -303.740468

                     E (Thermal)             CV                S
                      KCal/Mol        Cal/Mol-Kelvin    Cal/Mol-Kelvin
 Total                   77.861             26.256             82.282
 Electronic               0.000              0.000              0.000
 Translational            0.889              2.981             39.339
 Rotational               0.889              2.981             26.437
 Vibrational             76.084             20.295             16.506
 Vibration     1          0.604              1.949              3.453
 Vibration     2          0.623              1.888              2.518
 Vibration     3          0.644              1.820              2.010
 Vibration     4          0.662              1.766              1.745
 Vibration     5          0.699              1.655              1.364
 Vibration     6          0.731              1.565              1.144
 Vibration     7          0.732              1.561              1.136
 Vibration     8          0.778              1.438              0.910
 Vibration     9          0.834              1.300              0.716

 Normal termination of Gaussian 09 at Tue Aug 23 12:47:09 2022.

 -----------------------------------------------------------------
 #P Geom=AllCheck Guess=TCheck SCRF=Check CCSD(T,E4T,FrzG4)/GTBas1
 -----------------------------------------------------------------

 Structure from the checkpoint file:  "G4.Frag_910.chk"
 --------
 Frag_910
 --------
 Charge =  0 Multiplicity = 1

 SCF Done:  E(RHF) =  -301.954802558     A.U. after   13 cycles
 E2 =    -0.8962601497D+00 EUMP2 =    -0.30285106270806D+03
 CCSD(T)
 CCSD(T)= -0.30293074508D+03
 89\MP4SDQ=-302.9005728\CCSD=-302.9008187\CCSD(T)=-302.9307451\RMSD=3.0
 Normal termination of Gaussian 09 at Tue Aug 23 12:53:26 2022.

 ---------------------------------------------------------
 #P Geom=AllCheck Guess=TCheck SCRF=Check MP4=FrzG4/GTBas2
 ---------------------------------------------------------

 Structure from the checkpoint file:  "G4.Frag_910.chk"
 --------
 Frag_910
 --------
 Charge =  0 Multiplicity = 1

 SCF Done:  E(RHF) =  -301.965118401     A.U. after   13 cycles
 E2 =    -0.9101113424D+00 EUMP2 =    -0.30287522974368D+03
 Normal termination of Gaussian 09 at Tue Aug 23 12:59:34 2022.

 ---------------------------------------------------------
 #P Geom=AllCheck Guess=TCheck SCRF=Check MP4=FrzG4/GTBas3
 ---------------------------------------------------------

 Structure from the checkpoint file:  "G4.Frag_910.chk"
 --------
 Frag_910
 --------
 Charge =  0 Multiplicity = 1

 SCF Done:  E(RHF) =  -301.993863135     A.U. after   12 cycles
 E2 =    -0.1095760912D+01 EUMP2 =    -0.30308962404746D+03
 Normal termination of Gaussian 09 at Tue Aug 23 15:30:11 2022.

 -----------------------------------------------------------
 #P Geom=AllCheck Guess=TCheck SCRF=Check MP2=Full/GTLargeXP
 -----------------------------------------------------------

 Structure from the checkpoint file:  "G4.Frag_910.chk"
 --------
 Frag_910
 --------
 Charge =  0 Multiplicity = 1

 SCF Done:  E(RHF) =  -302.071998175     A.U. after   12 cycles
 E2 =    -0.1432224124D+01 EUMP2 =    -0.30350422229937D+03
 Normal termination of Gaussian 09 at Tue Aug 23 15:36:04 2022.
 SCF Done:  E(RHF) =  -302.095983223     A.U. after    9 cycles
 Normal termination of Gaussian 09 at Tue Aug 23 15:42:09 2022.

                         Standard orientation:
 ---------------------------------------------------------------------
 Center     Atomic      Atomic             Coordinates (Angstroms)
 Number     Number       Type             X           Y           Z
 ---------------------------------------------------------------------
      1          6           0        1.039223    1.273142   -0.430930
      2          6           0        0.312076   -0.000131    0.028275
      3          6           0        1.039415   -1.275233   -0.425421
      4          8           0        0.111230    0.002579    1.424269
      5          7           0       -0.981622   -0.001961   -0.685753
      6          7           0       -1.980325    0.000479    0.046808
      7          1           0        1.112350    1.312252   -1.520304
      8          1           0        0.495177    2.153397   -0.079217
      9          1           0        2.051493    1.296182   -0.013778
     10          1           0        0.495932   -2.153989   -0.069130
     11          1           0        1.112103   -1.319584   -1.514653
     12          1           0        2.051751   -1.295916   -0.008413
     13          1           0        0.978120    0.011964    1.842052
     14          1           0       -2.797420   -0.001236   -0.589641
 ---------------------------------------------------------------------

 SCF Done:  E(RHF) =  -302.101011469     A.U. after    8 cycles

 The electronic state is 1-A.
 Alpha  occ. eigenvalues --  -20.55984 -15.62324 -15.61308 -11.32207 -11.22597
 Alpha  occ. eigenvalues --  -11.22577  -1.39424  -1.33551  -1.07504  -0.95218
 Alpha  occ. eigenvalues --   -0.92300  -0.77445  -0.70698  -0.66583  -0.62947
 Alpha  occ. eigenvalues --   -0.60952  -0.58517  -0.56309  -0.54594  -0.52323
 Alpha  occ. eigenvalues --   -0.50193  -0.49361  -0.44038  -0.38900
 Alpha virt. eigenvalues --    0.03397   0.04223   0.04925   0.05497   0.07111
 Alpha virt. eigenvalues --    0.07337   0.07422   0.07475   0.08108   0.10350
 Alpha virt. eigenvalues --    0.11217   0.11422   0.11654   0.13637   0.14782

 Mulliken charges:
               1
     1  C   -0.544721
     2  C    0.453423
     3  C   -0.544503
     4  O   -0.572099
     5  N   -0.159000
     6  N   -0.397987
     7  H    0.190858
     8  H    0.189025
     9  H    0.162527
    10  H    0.189071
    11  H    0.190678
    12  H    0.162622
    13  H    0.369591
    14  H    0.310517
 Sum of Mulliken charges =  -0.00000

 Dipole moment (field-independent basis, Debye):
    X=              1.9885    Y=              0.0124    Z=             -0.9033  Tot=              2.1841
 Quadrupole moment (field-independent basis, Debye-Ang):
   XX=            -32.2907   YY=            -36.8907   ZZ=            -39.3904
   XY=              0.0302   XZ=              4.7915   YZ=              0.0199

 Normal termination of Gaussian 09 at Tue Aug 23 18:27:48 2022.
