 Gaussian 09, Revision E.01,
 Gaussian 09:  ES64L-G09RevE.01 30-Nov-2015

 -----
 #P G4
 -----

 --------
 Frag_572
 --------
 Symbolic Z-matrix:
 Charge =  0 Multiplicity = 1

 SCF Done:  E(RB3LYP) =  -227.382338743     A.U. after   14 cycles
 SCF Done:  E(RB3LYP) =  -227.409600545     A.U. after   12 cycles
 SCF Done:  E(RB3LYP) =  -227.415855382     A.U. after   11 cycles
 SCF Done:  E(RB3LYP) =  -227.416301746     A.U. after   10 cycles
 SCF Done:  E(RB3LYP) =  -227.416371371     A.U. after   10 cycles
 SCF Done:  E(RB3LYP) =  -227.416525843     A.U. after   10 cycles
 SCF Done:  E(RB3LYP) =  -227.416612968     A.U. after   12 cycles
 SCF Done:  E(RB3LYP) =  -227.416703741     A.U. after   10 cycles
 SCF Done:  E(RB3LYP) =  -227.416745954     A.U. after   10 cycles
 SCF Done:  E(RB3LYP) =  -227.416748954     A.U. after    8 cycles
 SCF Done:  E(RB3LYP) =  -227.416750448     A.U. after    8 cycles
 SCF Done:  E(RB3LYP) =  -227.416750713     A.U. after    7 cycles
 SCF Done:  E(RB3LYP) =  -227.416750766     A.U. after    6 cycles
 Optimization completed.
    -- Stationary point found.
 Normal termination of Gaussian 09 at Tue Aug 30 09:40:12 2022.

 ----------------------------------------------------------
 #P Geom=AllCheck Guess=TCheck SCRF=Check B3LYP/GTBas3 Freq
 ----------------------------------------------------------

 Structure from the checkpoint file:  "G4.Frag_572.chk"
 --------
 Frag_572
 --------
 Charge =  0 Multiplicity = 1

 SCF Done:  E(RB3LYP) =  -227.416750766     A.U. after    1 cycles

  Exact polarizability:  57.945  -0.001  40.635   0.323  -0.001  32.767
 Approx polarizability:  91.350  -0.001  52.580   2.743  -0.001  47.360

                      1                      2                      3
                      A                      A                      A
 Frequencies --    140.4725               179.0563               212.1493
 Red. masses --      1.6341                 1.0526                 4.1119
 Frc consts  --      0.0190                 0.0199                 0.1090
 IR Inten    --      1.2691                 0.5131                 5.4211

                      4                      5                      6
                      A                      A                      A
 Frequencies --    217.6860               364.3286               548.7885
 Red. masses --      1.6285                 2.3531                10.9167
 Frc consts  --      0.0455                 0.1840                 1.9371
 IR Inten    --      3.1609                 0.7881                 9.2908

                      7                      8                      9
                      A                      A                      A
 Frequencies --    638.2003               776.8715              1077.9072
 Red. masses --      6.2862                 4.9023                 1.9195
 Frc consts  --      1.5085                 1.7432                 1.3140
 IR Inten    --      1.7791                 6.5243                40.0736

                     10                     11                     12
                      A                      A                      A
 Frequencies --   1077.9493              1124.0448              1173.3573
 Red. masses --      1.5956                 1.2314                 1.3641
 Frc consts  --      1.0923                 0.9167                 1.1065
 IR Inten    --     15.3555                 4.1613                 7.3195

                     13                     14                     15
                      A                      A                      A
 Frequencies --   1240.5424              1367.4773              1448.4317
 Red. masses --      3.7984                 3.0648                 1.1332
 Frc consts  --      3.4440                 3.3767                 1.4007
 IR Inten    --     18.7366                25.3741                 0.0783

                     16                     17                     18
                      A                      A                      A
 Frequencies --   1471.0260              1479.3413              1492.8904
 Red. masses --      1.1422                 1.0439                 1.0611
 Frc consts  --      1.4562                 1.3460                 1.3934
 IR Inten    --      4.8807                 4.2513                23.4744

                     19                     20                     21
                      A                      A                      A
 Frequencies --   1500.3562              1523.5486              2335.1986
 Red. masses --      1.0462                 1.0916                12.4353
 Frc consts  --      1.3875                 1.4928                39.9533
 IR Inten    --     10.8490                 4.9127               164.4012

                     22                     23                     24
                      A                      A                      A
 Frequencies --   3003.9670              3007.6228              3086.0188
 Red. masses --      1.0457                 1.0481                 1.0892
 Frc consts  --      5.5597                 5.5859                 6.1115
 IR Inten    --     32.0913                69.5831                41.3886

                     25                     26                     27
                      A                      A                      A
 Frequencies --   3087.7275              3144.3876              3145.5027
 Red. masses --      1.0914                 1.1009                 1.1019
 Frc consts  --      6.1309                 6.4132                 6.4235
 IR Inten    --      1.5941                 4.5365                10.6537

 - Thermochemistry -
 -------------------
 Temperature   298.150 Kelvin.  Pressure   1.00000 Atm.
 Atom     1 has atomic number  6 and mass  12.00000

 Molecular mass:    70.05310 amu.
 Principal axes and moments of inertia in atomic units:
                           1         2         3
     Eigenvalues --   202.80058 428.05830 602.29583
           X            0.99998  -0.00001  -0.00563
           Y            0.00001   1.00000  -0.00000
           Z            0.00563   0.00000   0.99998
 This molecule is an asymmetric top.
 Rotational symmetry number  1.
 Rotational temperatures (Kelvin)      0.42709     0.20234     0.14381
 Rotational constants (GHZ):           8.89909     4.21611     2.99644
 Zero-point vibrational energy     238444.8 (Joules/Mol)
                                   56.98966 (Kcal/Mol)
 Warning -- explicit consideration of   6 degrees of freedom as
           vibrations may cause significant error
 Vibrational temperatures:    202.11   257.62   305.24   313.20   524.19
          (Kelvin)            789.58   918.23  1117.74  1550.87  1550.93
                             1617.25  1688.20  1784.86  1967.49  2083.97
                             2116.48  2128.44  2147.93  2158.68  2192.04
                             3359.83  4322.03  4327.29  4440.09  4442.55
                             4524.07  4525.67

 Zero-point correction=                           0.090819 (Hartree/Particle)
 Thermal correction to Energy=                    0.096893
 Thermal correction to Enthalpy=                  0.097837
 Thermal correction to Gibbs Free Energy=         0.061777
 Sum of electronic and zero-point Energies=           -227.325932
 Sum of electronic and thermal Energies=              -227.319858
 Sum of electronic and thermal Enthalpies=            -227.318914
 Sum of electronic and thermal Free Energies=         -227.354973

                     E (Thermal)             CV                S
                      KCal/Mol        Cal/Mol-Kelvin    Cal/Mol-Kelvin
 Total                   60.801             19.566             75.894
 Electronic               0.000              0.000              0.000
 Translational            0.889              2.981             38.657
 Rotational               0.889              2.981             25.461
 Vibrational             59.024             13.605             11.775
 Vibration     1          0.615              1.913              2.797
 Vibration     2          0.629              1.868              2.338
 Vibration     3          0.643              1.822              2.025
 Vibration     4          0.646              1.814              1.978
 Vibration     5          0.738              1.546              1.104
 Vibration     6          0.904              1.142              0.547

 Normal termination of Gaussian 09 at Tue Aug 30 09:40:33 2022.

 -----------------------------------------------------------------
 #P Geom=AllCheck Guess=TCheck SCRF=Check CCSD(T,E4T,FrzG4)/GTBas1
 -----------------------------------------------------------------

 Structure from the checkpoint file:  "G4.Frag_572.chk"
 --------
 Frag_572
 --------
 Charge =  0 Multiplicity = 1

 SCF Done:  E(RHF) =  -225.965365663     A.U. after   13 cycles
 E2 =    -0.7033399011D+00 EUMP2 =    -0.22666870556379D+03
 CCSD(T)
 CCSD(T)= -0.22673042856D+03
 33\MP4SDQ=-226.7046732\CCSD=-226.7041297\CCSD(T)=-226.7304286\RMSD=4.2
 Normal termination of Gaussian 09 at Tue Aug 30 09:41:22 2022.

 ---------------------------------------------------------
 #P Geom=AllCheck Guess=TCheck SCRF=Check MP4=FrzG4/GTBas2
 ---------------------------------------------------------

 Structure from the checkpoint file:  "G4.Frag_572.chk"
 --------
 Frag_572
 --------
 Charge =  0 Multiplicity = 1

 SCF Done:  E(RHF) =  -225.971061233     A.U. after   12 cycles
 E2 =    -0.7110962539D+00 EUMP2 =    -0.22668215748696D+03
 Normal termination of Gaussian 09 at Tue Aug 30 09:41:35 2022.

 ---------------------------------------------------------
 #P Geom=AllCheck Guess=TCheck SCRF=Check MP4=FrzG4/GTBas3
 ---------------------------------------------------------

 Structure from the checkpoint file:  "G4.Frag_572.chk"
 --------
 Frag_572
 --------
 Charge =  0 Multiplicity = 1

 SCF Done:  E(RHF) =  -225.990927814     A.U. after   12 cycles
 E2 =    -0.8488867176D+00 EUMP2 =    -0.22683981453194D+03
 Normal termination of Gaussian 09 at Tue Aug 30 09:42:46 2022.

 -----------------------------------------------------------
 #P Geom=AllCheck Guess=TCheck SCRF=Check MP2=Full/GTLargeXP
 -----------------------------------------------------------

 Structure from the checkpoint file:  "G4.Frag_572.chk"
 --------
 Frag_572
 --------
 Charge =  0 Multiplicity = 1

 SCF Done:  E(RHF) =  -226.044168934     A.U. after   12 cycles
 E2 =    -0.1116334647D+01 EUMP2 =    -0.22716050358074D+03
 Normal termination of Gaussian 09 at Tue Aug 30 09:43:31 2022.
 SCF Done:  E(RHF) =  -226.061275055     A.U. after   10 cycles
 Normal termination of Gaussian 09 at Tue Aug 30 09:44:33 2022.

                         Standard orientation:
 ---------------------------------------------------------------------
 Center     Atomic      Atomic             Coordinates (Angstroms)
 Number     Number       Type             X           Y           Z
 ---------------------------------------------------------------------
      1          6           0       -1.014545   -1.243860    0.052547
      2          7           0       -0.295262   -0.000002   -0.214858
      3          6           0       -1.014754    1.243758    0.052554
      4          6           0        1.027054    0.000079   -0.042506
      5          7           0        2.185139    0.000070    0.066942
      6          1           0       -1.945978   -1.244295   -0.521302
      7          1           0       -0.404571   -2.089886   -0.267003
      8          1           0       -1.256968   -1.361781    1.118200
      9          1           0       -1.259098    1.360542    1.117883
     10          1           0       -0.403925    2.089934   -0.264901
     11          1           0       -1.945132    1.245151   -0.523034
 ---------------------------------------------------------------------

 SCF Done:  E(RHF) =  -226.064674418     A.U. after    8 cycles

 The electronic state is 1-A.
 Alpha  occ. eigenvalues --  -15.61805 -15.55070 -11.29408 -11.28541 -11.28539
 Alpha  occ. eigenvalues --   -1.30002  -1.18766  -0.99728  -0.94651  -0.74171
 Alpha  occ. eigenvalues --   -0.67292  -0.66291  -0.59056  -0.58281  -0.55880
 Alpha  occ. eigenvalues --   -0.54479  -0.51366  -0.45130  -0.37742
 Alpha virt. eigenvalues --    0.02903   0.03595   0.04550   0.05287   0.06564
 Alpha virt. eigenvalues --    0.06750   0.07492   0.07790   0.07857   0.09761
 Alpha virt. eigenvalues --    0.13188   0.13419   0.14606   0.15220   0.15664

 Mulliken charges:
               1
     1  C   -0.468115
     2  N   -0.046964
     3  C   -0.468025
     4  C    0.310965
     5  N   -0.463741
     6  H    0.184998
     7  H    0.211702
     8  H    0.171253
     9  H    0.171213
    10  H    0.211739
    11  H    0.184975
 Sum of Mulliken charges =  -0.00000

 Dipole moment (field-independent basis, Debye):
    X=             -5.2006    Y=              0.0000    Z=              0.1487  Tot=              5.2027
 Quadrupole moment (field-independent basis, Debye-Ang):
   XX=            -39.5870   YY=            -27.3446   ZZ=            -31.4714
   XY=             -0.0002   XZ=             -0.5082   YZ=              0.0004

 Normal termination of Gaussian 09 at Tue Aug 30 09:50:01 2022.
