 Gaussian 09, Revision E.01,
 Gaussian 09:  ES64L-G09RevE.01 30-Nov-2015

 -----
 #P G4
 -----

 ---------
 Frag_1092
 ---------
 Symbolic Z-matrix:
 Charge =  0 Multiplicity = 1

 SCF Done:  E(RB3LYP) =  -380.302789438     A.U. after   12 cycles
 SCF Done:  E(RB3LYP) =  -380.311560111     A.U. after   11 cycles
 SCF Done:  E(RB3LYP) =  -380.312774880     A.U. after   10 cycles
 SCF Done:  E(RB3LYP) =  -380.313625848     A.U. after   10 cycles
 SCF Done:  E(RB3LYP) =  -380.313787660     A.U. after   10 cycles
 SCF Done:  E(RB3LYP) =  -380.313984737     A.U. after   10 cycles
 SCF Done:  E(RB3LYP) =  -380.314110593     A.U. after   10 cycles
 SCF Done:  E(RB3LYP) =  -380.314198569     A.U. after   10 cycles
 SCF Done:  E(RB3LYP) =  -380.314228002     A.U. after    9 cycles
 SCF Done:  E(RB3LYP) =  -380.314234720     A.U. after    8 cycles
 SCF Done:  E(RB3LYP) =  -380.314235708     A.U. after    6 cycles
 SCF Done:  E(RB3LYP) =  -380.314235883     A.U. after    6 cycles
 SCF Done:  E(RB3LYP) =  -380.314235930     A.U. after    6 cycles
 Optimization completed.
    -- Stationary point found.
 Normal termination of Gaussian 09 at Mon Aug 22 10:40:53 2022.

 ----------------------------------------------------------
 #P Geom=AllCheck Guess=TCheck SCRF=Check B3LYP/GTBas3 Freq
 ----------------------------------------------------------

 Structure from the checkpoint file:  "G4.Frag_1092.chk"
 ---------
 Frag_1092
 ---------
 Charge =  0 Multiplicity = 1

 SCF Done:  E(RB3LYP) =  -380.314235930     A.U. after    1 cycles

  Exact polarizability:  61.576   0.293  54.337  -0.029   0.891  53.200
 Approx polarizability:  80.803  -1.879  78.123  -0.378   3.349  77.123

                      1                      2                      3
                      A                      A                      A
 Frequencies --    108.5953               150.6942               217.0170
 Red. masses --      3.6766                 1.1091                 1.0865
 Frc consts  --      0.0255                 0.0148                 0.0301
 IR Inten    --      3.7137                22.1893                 0.8492

                      4                      5                      6
                      A                      A                      A
 Frequencies --    227.8677               254.6836               286.0246
 Red. masses --      2.4591                 1.2025                 2.8970
 Frc consts  --      0.0752                 0.0460                 0.1396
 IR Inten    --     30.9313                97.4986                 1.8995

                      7                      8                      9
                      A                      A                      A
 Frequencies --    319.2143               346.5847               370.4585
 Red. masses --      1.2739                 2.4525                 1.3579
 Frc consts  --      0.0765                 0.1736                 0.1098
 IR Inten    --     36.9439                10.1004                18.2442

                     10                     11                     12
                      A                      A                      A
 Frequencies --    429.9677               481.2236               503.7050
 Red. masses --      2.8052                 2.6477                 2.6853
 Frc consts  --      0.3055                 0.3613                 0.4014
 IR Inten    --     14.3906                29.3059                35.3377

                     13                     14                     15
                      A                      A                      A
 Frequencies --    560.2586               607.5356               762.2795
 Red. masses --      4.3492                 3.1295                 3.2227
 Frc consts  --      0.8043                 0.6806                 1.1033
 IR Inten    --      2.2632                18.4246                 5.5428

                     16                     17                     18
                      A                      A                      A
 Frequencies --    880.4671               905.3191               929.0198
 Red. masses --      1.6072                 2.0608                 1.6209
 Frc consts  --      0.7341                 0.9952                 0.8243
 IR Inten    --    126.5269                43.9601               124.0749

                     19                     20                     21
                      A                      A                      A
 Frequencies --    980.8796              1018.7726              1069.8428
 Red. masses --      1.8096                 1.8047                 1.6667
 Frc consts  --      1.0258                 1.1036                 1.1240
 IR Inten    --    137.5351                28.8671                30.3267

                     22                     23                     24
                      A                      A                      A
 Frequencies --   1088.7757              1126.7299              1180.0719
 Red. masses --      2.5549                 2.3982                 2.3575
 Frc consts  --      1.7844                 1.7938                 1.9342
 IR Inten    --     46.1206               100.8449                21.2578

                     25                     26                     27
                      A                      A                      A
 Frequencies --   1218.1607              1231.8837              1355.3614
 Red. masses --      1.4482                 1.1546                 1.9083
 Frc consts  --      1.2662                 1.0324                 2.0654
 IR Inten    --    113.7823                36.6811                14.5648

                     28                     29                     30
                      A                      A                      A
 Frequencies --   1365.3320              1381.8385              1406.2933
 Red. masses --      1.2549                 1.4285                 1.3208
 Frc consts  --      1.3783                 1.6071                 1.5390
 IR Inten    --      2.8936                51.3529                21.6481

                     31                     32                     33
                      A                      A                      A
 Frequencies --   1454.9818              1482.8951              1505.6007
 Red. masses --      1.6437                 1.0506                 1.1513
 Frc consts  --      2.0502                 1.3612                 1.5377
 IR Inten    --     10.0361                 0.9899                 9.3623

                     34                     35                     36
                      A                      A                      A
 Frequencies --   1643.2793              1656.2542              2985.1697
 Red. masses --      1.1122                 1.1075                 1.0835
 Frc consts  --      1.7695                 1.7900                 5.6890
 IR Inten    --     36.7549                42.6852                51.7656

                     37                     38                     39
                      A                      A                      A
 Frequencies --   3029.8872              3111.0571              3144.7355
 Red. masses --      1.0448                 1.0907                 1.1014
 Frc consts  --      5.6510                 6.2198                 6.4177
 IR Inten    --     32.0085                18.2134                10.2282

                     40                     41                     42
                      A                      A                      A
 Frequencies --   3473.3378              3487.5086              3559.8168
 Red. masses --      1.0498                 1.0486                 1.0908
 Frc consts  --      7.4622                 7.5143                 8.1440
 IR Inten    --      0.7788                 2.1212                 1.7332

                     43                     44                     45
                      A                      A                      A
 Frequencies --   3568.0266              3798.6856              3833.5168
 Red. masses --      1.0917                 1.0652                 1.0664
 Frc consts  --      8.1887                 9.0565                 9.2335
 IR Inten    --      6.6108                23.2043                24.0707

 - Thermochemistry -
 -------------------
 Temperature   298.150 Kelvin.  Pressure   1.00000 Atm.
 Atom     1 has atomic number  6 and mass  12.00000

 Molecular mass:   106.07423 amu.
 Principal axes and moments of inertia in atomic units:
                           1         2         3
     Eigenvalues --   538.83306 765.62328 923.14190
           X            0.99694   0.07804   0.00446
           Y           -0.07801   0.99693  -0.00649
           Z           -0.00495   0.00612   0.99997
 This molecule is an asymmetric top.
 Rotational symmetry number  1.
 Warning -- assumption of classical behavior for rotation
           may cause significant error
 Rotational temperatures (Kelvin)      0.16074     0.11313     0.09383
 Rotational constants (GHZ):           3.34935     2.35722     1.95500
 Zero-point vibrational energy     385793.3 (Joules/Mol)
                                   92.20682 (Kcal/Mol)
 Warning -- explicit consideration of  14 degrees of freedom as
           vibrations may cause significant error
 Vibrational temperatures:    156.24   216.82   312.24   327.85   366.43
          (Kelvin)            411.53   459.28   498.66   533.01   618.63
                              692.37   724.72   806.09   874.11  1096.75
                             1266.79  1302.55  1336.65  1411.27  1465.78
                             1539.26  1566.50  1621.11  1697.86  1752.66
                             1772.40  1950.06  1964.41  1988.15  2023.34
                             2093.39  2133.55  2166.22  2364.31  2382.98
                             4294.99  4359.33  4476.11  4524.57  4997.35
                             5017.74  5121.78  5133.59  5465.45  5515.57

 Zero-point correction=                           0.146941 (Hartree/Particle)
 Thermal correction to Energy=                    0.155788
 Thermal correction to Enthalpy=                  0.156732
 Thermal correction to Gibbs Free Energy=         0.114735
 Sum of electronic and zero-point Energies=           -380.167295
 Sum of electronic and thermal Energies=              -380.158448
 Sum of electronic and thermal Enthalpies=            -380.157504
 Sum of electronic and thermal Free Energies=         -380.199501

                     E (Thermal)             CV                S
                      KCal/Mol        Cal/Mol-Kelvin    Cal/Mol-Kelvin
 Total                   97.759             32.888             88.390
 Electronic               0.000              0.000              0.000
 Translational            0.889              2.981             39.894
 Rotational               0.889              2.981             27.434
 Vibrational             95.981             26.927             21.062
 Vibration     1          0.606              1.942              3.294
 Vibration     2          0.618              1.902              2.663
 Vibration     3          0.646              1.815              1.984
 Vibration     4          0.651              1.799              1.896
 Vibration     5          0.665              1.755              1.698
 Vibration     6          0.684              1.700              1.497
 Vibration     7          0.705              1.637              1.314
 Vibration     8          0.725              1.582              1.182
 Vibration     9          0.742              1.533              1.078
 Vibration    10          0.791              1.405              0.859
 Vibration    11          0.838              1.292              0.707
 Vibration    12          0.859              1.242              0.649
 Vibration    13          0.916              1.117              0.523
 Vibration    14          0.966              1.016              0.437

 Optimization completed.
    -- Stationary point found.
 Normal termination of Gaussian 09 at Mon Aug 22 10:45:51 2022.

 -----------------------------------------------------------------
 #P Geom=AllCheck Guess=TCheck SCRF=Check CCSD(T,E4T,FrzG4)/GTBas1
 -----------------------------------------------------------------

 Structure from the checkpoint file:  "G4.Frag_1092.chk"
 ---------
 Frag_1092
 ---------
 Charge =  0 Multiplicity = 1

 SCF Done:  E(RHF) =  -378.027045640     A.U. after   12 cycles
 E2 =    -0.1083330132D+01 EUMP2 =    -0.37911037577254D+03
 CCSD(T)
 CCSD(T)= -0.37919635864D+03
 379.1661551\CCSD=-379.1665121\CCSD(T)=-379.1963586\RMSD=3.468e-09\PG=C
 Normal termination of Gaussian 09 at Mon Aug 22 11:00:56 2022.

 ---------------------------------------------------------
 #P Geom=AllCheck Guess=TCheck SCRF=Check MP4=FrzG4/GTBas2
 ---------------------------------------------------------

 Structure from the checkpoint file:  "G4.Frag_1092.chk"
 ---------
 Frag_1092
 ---------
 Charge =  0 Multiplicity = 1

 SCF Done:  E(RHF) =  -378.042091363     A.U. after   12 cycles
 E2 =    -0.1104240099D+01 EUMP2 =    -0.37914633146196D+03
 Normal termination of Gaussian 09 at Mon Aug 22 11:18:57 2022.

 ---------------------------------------------------------
 #P Geom=AllCheck Guess=TCheck SCRF=Check MP4=FrzG4/GTBas3
 ---------------------------------------------------------

 Structure from the checkpoint file:  "G4.Frag_1092.chk"
 ---------
 Frag_1092
 ---------
 Charge =  0 Multiplicity = 1

 SCF Done:  E(RHF) =  -378.084222101     A.U. after   11 cycles
 E2 =    -0.1341432987D+01 EUMP2 =    -0.37942565508767D+03
 Normal termination of Gaussian 09 at Mon Aug 22 16:33:07 2022.

 -----------------------------------------------------------
 #P Geom=AllCheck Guess=TCheck SCRF=Check MP2=Full/GTLargeXP
 -----------------------------------------------------------

 Structure from the checkpoint file:  "G4.Frag_1092.chk"
 ---------
 Frag_1092
 ---------
 Charge =  0 Multiplicity = 1

 SCF Done:  E(RHF) =  -378.188837414     A.U. after   12 cycles
 E2 =    -0.1747599122D+01 EUMP2 =    -0.37993643653595D+03
 Normal termination of Gaussian 09 at Mon Aug 22 16:48:45 2022.
 SCF Done:  E(RHF) =  -378.218813027     A.U. after    8 cycles
 Normal termination of Gaussian 09 at Mon Aug 22 16:58:15 2022.

                         Standard orientation:
 ---------------------------------------------------------------------
 Center     Atomic      Atomic             Coordinates (Angstroms)
 Number     Number       Type             X           Y           Z
 ---------------------------------------------------------------------
      1          6           0       -1.760041   -1.014707    0.035238
      2          6           0       -0.818311    0.069972   -0.476332
      3          8           0       -1.220299    1.374330   -0.050011
      4          6           0        0.639021   -0.089544    0.017812
      5          7           0        1.562072    0.901096   -0.543914
      6          7           0        0.655314   -0.019326    1.468788
      7          8           0        1.052015   -1.350914   -0.455328
      8          1           0       -1.413397   -1.996283   -0.293751
      9          1           0       -2.773156   -0.859498   -0.356161
     10          1           0       -1.795586   -1.010835    1.127179
     11          1           0       -0.776773    0.030157   -1.575586
     12          1           0       -2.169380    1.452120   -0.183319
     13          1           0        1.233859    1.832358   -0.301346
     14          1           0        1.542019    0.839078   -1.559809
     15          1           0        0.025156    0.722444    1.761776
     16          1           0        1.589013    0.245236    1.771122
     17          1           0        1.998804   -1.408815   -0.281817
 ---------------------------------------------------------------------

 SCF Done:  E(RHF) =  -378.225537977     A.U. after    8 cycles

 The electronic state is 1-A.
 Alpha  occ. eigenvalues --  -20.56639 -20.55421 -15.54439 -15.53470 -11.33918
 Alpha  occ. eigenvalues --  -11.28480 -11.21423  -1.38997  -1.36798  -1.20219
 Alpha  occ. eigenvalues --   -1.12969  -1.02076  -0.89448  -0.78983  -0.72015
 Alpha  occ. eigenvalues --   -0.70503  -0.66358  -0.64591  -0.63852  -0.60492
 Alpha  occ. eigenvalues --   -0.57851  -0.55033  -0.54375  -0.52884  -0.49420
 Alpha  occ. eigenvalues --   -0.47695  -0.45140  -0.41463  -0.40542
 Alpha virt. eigenvalues --    0.03345   0.04299   0.04640   0.05212   0.06437
 Alpha virt. eigenvalues --    0.06890   0.07516   0.07819   0.08543   0.10245
 Alpha virt. eigenvalues --    0.11212   0.11456   0.12453   0.13203   0.13908

 Mulliken charges:
               1
     1  C   -0.552201
     2  C    0.115026
     3  O   -0.621512
     4  C    0.551614
     5  N   -0.767467
     6  N   -0.782614
     7  O   -0.614051
     8  H    0.202705
     9  H    0.148981
    10  H    0.184601
    11  H    0.142500
    12  H    0.378044
    13  H    0.313823
    14  H    0.292571
    15  H    0.320990
    16  H    0.309301
    17  H    0.377689
 Sum of Mulliken charges =  -0.00000

 Dipole moment (field-independent basis, Debye):
    X=             -1.0609    Y=              1.4111    Z=             -0.8280  Tot=              1.9499
 Quadrupole moment (field-independent basis, Debye-Ang):
   XX=            -37.8869   YY=            -46.0496   ZZ=            -43.0034
   XY=             -1.7016   XZ=              1.3449   YZ=              0.7680

 Normal termination of Gaussian 09 at Mon Aug 22 21:41:55 2022.
