 Gaussian 09, Revision E.01,
 Gaussian 09:  ES64L-G09RevE.01 30-Nov-2015

 -----
 #P G4
 -----

 --------
 Frag_636
 --------
 Symbolic Z-matrix:
 Charge =  0 Multiplicity = 1

 SCF Done:  E(RB3LYP) =  -338.536137463     A.U. after   15 cycles
 SCF Done:  E(RB3LYP) =  -338.564200401     A.U. after   13 cycles
 SCF Done:  E(RB3LYP) =  -338.570674665     A.U. after   13 cycles
 SCF Done:  E(RB3LYP) =  -338.571181793     A.U. after   12 cycles
 SCF Done:  E(RB3LYP) =  -338.571280771     A.U. after   12 cycles
 SCF Done:  E(RB3LYP) =  -338.571443212     A.U. after   10 cycles
 SCF Done:  E(RB3LYP) =  -338.571452017     A.U. after    9 cycles
 SCF Done:  E(RB3LYP) =  -338.571455941     A.U. after    9 cycles
 SCF Done:  E(RB3LYP) =  -338.571456563     A.U. after    7 cycles
 SCF Done:  E(RB3LYP) =  -338.571456692     A.U. after    7 cycles
 Optimization completed.
    -- Stationary point found.
 Normal termination of Gaussian 09 at Wed Aug 24 02:27:01 2022.

 ----------------------------------------------------------
 #P Geom=AllCheck Guess=TCheck SCRF=Check B3LYP/GTBas3 Freq
 ----------------------------------------------------------

 Structure from the checkpoint file:  "G4.Frag_636.chk"
 --------
 Frag_636
 --------
 Charge =  0 Multiplicity = 1

 SCF Done:  E(RB3LYP) =  -338.571456692     A.U. after    1 cycles

  Exact polarizability:  48.821  -5.934  52.252  -0.714   0.272  25.417
 Approx polarizability:  67.500 -13.478  93.633  -0.865   0.544  39.638

                      1                      2                      3
                      A                      A                      A
 Frequencies --     85.3226               270.0730               351.2973
 Red. masses --      6.9809                 5.3352                 3.3527
 Frc consts  --      0.0299                 0.2293                 0.2438
 IR Inten    --      0.9790                 4.6761                11.6329

                      4                      5                      6
                      A                      A                      A
 Frequencies --    416.4126               464.6208               571.7181
 Red. masses --      4.1780                 1.1932                 2.1718
 Frc consts  --      0.4268                 0.1518                 0.4182
 IR Inten    --     35.3295               119.1387                34.0599

                      7                      8                      9
                      A                      A                      A
 Frequencies --    594.9715               632.7216               791.8674
 Red. masses --      2.6463                 1.8870                 3.8853
 Frc consts  --      0.5519                 0.4451                 1.4354
 IR Inten    --     25.6465                84.6595                57.0900

                     10                     11                     12
                      A                      A                      A
 Frequencies --    794.5741               865.1828               927.4541
 Red. masses --      8.6369                 1.1538                 1.2461
 Frc consts  --      3.2127                 0.5089                 0.6315
 IR Inten    --      7.1390                15.5685                76.4778

                     13                     14                     15
                      A                      A                      A
 Frequencies --   1085.7872              1109.0837              1225.1958
 Red. masses --      2.5347                 1.5826                 1.2041
 Frc consts  --      1.7606                 1.1470                 1.0650
 IR Inten    --     73.0889               155.1505                84.2010

                     16                     17                     18
                      A                      A                      A
 Frequencies --   1246.1211              1342.5116              1479.0504
 Red. masses --      1.5523                 1.9982                 3.4221
 Frc consts  --      1.4202                 2.1219                 4.4108
 IR Inten    --    149.2184               171.9220                75.6607

                     19                     20                     21
                      A                      A                      A
 Frequencies --   1713.3613              1774.5510              3465.8508
 Red. masses --      8.3765                 7.7635                 1.0740
 Frc consts  --     14.4881                14.4041                 7.6012
 IR Inten    --    255.7438                57.1499                 3.9859

                     22                     23                     24
                      A                      A                      A
 Frequencies --   3511.2167              3746.9782              3782.2255
 Red. masses --      1.0754                 1.0638                 1.0654
 Frc consts  --      7.8112                 8.8000                 8.9798
 IR Inten    --      3.9917                58.8720                43.0254

 - Thermochemistry -
 -------------------
 Temperature   298.150 Kelvin.  Pressure   1.00000 Atm.
 Atom     1 has atomic number  7 and mass  14.00307

 Molecular mass:    88.02728 amu.
 Principal axes and moments of inertia in atomic units:
                           1         2         3
     Eigenvalues --   314.31844 523.53124 791.51147
           X            0.99995  -0.01017  -0.00078
           Y            0.01017   0.99995   0.00160
           Z            0.00077  -0.00161   1.00000
 This molecule is an asymmetric top.
 Rotational symmetry number  1.
 Rotational temperatures (Kelvin)      0.27556     0.16544     0.10943
 Rotational constants (GHZ):           5.74176     3.44725     2.28012
 Zero-point vibrational energy     192886.8 (Joules/Mol)
                                   46.10104 (Kcal/Mol)
 Warning -- explicit consideration of   7 degrees of freedom as
           vibrations may cause significant error
 Vibrational temperatures:    122.76   388.57   505.44   599.12   668.48
          (Kelvin)            822.57   856.03   910.34  1139.32  1143.21
                             1244.80  1334.40  1562.20  1595.72  1762.78
                             1792.89  1931.57  2128.02  2465.14  2553.18
                             4986.58  5051.85  5391.06  5441.77

 Zero-point correction=                           0.073467 (Hartree/Particle)
 Thermal correction to Energy=                    0.079277
 Thermal correction to Enthalpy=                  0.080221
 Thermal correction to Gibbs Free Energy=         0.044020
 Sum of electronic and zero-point Energies=           -338.497990
 Sum of electronic and thermal Energies=              -338.492180
 Sum of electronic and thermal Enthalpies=            -338.491235
 Sum of electronic and thermal Free Energies=         -338.527437

                     E (Thermal)             CV                S
                      KCal/Mol        Cal/Mol-Kelvin    Cal/Mol-Kelvin
 Total                   49.747             20.622             76.193
 Electronic               0.000              0.000              0.000
 Translational            0.889              2.981             39.338
 Rotational               0.889              2.981             26.368
 Vibrational             47.970             14.661             10.487
 Vibration     1          0.601              1.959              3.765
 Vibration     2          0.674              1.728              1.596
 Vibration     3          0.728              1.573              1.160
 Vibration     4          0.780              1.435              0.904
 Vibration     5          0.822              1.329              0.753
 Vibration     6          0.928              1.092              0.501
 Vibration     7          0.953              1.042              0.458

 Optimization completed.
    -- Stationary point found.
 Normal termination of Gaussian 09 at Wed Aug 24 02:28:42 2022.

 -----------------------------------------------------------------
 #P Geom=AllCheck Guess=TCheck SCRF=Check CCSD(T,E4T,FrzG4)/GTBas1
 -----------------------------------------------------------------

 Structure from the checkpoint file:  "G4.Frag_636.chk"
 --------
 Frag_636
 --------
 Charge =  0 Multiplicity = 1

 SCF Done:  E(RHF) =  -336.651417954     A.U. after   13 cycles
 E2 =    -0.9292107955D+00 EUMP2 =    -0.33758062874922D+03
 CCSD(T)
 CCSD(T)= -0.33763903634D+03
 Normal termination of Gaussian 09 at Wed Aug 24 02:33:29 2022.

 ---------------------------------------------------------
 #P Geom=AllCheck Guess=TCheck SCRF=Check MP4=FrzG4/GTBas2
 ---------------------------------------------------------

 Structure from the checkpoint file:  "G4.Frag_636.chk"
 --------
 Frag_636
 --------
 Charge =  0 Multiplicity = 1

 SCF Done:  E(RHF) =  -336.663014541     A.U. after   12 cycles
 E2 =    -0.9442473861D+00 EUMP2 =    -0.33760726192731D+03
 Normal termination of Gaussian 09 at Wed Aug 24 02:39:06 2022.

 ---------------------------------------------------------
 #P Geom=AllCheck Guess=TCheck SCRF=Check MP4=FrzG4/GTBas3
 ---------------------------------------------------------

 Structure from the checkpoint file:  "G4.Frag_636.chk"
 --------
 Frag_636
 --------
 Charge =  0 Multiplicity = 1

 SCF Done:  E(RHF) =  -336.699820461     A.U. after   12 cycles
 E2 =    -0.1122642424D+01 EUMP2 =    -0.33782246288486D+03
 Normal termination of Gaussian 09 at Wed Aug 24 04:07:50 2022.

 -----------------------------------------------------------
 #P Geom=AllCheck Guess=TCheck SCRF=Check MP2=Full/GTLargeXP
 -----------------------------------------------------------

 Structure from the checkpoint file:  "G4.Frag_636.chk"
 --------
 Frag_636
 --------
 Charge =  0 Multiplicity = 1

 SCF Done:  E(RHF) =  -336.793841897     A.U. after   12 cycles
 E2 =    -0.1467236688D+01 EUMP2 =    -0.33826107858493D+03
 Normal termination of Gaussian 09 at Wed Aug 24 04:11:33 2022.
 SCF Done:  E(RHF) =  -336.820620458     A.U. after    9 cycles
 Normal termination of Gaussian 09 at Wed Aug 24 04:15:24 2022.

                         Standard orientation:
 ---------------------------------------------------------------------
 Center     Atomic      Atomic             Coordinates (Angstroms)
 Number     Number       Type             X           Y           Z
 ---------------------------------------------------------------------
      1          7           0       -1.353649    1.144463   -0.315545
      2          6           0       -0.742953    0.065849   -0.028447
      3          8           0       -1.412345   -1.042417    0.304295
      4          6           0        0.750207   -0.131257   -0.014955
      5          7           0        1.267286   -1.242093   -0.314774
      6          8           0        1.468874    0.986841    0.279566
      7          1           0       -0.715075    1.880172   -0.610615
      8          1           0       -2.353431   -0.828556    0.214406
      9          1           0        2.287375   -1.180502   -0.279300
     10          1           0        0.889905    1.649344    0.677260
 ---------------------------------------------------------------------

 SCF Done:  E(RHF) =  -336.826306165     A.U. after    8 cycles

 The electronic state is 1-A.
 Alpha  occ. eigenvalues --  -20.62430 -20.61488 -15.57035 -15.56510 -11.37672
 Alpha  occ. eigenvalues --  -11.36912  -1.46054  -1.44182  -1.22549  -1.21740
 Alpha  occ. eigenvalues --   -0.93794  -0.82402  -0.78113  -0.73209  -0.70048
 Alpha  occ. eigenvalues --   -0.65036  -0.61767  -0.60512  -0.57630  -0.49466
 Alpha  occ. eigenvalues --   -0.45464  -0.45153  -0.42163
 Alpha virt. eigenvalues --    0.03507   0.04366   0.05116   0.05380   0.07088
 Alpha virt. eigenvalues --    0.07525   0.07751   0.08938   0.10098   0.11152
 Alpha virt. eigenvalues --    0.12981   0.13228   0.14010   0.14664   0.15282

 Mulliken charges:
               1
     1  N   -0.689517
     2  C    0.481254
     3  O   -0.487709
     4  C    0.413444
     5  N   -0.572623
     6  O   -0.541890
     7  H    0.293868
     8  H    0.410698
     9  H    0.308451
    10  H    0.384024
 Sum of Mulliken charges =  -0.00000

 Dipole moment (field-independent basis, Debye):
    X=              0.1449    Y=              2.1541    Z=              0.7874  Tot=              2.2981
 Quadrupole moment (field-independent basis, Debye-Ang):
   XX=            -32.8945   YY=            -36.4941   ZZ=            -35.2500
   XY=              2.7256   XZ=             -0.4913   YZ=              0.4845

 Normal termination of Gaussian 09 at Wed Aug 24 06:04:41 2022.
