 Gaussian 09, Revision E.01,
 Gaussian 09:  ES64L-G09RevE.01 30-Nov-2015

 -----
 #P G4
 -----

 --------
 Frag_705
 --------
 Symbolic Z-matrix:
 Charge =  0 Multiplicity = 1

 SCF Done:  E(RB3LYP) =  -285.143176871     A.U. after   12 cycles
 SCF Done:  E(RB3LYP) =  -285.149362850     A.U. after   11 cycles
 SCF Done:  E(RB3LYP) =  -285.149962375     A.U. after   10 cycles
 SCF Done:  E(RB3LYP) =  -285.150107737     A.U. after   10 cycles
 SCF Done:  E(RB3LYP) =  -285.150136526     A.U. after    9 cycles
 SCF Done:  E(RB3LYP) =  -285.150159961     A.U. after    9 cycles
 SCF Done:  E(RB3LYP) =  -285.150179647     A.U. after    9 cycles
 SCF Done:  E(RB3LYP) =  -285.150187321     A.U. after    9 cycles
 SCF Done:  E(RB3LYP) =  -285.150188087     A.U. after    7 cycles
 SCF Done:  E(RB3LYP) =  -285.150188184     A.U. after    6 cycles
 Optimization completed.
    -- Stationary point found.
 Normal termination of Gaussian 09 at Fri Aug 19 13:17:36 2022.

 ----------------------------------------------------------
 #P Geom=AllCheck Guess=TCheck SCRF=Check B3LYP/GTBas3 Freq
 ----------------------------------------------------------

 Structure from the checkpoint file:  "G4.Frag_705.chk"
 --------
 Frag_705
 --------
 Charge =  0 Multiplicity = 1

 SCF Done:  E(RB3LYP) =  -285.150188184     A.U. after    1 cycles

  Exact polarizability:  63.609  -0.891  55.522  -0.154  -2.618  54.356
 Approx polarizability:  82.281  -1.411  78.006  -0.379  -5.861  79.913

                      1                      2                      3
                      A                      A                      A
 Frequencies --    105.7069               156.7134               209.2653
 Red. masses --      2.0938                 1.2657                 1.0619
 Frc consts  --      0.0138                 0.0183                 0.0274
 IR Inten    --      5.8803                29.0550                 0.5310

                      4                      5                      6
                      A                      A                      A
 Frequencies --    233.3617               279.4253               301.5650
 Red. masses --      1.0508                 2.4671                 2.9919
 Frc consts  --      0.0337                 0.1135                 0.1603
 IR Inten    --      2.2576                 3.4537                 1.5355

                      7                      8                      9
                      A                      A                      A
 Frequencies --    349.0844               383.6984               464.7881
 Red. masses --      2.1887                 1.1741                 2.6925
 Frc consts  --      0.1571                 0.1018                 0.3427
 IR Inten    --      4.3397                33.2779                11.3559

                     10                     11                     12
                      A                      A                      A
 Frequencies --    525.4160               585.5424               753.5984
 Red. masses --      3.2134                 2.4283                 3.4431
 Frc consts  --      0.5227                 0.4905                 1.1521
 IR Inten    --     26.2288                 3.0323                 5.2494

                     13                     14                     15
                      A                      A                      A
 Frequencies --    865.9210               916.0814               929.0205
 Red. masses --      2.8538                 1.8843                 1.2922
 Frc consts  --      1.2608                 0.9317                 0.6571
 IR Inten    --     14.9935                52.3070                11.8963

                     16                     17                     18
                      A                      A                      A
 Frequencies --    948.1613               987.7626              1103.8274
 Red. masses --      1.4405                 4.2845                 1.4071
 Frc consts  --      0.7630                 2.4630                 1.0101
 IR Inten    --      0.4895                19.0794                27.9702

                     19                     20                     21
                      A                      A                      A
 Frequencies --   1124.2393              1143.6309              1174.1460
 Red. masses --      1.3745                 2.0407                 1.6567
 Frc consts  --      1.0236                 1.5725                 1.3457
 IR Inten    --     67.6940                 9.0084                14.5390

                     22                     23                     24
                      A                      A                      A
 Frequencies --   1207.1173              1327.7878              1346.2229
 Red. masses --      1.9426                 1.2772                 1.3873
 Frc consts  --      1.6678                 1.3267                 1.4814
 IR Inten    --      2.5306                 0.7694                 2.7653

                     25                     26                     27
                      A                      A                      A
 Frequencies --   1369.5638              1387.5445              1392.5246
 Red. masses --      1.4072                 1.2826                 1.2913
 Frc consts  --      1.5552                 1.4549                 1.4753
 IR Inten    --      8.0964                14.5840                 2.9533

                     28                     29                     30
                      A                      A                      A
 Frequencies --   1415.3274              1478.7908              1494.1716
 Red. masses --      1.3408                 1.0462                 1.0458
 Frc consts  --      1.5825                 1.3480                 1.3757
 IR Inten    --     12.9664                 1.2707                 4.3998

                     31                     32                     33
                      A                      A                      A
 Frequencies --   1497.8843              1517.0738              1640.9700
 Red. masses --      1.0501                 1.0538                 1.0714
 Frc consts  --      1.3882                 1.4290                 1.6998
 IR Inten    --      0.5542                 3.7636                33.6613

                     34                     35                     36
                      A                      A                      A
 Frequencies --   1676.9574              3006.6805              3040.6387
 Red. masses --      1.0797                 1.0831                 1.0349
 Frc consts  --      1.7889                 5.7691                 5.6372
 IR Inten    --     14.9602                32.6295                19.7560

                     37                     38                     39
                      A                      A                      A
 Frequencies --   3045.0237              3108.5509              3114.3261
 Red. masses --      1.0354                 1.1010                 1.1014
 Frc consts  --      5.6563                 6.2682                 6.2940
 IR Inten    --     18.9786                13.5865                34.7579

                     40                     41                     42
                      A                      A                      A
 Frequencies --   3123.8984              3129.4403              3390.6003
 Red. masses --      1.1016                 1.1011                 1.0548
 Frc consts  --      6.3339                 6.3536                 7.1445
 IR Inten    --     16.3222                22.3660                 8.7088

                     43                     44                     45
                      A                      A                      A
 Frequencies --   3416.6740              3495.6036              3529.0876
 Red. masses --      1.0500                 1.0912                 1.0852
 Frc consts  --      7.2220                 7.8561                 7.9629
 IR Inten    --      3.6996                 0.4442                 0.3475

 - Thermochemistry -
 -------------------
 Temperature   298.150 Kelvin.  Pressure   1.00000 Atm.
 Atom     1 has atomic number  6 and mass  12.00000

 Molecular mass:    89.09530 amu.
 Principal axes and moments of inertia in atomic units:
                           1         2         3
     Eigenvalues --   390.62068 645.27758 739.58012
           X            0.99999  -0.00391   0.00064
           Y            0.00389   0.99961   0.02760
           Z           -0.00075  -0.02760   0.99962
 This molecule is an asymmetric top.
 Rotational symmetry number  1.
 Rotational temperatures (Kelvin)      0.22173     0.13423     0.11711
 Rotational constants (GHZ):           4.62019     2.79684     2.44022
 Zero-point vibrational energy     404896.5 (Joules/Mol)
                                   96.77260 (Kcal/Mol)
 Warning -- explicit consideration of  11 degrees of freedom as
           vibrations may cause significant error
 Vibrational temperatures:    152.09   225.48   301.09   335.76   402.03
          (Kelvin)            433.88   502.25   552.06   668.73   755.96
                              842.46  1084.26  1245.87  1318.04  1336.65
                             1364.19  1421.17  1588.16  1617.53  1645.43
                             1689.33  1736.77  1910.39  1936.91  1970.49
                             1996.36  2003.53  2036.34  2127.65  2149.78
                             2155.12  2182.73  2360.99  2412.76  4325.94
                             4374.80  4381.10  4472.51  4480.82  4494.59
                             4502.56  4878.31  4915.83  5029.39  5077.56

 Zero-point correction=                           0.154217 (Hartree/Particle)
 Thermal correction to Energy=                    0.162155
 Thermal correction to Enthalpy=                  0.163099
 Thermal correction to Gibbs Free Energy=         0.123085
 Sum of electronic and zero-point Energies=           -284.995971
 Sum of electronic and thermal Energies=              -284.988033
 Sum of electronic and thermal Enthalpies=            -284.987089
 Sum of electronic and thermal Free Energies=         -285.027103

                     E (Thermal)             CV                S
                      KCal/Mol        Cal/Mol-Kelvin    Cal/Mol-Kelvin
 Total                  101.754             28.806             84.217
 Electronic               0.000              0.000              0.000
 Translational            0.889              2.981             39.374
 Rotational               0.889              2.981             26.725
 Vibrational             99.976             22.844             18.118
 Vibration     1          0.605              1.945              3.346
 Vibration     2          0.620              1.895              2.589
 Vibration     3          0.642              1.827              2.050
 Vibration     4          0.654              1.790              1.853
 Vibration     5          0.680              1.712              1.537
 Vibration     6          0.694              1.671              1.408
 Vibration     7          0.726              1.577              1.170
 Vibration     8          0.753              1.505              1.025
 Vibration     9          0.822              1.328              0.752
 Vibration    10          0.880              1.194              0.598
 Vibration    11          0.943              1.063              0.475

 Optimization completed.
    -- Stationary point found.
 Normal termination of Gaussian 09 at Fri Aug 19 13:21:01 2022.

 -----------------------------------------------------------------
 #P Geom=AllCheck Guess=TCheck SCRF=Check CCSD(T,E4T,FrzG4)/GTBas1
 -----------------------------------------------------------------

 Structure from the checkpoint file:  "G4.Frag_705.chk"
 --------
 Frag_705
 --------
 Charge =  0 Multiplicity = 1

 SCF Done:  E(RHF) =  -283.264696627     A.U. after   12 cycles
 E2 =    -0.8945397898D+00 EUMP2 =    -0.28415923641722D+03
 CCSD(T)
 CCSD(T)= -0.28425038848D+03
 126\CCSD=-284.2226617\CCSD(T)=-284.2503885\RMSD=7.770e-09\PG=C01 [X(C3
 Normal termination of Gaussian 09 at Fri Aug 19 13:28:28 2022.

 ---------------------------------------------------------
 #P Geom=AllCheck Guess=TCheck SCRF=Check MP4=FrzG4/GTBas2
 ---------------------------------------------------------

 Structure from the checkpoint file:  "G4.Frag_705.chk"
 --------
 Frag_705
 --------
 Charge =  0 Multiplicity = 1

 SCF Done:  E(RHF) =  -283.273129183     A.U. after   12 cycles
 E2 =    -0.9085054909D+00 EUMP2 =    -0.28418163467419D+03
 Normal termination of Gaussian 09 at Fri Aug 19 13:38:44 2022.

 ---------------------------------------------------------
 #P Geom=AllCheck Guess=TCheck SCRF=Check MP4=FrzG4/GTBas3
 ---------------------------------------------------------

 Structure from the checkpoint file:  "G4.Frag_705.chk"
 --------
 Frag_705
 --------
 Charge =  0 Multiplicity = 1

 SCF Done:  E(RHF) =  -283.305088149     A.U. after   11 cycles
 E2 =    -0.1104754843D+01 EUMP2 =    -0.28440984299149D+03
 Normal termination of Gaussian 09 at Fri Aug 19 17:45:15 2022.

 -----------------------------------------------------------
 #P Geom=AllCheck Guess=TCheck SCRF=Check MP2=Full/GTLargeXP
 -----------------------------------------------------------

 Structure from the checkpoint file:  "G4.Frag_705.chk"
 --------
 Frag_705
 --------
 Charge =  0 Multiplicity = 1

 SCF Done:  E(RHF) =  -283.374693375     A.U. after   11 cycles
 E2 =    -0.1439438885D+01 EUMP2 =    -0.28481413225958D+03
 Normal termination of Gaussian 09 at Fri Aug 19 17:53:26 2022.
 SCF Done:  E(RHF) =  -283.396766581     A.U. after    9 cycles
 Normal termination of Gaussian 09 at Fri Aug 19 18:01:16 2022.

                         Standard orientation:
 ---------------------------------------------------------------------
 Center     Atomic      Atomic             Coordinates (Angstroms)
 Number     Number       Type             X           Y           Z
 ---------------------------------------------------------------------
      1          6           0       -0.909041    1.279366    0.712710
      2          6           0       -0.657784    0.251685   -0.401641
      3          6           0       -1.737543   -0.828701   -0.442888
      4          7           0        0.668191   -0.408018   -0.351496
      5          7           0        0.858052   -1.001511    0.924193
      6          7           0        1.707714    0.627007   -0.527607
      7          1           0       -1.000943    0.784313    1.684300
      8          1           0       -1.842384    1.818712    0.523813
      9          1           0       -0.095404    2.007044    0.768018
     10          1           0       -0.666797    0.777887   -1.366156
     11          1           0       -1.565994   -1.513559   -1.277802
     12          1           0       -1.725712   -1.408814    0.483169
     13          1           0       -2.726828   -0.374979   -0.558771
     14          1           0        1.568889   -1.719370    0.819398
     15          1           0        1.232126   -0.299810    1.568945
     16          1           0        2.543885    0.092755   -0.768484
     17          1           0        1.467667    1.099370   -1.401140
 ---------------------------------------------------------------------

 SCF Done:  E(RHF) =  -283.401592827     A.U. after    8 cycles

 The electronic state is 1-A.
 Alpha  occ. eigenvalues --  -15.60161 -15.57275 -15.56480 -11.25197 -11.20472
 Alpha  occ. eigenvalues --  -11.20154  -1.31555  -1.13620  -1.06952  -0.93780
 Alpha  occ. eigenvalues --   -0.92182  -0.77481  -0.68547  -0.65814  -0.65726
 Alpha  occ. eigenvalues --   -0.59294  -0.58084  -0.56442  -0.52755  -0.51555
 Alpha  occ. eigenvalues --   -0.48642  -0.47861  -0.46483  -0.41450  -0.35144
 Alpha virt. eigenvalues --    0.03774   0.04517   0.04618   0.04976   0.07253
 Alpha virt. eigenvalues --    0.07499   0.07606   0.07706   0.08030   0.10191
 Alpha virt. eigenvalues --    0.10719   0.11135   0.11634   0.11867   0.12164

 Mulliken charges:
               1
     1  C   -0.574085
     2  C    0.101352
     3  C   -0.578426
     4  N    0.009518
     5  N   -0.701488
     6  N   -0.652546
     7  H    0.174463
     8  H    0.164989
     9  H    0.188590
    10  H    0.139224
    11  H    0.169332
    12  H    0.194753
    13  H    0.160242
    14  H    0.313831
    15  H    0.307322
    16  H    0.289693
    17  H    0.293235
 Sum of Mulliken charges =  -0.00000

 Dipole moment (field-independent basis, Debye):
    X=              0.9836    Y=              0.4219    Z=             -0.7559  Tot=              1.3103
 Quadrupole moment (field-independent basis, Debye-Ang):
   XX=            -35.8417   YY=            -41.0253   ZZ=            -38.0346
   XY=             -3.1337   XZ=             -0.2675   YZ=             -1.8600

 Normal termination of Gaussian 09 at Fri Aug 19 21:29:51 2022.
