 Gaussian 09, Revision E.01,
 Gaussian 09:  ES64L-G09RevE.01 30-Nov-2015

 -----
 #P G4
 -----

 --------
 Frag_924
 --------
 Symbolic Z-matrix:
 Charge =  0 Multiplicity = 1

 SCF Done:  E(RB3LYP) =  -284.352511420     A.U. after   18 cycles
 SCF Done:  E(RB3LYP) =  -284.384689242     A.U. after   14 cycles
 SCF Done:  E(RB3LYP) =  -284.390255801     A.U. after   13 cycles
 SCF Done:  E(RB3LYP) =  -284.385189253     A.U. after   15 cycles
 SCF Done:  E(RB3LYP) =  -284.393838189     A.U. after   11 cycles
 SCF Done:  E(RB3LYP) =  -284.395436526     A.U. after   12 cycles
 SCF Done:  E(RB3LYP) =  -284.396275142     A.U. after   12 cycles
 SCF Done:  E(RB3LYP) =  -284.398959169     A.U. after   13 cycles
 SCF Done:  E(RB3LYP) =  -284.397558238     A.U. after   13 cycles
 SCF Done:  E(RB3LYP) =  -284.399342798     A.U. after   10 cycles
 SCF Done:  E(RB3LYP) =  -284.452798622     A.U. after    9 cycles
 SCF Done:  E(RB3LYP) =  -284.452800317     A.U. after    8 cycles
 SCF Done:  E(RB3LYP) =  -284.452800401     A.U. after    7 cycles
 Optimization completed.
    -- Stationary point found.
 Normal termination of Gaussian 09 at Sat Aug 20 21:08:15 2022.

 ----------------------------------------------------------
 #P Geom=AllCheck Guess=TCheck SCRF=Check B3LYP/GTBas3 Freq
 ----------------------------------------------------------

 Structure from the checkpoint file:  "G4.Frag_924.chk"
 --------
 Frag_924
 --------
 Charge =  0 Multiplicity = 1

 SCF Done:  E(RB3LYP) =  -284.452800401     A.U. after    1 cycles

  Exact polarizability:  42.397  -2.430  35.843   0.565   0.096  27.317
 Approx polarizability:  59.251  -7.538  54.114   1.687  -0.406  40.200

                      1                      2                      3
                      A                      A                      A
 Frequencies --     97.1668               269.1775               313.7570
 Red. masses --      2.1157                 1.2115                 4.0227
 Frc consts  --      0.0118                 0.0517                 0.2333
 IR Inten    --      3.4845                17.4865                18.7798

                      4                      5                      6
                      A                      A                      A
 Frequencies --    503.1894               555.9358               652.4090
 Red. masses --      5.5399                 2.7791                 4.5718
 Frc consts  --      0.8264                 0.5061                 1.1465
 IR Inten    --      1.6445                 6.0858                 6.6531

                      7                      8                      9
                      A                      A                      A
 Frequencies --    823.2365               850.1752               891.3465
 Red. masses --      1.9998                 1.3206                 1.6025
 Frc consts  --      0.7985                 0.5624                 0.7501
 IR Inten    --     36.1689                76.7616                64.3863

                     10                     11                     12
                      A                      A                      A
 Frequencies --    954.6859              1073.2442              1160.9075
 Red. masses --      1.8338                 2.9794                 1.2692
 Frc consts  --      0.9848                 2.0220                 1.0078
 IR Inten    --     49.4680                 9.3626                 2.4156

                     13                     14                     15
                      A                      A                      A
 Frequencies --   1225.6353              1316.6563              1370.6689
 Red. masses --      3.0724                 1.2541                 1.3231
 Frc consts  --      2.7192                 1.2809                 1.4646
 IR Inten    --     17.4673                 8.5180                 3.9728

                     16                     17                     18
                      A                      A                      A
 Frequencies --   1426.3910              1469.7335              1660.5433
 Red. masses --      1.5778                 1.0830                 1.0903
 Frc consts  --      1.8913                 1.3783                 1.7713
 IR Inten    --    377.5708                 7.3872                27.5024

                     19                     20                     21
                      A                      A                      A
 Frequencies --   1879.5648              3049.2328              3096.0558
 Red. masses --      9.7206                 1.0603                 1.1038
 Frc consts  --     20.2328                 5.8083                 6.2338
 IR Inten    --    298.1767                16.9784                 8.5661

                     22                     23                     24
                      A                      A                      A
 Frequencies --   3484.3147              3525.6990              3605.8799
 Red. masses --      1.0641                 1.0503                 1.0941
 Frc consts  --      7.6114                 7.6926                 8.3818
 IR Inten    --    245.4684                 1.9253                 9.2446

 - Thermochemistry -
 -------------------
 Temperature   298.150 Kelvin.  Pressure   1.00000 Atm.
 Atom     1 has atomic number  7 and mass  14.00307

 Molecular mass:    75.03203 amu.
 Principal axes and moments of inertia in atomic units:
                           1         2         3
     Eigenvalues --   177.90431 443.27787 597.15748
           X            0.99981   0.01923  -0.00358
           Y           -0.01920   0.99977   0.00992
           Z            0.00377  -0.00984   0.99994
 This molecule is an asymmetric top.
 Rotational symmetry number  1.
 Rotational temperatures (Kelvin)      0.48686     0.19539     0.14504
 Rotational constants (GHZ):          10.14445     4.07135     3.02222
 Zero-point vibrational energy     210875.4 (Joules/Mol)
                                   50.40042 (Kcal/Mol)
 Warning -- explicit consideration of   5 degrees of freedom as
           vibrations may cause significant error
 Vibrational temperatures:    139.80   387.29   451.43   723.98   799.87
          (Kelvin)            938.67  1184.45  1223.21  1282.45  1373.58
                             1544.16  1670.28  1763.41  1894.37  1972.08
                             2052.26  2114.62  2389.15  2704.27  4387.16
                             4454.53  5013.15  5072.69  5188.05

 Zero-point correction=                           0.080318 (Hartree/Particle)
 Thermal correction to Energy=                    0.085629
 Thermal correction to Enthalpy=                  0.086573
 Thermal correction to Gibbs Free Energy=         0.051851
 Sum of electronic and zero-point Energies=           -284.372482
 Sum of electronic and thermal Energies=              -284.367172
 Sum of electronic and thermal Enthalpies=            -284.366227
 Sum of electronic and thermal Free Energies=         -284.400949

                     E (Thermal)             CV                S
                      KCal/Mol        Cal/Mol-Kelvin    Cal/Mol-Kelvin
 Total                   53.733             17.932             73.079
 Electronic               0.000              0.000              0.000
 Translational            0.889              2.981             38.862
 Rotational               0.889              2.981             25.358
 Vibrational             51.955             11.970              8.859
 Vibration     1          0.603              1.951              3.510
 Vibration     2          0.674              1.730              1.601
 Vibration     3          0.702              1.647              1.342
 Vibration     4          0.859              1.243              0.650
 Vibration     5          0.911              1.127              0.532

 Optimization completed.
    -- Stationary point found.
 Normal termination of Gaussian 09 at Sat Aug 20 21:09:19 2022.

 -----------------------------------------------------------------
 #P Geom=AllCheck Guess=TCheck SCRF=Check CCSD(T,E4T,FrzG4)/GTBas1
 -----------------------------------------------------------------

 Structure from the checkpoint file:  "G4.Frag_924.chk"
 --------
 Frag_924
 --------
 Charge =  0 Multiplicity = 1

 SCF Done:  E(RHF) =  -282.823579030     A.U. after   14 cycles
 E2 =    -0.7745382783D+00 EUMP2 =    -0.28359811730795D+03
 CCSD(T)
 CCSD(T)= -0.28364989576D+03
 Normal termination of Gaussian 09 at Sat Aug 20 21:10:47 2022.

 ---------------------------------------------------------
 #P Geom=AllCheck Guess=TCheck SCRF=Check MP4=FrzG4/GTBas2
 ---------------------------------------------------------

 Structure from the checkpoint file:  "G4.Frag_924.chk"
 --------
 Frag_924
 --------
 Charge =  0 Multiplicity = 1

 SCF Done:  E(RHF) =  -282.833837895     A.U. after   13 cycles
 E2 =    -0.7875849482D+00 EUMP2 =    -0.28362142284354D+03
 Normal termination of Gaussian 09 at Sat Aug 20 21:12:15 2022.

 ---------------------------------------------------------
 #P Geom=AllCheck Guess=TCheck SCRF=Check MP4=FrzG4/GTBas3
 ---------------------------------------------------------

 Structure from the checkpoint file:  "G4.Frag_924.chk"
 --------
 Frag_924
 --------
 Charge =  0 Multiplicity = 1

 SCF Done:  E(RHF) =  -282.860789945     A.U. after   12 cycles
 E2 =    -0.9509217544D+00 EUMP2 =    -0.28381171169926D+03
 Normal termination of Gaussian 09 at Sat Aug 20 21:43:36 2022.

 -----------------------------------------------------------
 #P Geom=AllCheck Guess=TCheck SCRF=Check MP2=Full/GTLargeXP
 -----------------------------------------------------------

 Structure from the checkpoint file:  "G4.Frag_924.chk"
 --------
 Frag_924
 --------
 Charge =  0 Multiplicity = 1

 SCF Done:  E(RHF) =  -282.940636919     A.U. after   12 cycles
 E2 =    -0.1240526381D+01 EUMP2 =    -0.28418116329997D+03
 Normal termination of Gaussian 09 at Sat Aug 20 21:45:35 2022.
 SCF Done:  E(RHF) =  -282.963488630     A.U. after    9 cycles
 Normal termination of Gaussian 09 at Sat Aug 20 21:48:14 2022.

                         Standard orientation:
 ---------------------------------------------------------------------
 Center     Atomic      Atomic             Coordinates (Angstroms)
 Number     Number       Type             X           Y           Z
 ---------------------------------------------------------------------
      1          7           0        1.777738   -0.126810   -0.076298
      2          6           0        0.645721    0.789460    0.109851
      3          6           0       -0.694238    0.041466    0.005331
      4          8           0       -1.751070    0.603320   -0.089419
      5          8           0       -0.564157   -1.290397    0.057413
      6          1           0        2.570857    0.133201    0.496984
      7          1           0        0.403726   -1.448591    0.114587
      8          1           0        2.090984   -0.133007   -1.040677
      9          1           0        0.687053    1.215245    1.117564
     10          1           0        0.616135    1.631887   -0.589417
 ---------------------------------------------------------------------

 SCF Done:  E(RHF) =  -282.968368503     A.U. after    8 cycles

 The electronic state is 1-A.
 Alpha  occ. eigenvalues --  -20.59569 -20.53375 -15.58950 -11.37633 -11.29275
 Alpha  occ. eigenvalues --   -1.45233  -1.35721  -1.22217  -0.97586  -0.80962
 Alpha  occ. eigenvalues --   -0.73949  -0.70824  -0.67669  -0.62769  -0.62324
 Alpha  occ. eigenvalues --   -0.56261  -0.55959  -0.47345  -0.46685  -0.42793
 Alpha virt. eigenvalues --    0.02610   0.04434   0.04928   0.06131   0.07645
 Alpha virt. eigenvalues --    0.07872   0.08057   0.09252   0.09444   0.12034
 Alpha virt. eigenvalues --    0.13844   0.15231   0.15862   0.16767   0.17127

 Mulliken charges:
               1
     1  N   -0.712546
     2  C   -0.196512
     3  C    0.538727
     4  O   -0.539216
     5  O   -0.526995
     6  H    0.314940
     7  H    0.423106
     8  H    0.305467
     9  H    0.191156
    10  H    0.201873
 Sum of Mulliken charges =  -0.00000

 Dipole moment (field-independent basis, Debye):
    X=              5.8563    Y=              0.7998    Z=              0.0004  Tot=              5.9107
 Quadrupole moment (field-independent basis, Debye-Ang):
   XX=            -32.1714   YY=            -31.4126   ZZ=            -27.2309
   XY=              1.9446   XZ=             -0.8045   YZ=              0.6192

 Normal termination of Gaussian 09 at Sat Aug 20 23:00:58 2022.
