 Gaussian 09, Revision E.01,
 Gaussian 09:  ES64L-G09RevE.01 30-Nov-2015

 -----
 #P G4
 -----

 --------
 Frag_969
 --------
 Symbolic Z-matrix:
 Charge =  0 Multiplicity = 1

 SCF Done:  E(RB3LYP) =  -323.288554198     A.U. after   14 cycles
 SCF Done:  E(RB3LYP) =  -323.300907141     A.U. after   12 cycles
 SCF Done:  E(RB3LYP) =  -323.302467519     A.U. after   11 cycles
 SCF Done:  E(RB3LYP) =  -323.304015404     A.U. after   11 cycles
 SCF Done:  E(RB3LYP) =  -323.305157886     A.U. after   12 cycles
 SCF Done:  E(RB3LYP) =  -323.306050709     A.U. after   11 cycles
 SCF Done:  E(RB3LYP) =  -323.306243440     A.U. after   11 cycles
 SCF Done:  E(RB3LYP) =  -323.306236405     A.U. after   11 cycles
 SCF Done:  E(RB3LYP) =  -323.306291674     A.U. after   10 cycles
 SCF Done:  E(RB3LYP) =  -323.306293831     A.U. after    8 cycles
 SCF Done:  E(RB3LYP) =  -323.306294403     A.U. after    7 cycles
 SCF Done:  E(RB3LYP) =  -323.306294504     A.U. after    6 cycles
 Optimization completed.
    -- Stationary point found.
 Normal termination of Gaussian 09 at Mon Aug 22 22:56:47 2022.

 ----------------------------------------------------------
 #P Geom=AllCheck Guess=TCheck SCRF=Check B3LYP/GTBas3 Freq
 ----------------------------------------------------------

 Structure from the checkpoint file:  "G4.Frag_969.chk"
 --------
 Frag_969
 --------
 Charge =  0 Multiplicity = 1

 SCF Done:  E(RB3LYP) =  -323.306294504     A.U. after    1 cycles

  Exact polarizability:  73.924  -5.333  72.861  -0.398   1.422  51.528
 Approx polarizability:  99.693 -10.771 114.106  -1.882   2.579  74.140

                      1                      2                      3
                      A                      A                      A
 Frequencies --     83.2021               230.4521               271.8018
 Red. masses --      3.4854                 1.2013                 1.9711
 Frc consts  --      0.0142                 0.0376                 0.0858
 IR Inten    --      0.4522                 2.9927                 1.6251

                      4                      5                      6
                      A                      A                      A
 Frequencies --    279.0229               298.6554               329.4926
 Red. masses --      1.1293                 2.6909                 1.2178
 Frc consts  --      0.0518                 0.1414                 0.0779
 IR Inten    --     22.5615                 1.1902                25.9014

                      7                      8                      9
                      A                      A                      A
 Frequencies --    377.0313               397.3299               425.6555
 Red. masses --      2.1392                 2.3703                 1.2040
 Frc consts  --      0.1792                 0.2205                 0.1285
 IR Inten    --      8.1076                12.9658                33.4296

                     10                     11                     12
                      A                      A                      A
 Frequencies --    432.4808               511.7958               520.2253
 Red. masses --      2.5802                 2.4835                 2.6980
 Frc consts  --      0.2843                 0.3833                 0.4302
 IR Inten    --     20.7285                15.5749                18.3787

                     13                     14                     15
                      A                      A                      A
 Frequencies --    654.0042               702.3407               711.2039
 Red. masses --      2.5000                 1.7312                 1.4602
 Frc consts  --      0.6300                 0.5031                 0.4352
 IR Inten    --     61.2230                15.6009                33.2389

                     16                     17                     18
                      A                      A                      A
 Frequencies --    780.4543               834.1071               863.7969
 Red. masses --      1.4647                 1.5994                 2.2120
 Frc consts  --      0.5256                 0.6556                 0.9724
 IR Inten    --     98.1079                96.3193                59.5291

                     19                     20                     21
                      A                      A                      A
 Frequencies --    910.1537               940.1117               973.1483
 Red. masses --      1.7272                 1.3133                 1.6337
 Frc consts  --      0.8430                 0.6839                 0.9115
 IR Inten    --    127.6815                39.2279                 3.7186

                     22                     23                     24
                      A                      A                      A
 Frequencies --    995.5174              1033.1458              1087.3246
 Red. masses --      1.4826                 1.6736                 1.5838
 Frc consts  --      0.8657                 1.0525                 1.1032
 IR Inten    --      1.4058                45.7230                12.0133

                     25                     26                     27
                      A                      A                      A
 Frequencies --   1139.2802              1219.8271              1285.4772
 Red. masses --      1.5190                 2.5624                 1.8252
 Frc consts  --      1.1616                 2.2464                 1.7770
 IR Inten    --      9.7873                50.6006                22.2847

                     28                     29                     30
                      A                      A                      A
 Frequencies --   1319.2062              1385.9446              1404.7918
 Red. masses --      1.9461                 2.2393                 1.3088
 Frc consts  --      1.9955                 2.5343                 1.5217
 IR Inten    --     11.7617                26.1016                 6.5245

                     31                     32                     33
                      A                      A                      A
 Frequencies --   1450.6092              1480.1129              1499.2000
 Red. masses --      1.1787                 1.0494                 1.0858
 Frc consts  --      1.4614                 1.3546                 1.4379
 IR Inten    --      3.5711                 0.8778                 1.2909

                     34                     35                     36
                      A                      A                      A
 Frequencies --   1631.9607              1642.4038              1655.4284
 Red. masses --      1.1361                 1.1023                 1.1028
 Frc consts  --      1.7827                 1.7520                 1.7806
 IR Inten    --     57.9656                46.2391                24.0829

                     37                     38                     39
                      A                      A                      A
 Frequencies --   1719.5628              3027.3654              3103.9127
 Red. masses --      5.2751                 1.0420                 1.0946
 Frc consts  --      9.1899                 5.6265                 6.2131
 IR Inten    --     78.2464                27.2455                23.7554

                     40                     41                     42
                      A                      A                      A
 Frequencies --   3137.0026              3160.5749              3268.9191
 Red. masses --      1.1011                 1.0662                 1.1079
 Frc consts  --      6.3840                 6.2752                 6.9753
 IR Inten    --     15.7197                11.0053                 5.3129

                     43                     44                     45
                      A                      A                      A
 Frequencies --   3468.5387              3477.8297              3521.8001
 Red. masses --      1.0494                 1.0484                 1.0484
 Frc consts  --      7.4384                 7.4712                 7.6616
 IR Inten    --      1.1734                 0.6671                20.1301

                     46                     47                     48
                      A                      A                      A
 Frequencies --   3546.5748              3559.5878              3629.8098
 Red. masses --      1.0913                 1.0926                 1.0948
 Frc consts  --      8.0871                 8.1569                 8.4986
 IR Inten    --      0.3124                 1.3090                15.2806

 - Thermochemistry -
 -------------------
 Temperature   298.150 Kelvin.  Pressure   1.00000 Atm.
 Atom     1 has atomic number  6 and mass  12.00000

 Molecular mass:   101.09530 amu.
 Principal axes and moments of inertia in atomic units:
                           1         2         3
     Eigenvalues --   546.80240 751.80029 922.05055
           X            0.99943  -0.02548   0.02219
           Y            0.02526   0.99963   0.01029
           Z           -0.02244  -0.00972   0.99970
 This molecule is an asymmetric top.
 Rotational symmetry number  1.
 Warning -- assumption of classical behavior for rotation
           may cause significant error
 Rotational temperatures (Kelvin)      0.15840     0.11521     0.09394
 Rotational constants (GHZ):           3.30054     2.40056     1.95731
 Zero-point vibrational energy     420955.0 (Joules/Mol)
                                  100.61065 (Kcal/Mol)
 Warning -- explicit consideration of  12 degrees of freedom as
           vibrations may cause significant error
 Vibrational temperatures:    119.71   331.57   391.06   401.45   429.70
          (Kelvin)            474.07   542.46   571.67   612.42   622.24
                              736.36   748.49   940.97  1010.51  1023.26
                             1122.90  1200.09  1242.81  1309.51  1352.61
                             1400.14  1432.33  1486.46  1564.42  1639.17
                             1755.06  1849.51  1898.04  1994.06  2021.18
                             2087.10  2129.55  2157.01  2348.02  2363.05
                             2381.79  2474.06  4355.70  4465.83  4513.44
                             4547.36  4703.24  4990.45  5003.82  5067.08
                             5102.72  5121.45  5222.48

 Zero-point correction=                           0.160333 (Hartree/Particle)
 Thermal correction to Energy=                    0.168695
 Thermal correction to Enthalpy=                  0.169639
 Thermal correction to Gibbs Free Energy=         0.128759
 Sum of electronic and zero-point Energies=           -323.145961
 Sum of electronic and thermal Energies=              -323.137599
 Sum of electronic and thermal Enthalpies=            -323.136655
 Sum of electronic and thermal Free Energies=         -323.177536

                     E (Thermal)             CV                S
                      KCal/Mol        Cal/Mol-Kelvin    Cal/Mol-Kelvin
 Total                  105.858             32.789             86.040
 Electronic               0.000              0.000              0.000
 Translational            0.889              2.981             39.751
 Rotational               0.889              2.981             27.430
 Vibrational            104.080             26.828             18.860
 Vibration     1          0.600              1.961              3.814
 Vibration     2          0.652              1.794              1.875
 Vibration     3          0.675              1.725              1.585
 Vibration     4          0.679              1.712              1.540
 Vibration     5          0.692              1.676              1.424
 Vibration     6          0.712              1.617              1.263
 Vibration     7          0.748              1.519              1.051
 Vibration     8          0.764              1.476              0.973
 Vibration     9          0.787              1.414              0.873
 Vibration    10          0.793              1.399              0.851
 Vibration    11          0.867              1.224              0.629
 Vibration    12          0.875              1.205              0.609

 Optimization completed.
    -- Stationary point found.
 Normal termination of Gaussian 09 at Mon Aug 22 23:02:19 2022.

 -----------------------------------------------------------------
 #P Geom=AllCheck Guess=TCheck SCRF=Check CCSD(T,E4T,FrzG4)/GTBas1
 -----------------------------------------------------------------

 Structure from the checkpoint file:  "G4.Frag_969.chk"
 --------
 Frag_969
 --------
 Charge =  0 Multiplicity = 1

 SCF Done:  E(RHF) =  -321.183095606     A.U. after   12 cycles
 E2 =    -0.1014962983D+01 EUMP2 =    -0.32219805858909D+03
 CCSD(T)
 CCSD(T)= -0.32229579120D+03
 06\CCSD(T)=-322.2957912\RMSD=7.237e-09\PG=C01 [X(C4H11N3)]\\@
 Normal termination of Gaussian 09 at Mon Aug 22 23:18:45 2022.

 ---------------------------------------------------------
 #P Geom=AllCheck Guess=TCheck SCRF=Check MP4=FrzG4/GTBas2
 ---------------------------------------------------------

 Structure from the checkpoint file:  "G4.Frag_969.chk"
 --------
 Frag_969
 --------
 Charge =  0 Multiplicity = 1

 SCF Done:  E(RHF) =  -321.195772101     A.U. after   13 cycles
 E2 =    -0.1031503012D+01 EUMP2 =    -0.32222727511321D+03
 Normal termination of Gaussian 09 at Mon Aug 22 23:39:55 2022.

 ---------------------------------------------------------
 #P Geom=AllCheck Guess=TCheck SCRF=Check MP4=FrzG4/GTBas3
 ---------------------------------------------------------

 Structure from the checkpoint file:  "G4.Frag_969.chk"
 --------
 Frag_969
 --------
 Charge =  0 Multiplicity = 1

 SCF Done:  E(RHF) =  -321.232371042     A.U. after   11 cycles
 E2 =    -0.1243956146D+01 EUMP2 =    -0.32247632718794D+03
 Normal termination of Gaussian 09 at Tue Aug 23 04:56:49 2022.

 -----------------------------------------------------------
 #P Geom=AllCheck Guess=TCheck SCRF=Check MP2=Full/GTLargeXP
 -----------------------------------------------------------

 Structure from the checkpoint file:  "G4.Frag_969.chk"
 --------
 Frag_969
 --------
 Charge =  0 Multiplicity = 1

 SCF Done:  E(RHF) =  -321.313106824     A.U. after   12 cycles
 E2 =    -0.1629442241D+01 EUMP2 =    -0.32294254906505D+03
 Normal termination of Gaussian 09 at Tue Aug 23 05:10:22 2022.
 SCF Done:  E(RHF) =  -321.337871381     A.U. after    9 cycles
 Normal termination of Gaussian 09 at Tue Aug 23 05:21:56 2022.

                         Standard orientation:
 ---------------------------------------------------------------------
 Center     Atomic      Atomic             Coordinates (Angstroms)
 Number     Number       Type             X           Y           Z
 ---------------------------------------------------------------------
      1          6           0       -1.669496    1.222116    0.036119
      2          6           0       -0.960188    0.089335    0.009344
      3          7           0       -1.523893   -1.189802    0.076056
      4          6           0        0.573036    0.038698   -0.026703
      5          6           0        1.100215   -0.661914    1.243713
      6          7           0        0.945008   -0.786168   -1.184208
      7          7           0        1.117861    1.398273   -0.177555
      8          1           0       -1.196276    2.191358    0.006677
      9          1           0       -2.754027    1.201377    0.071253
     10          1           0       -2.512777   -1.207662   -0.131883
     11          1           0       -1.009480   -1.845107   -0.501921
     12          1           0        0.823271   -0.084473    2.129875
     13          1           0        0.690424   -1.667682    1.351280
     14          1           0        2.194725   -0.727002    1.206039
     15          1           0        1.936932   -1.005363   -1.149589
     16          1           0        0.793841   -0.235419   -2.025911
     17          1           0        0.865940    1.960085    0.632666
     18          1           0        2.133192    1.334355   -0.163370
 ---------------------------------------------------------------------

 SCF Done:  E(RHF) =  -321.343188014     A.U. after    8 cycles

 The electronic state is 1-A.
 Alpha  occ. eigenvalues --  -15.54652 -15.54508 -15.54247 -11.29984 -11.26320
 Alpha  occ. eigenvalues --  -11.21707 -11.19198  -1.24797  -1.18934  -1.12923
 Alpha  occ. eigenvalues --   -0.99580  -0.97294  -0.84443  -0.72856  -0.69472
 Alpha  occ. eigenvalues --   -0.67422  -0.65570  -0.61361  -0.60124  -0.57375
 Alpha  occ. eigenvalues --   -0.56086  -0.54522  -0.52460  -0.48754  -0.46677
 Alpha  occ. eigenvalues --   -0.41932  -0.40117  -0.31341
 Alpha virt. eigenvalues --    0.03232   0.04337   0.04849   0.05106   0.06491
 Alpha virt. eigenvalues --    0.06858   0.07189   0.07400   0.07553   0.09697
 Alpha virt. eigenvalues --    0.09788   0.10056   0.11414   0.11871   0.12431

 Mulliken charges:
               1
     1  C   -0.565168
     2  C    0.244018
     3  N   -0.764504
     4  C    0.469129
     5  C   -0.543542
     6  N   -0.775327
     7  N   -0.763308
     8  H    0.185690
     9  H    0.160610
    10  H    0.302811
    11  H    0.340999
    12  H    0.178275
    13  H    0.190426
    14  H    0.151244
    15  H    0.289536
    16  H    0.318051
    17  H    0.299138
    18  H    0.281922
 Sum of Mulliken charges =  -0.00000

 Dipole moment (field-independent basis, Debye):
    X=              1.5096    Y=             -0.3292    Z=             -0.0067  Tot=              1.5451
 Quadrupole moment (field-independent basis, Debye-Ang):
   XX=            -37.9022   YY=            -46.6536   ZZ=            -46.4625
   XY=              1.3441   XZ=              1.3911   YZ=              3.3994

 Normal termination of Gaussian 09 at Tue Aug 23 10:32:12 2022.
