 Gaussian 09, Revision E.01,
 Gaussian 09:  ES64L-G09RevE.01 30-Nov-2015

 -----
 #P G4
 -----

 --------
 Frag_552
 --------
 Symbolic Z-matrix:
 Charge =  0 Multiplicity = 1

 SCF Done:  E(RB3LYP) =  -287.799252556     A.U. after   13 cycles
 SCF Done:  E(RB3LYP) =  -287.805252955     A.U. after   12 cycles
 SCF Done:  E(RB3LYP) =  -287.807420224     A.U. after   12 cycles
 SCF Done:  E(RB3LYP) =  -287.810462659     A.U. after   14 cycles
 SCF Done:  E(RB3LYP) =  -287.811354555     A.U. after   11 cycles
 SCF Done:  E(RB3LYP) =  -287.811987468     A.U. after   11 cycles
 SCF Done:  E(RB3LYP) =  -287.812348819     A.U. after   11 cycles
 SCF Done:  E(RB3LYP) =  -287.813118707     A.U. after   12 cycles
 SCF Done:  E(RB3LYP) =  -287.813776139     A.U. after   11 cycles
 SCF Done:  E(RB3LYP) =  -287.814478159     A.U. after   11 cycles
 SCF Done:  E(RB3LYP) =  -287.814619229     A.U. after    7 cycles
 SCF Done:  E(RB3LYP) =  -287.814619310     A.U. after    7 cycles
 SCF Done:  E(RB3LYP) =  -287.814619318     A.U. after    7 cycles
 Optimization completed.
    -- Stationary point found.
 Normal termination of Gaussian 09 at Wed Aug 24 17:14:31 2022.

 ----------------------------------------------------------
 #P Geom=AllCheck Guess=TCheck SCRF=Check B3LYP/GTBas3 Freq
 ----------------------------------------------------------

 Structure from the checkpoint file:  "G4.Frag_552.chk"
 --------
 Frag_552
 --------
 Charge =  0 Multiplicity = 1

 SCF Done:  E(RB3LYP) =  -287.814619318     A.U. after    1 cycles

  Exact polarizability:  60.676  -3.735  62.264  -2.182   5.748  43.052
 Approx polarizability:  77.319  -6.753  94.078  -4.415  11.009  64.763

                      1                      2                      3
                      A                      A                      A
 Frequencies --     59.2537               172.8086               233.1654
 Red. masses --      3.3077                 1.0731                 1.0831
 Frc consts  --      0.0068                 0.0189                 0.0347
 IR Inten    --      1.3882                 0.9432                83.9325

                      4                      5                      6
                      A                      A                      A
 Frequencies --    264.1933               293.9993               382.8092
 Red. masses --      2.6024                 1.8897                 1.8739
 Frc consts  --      0.1070                 0.0962                 0.1618
 IR Inten    --     18.1540                12.3321                26.6922

                      7                      8                      9
                      A                      A                      A
 Frequencies --    386.7019               470.1892               520.8822
 Red. masses --      2.1053                 2.3792                 3.3597
 Frc consts  --      0.1855                 0.3099                 0.5371
 IR Inten    --     15.5531                20.8161                19.2955

                     10                     11                     12
                      A                      A                      A
 Frequencies --    597.9374               739.7967               822.6363
 Red. masses --      2.2973                 1.3202                 1.9458
 Frc consts  --      0.4839                 0.4257                 0.7758
 IR Inten    --     20.3722                 1.8248                22.3977

                     13                     14                     15
                      A                      A                      A
 Frequencies --    830.9359               950.8800               954.0503
 Red. masses --      1.8150                 1.4816                 1.7502
 Frc consts  --      0.7383                 0.7893                 0.9386
 IR Inten    --     98.2222                23.0009                16.5063

                     16                     17                     18
                      A                      A                      A
 Frequencies --   1004.9391              1064.0791              1072.6848
 Red. masses --      1.6198                 1.6125                 2.5354
 Frc consts  --      0.9638                 1.0757                 1.7189
 IR Inten    --     56.4519                44.0829                68.5906

                     19                     20                     21
                      A                      A                      A
 Frequencies --   1081.6358              1203.7092              1234.3523
 Red. masses --      1.9496                 1.5130                 1.1442
 Frc consts  --      1.3439                 1.2916                 1.0271
 IR Inten    --     25.7778                11.9440                39.1373

                     22                     23                     24
                      A                      A                      A
 Frequencies --   1277.3664              1388.0534              1405.9515
 Red. masses --      2.4003                 1.1507                 1.2473
 Frc consts  --      2.3075                 1.3063                 1.4526
 IR Inten    --      5.7970                 5.2165                 1.8318

                     25                     26                     27
                      A                      A                      A
 Frequencies --   1435.5379              1464.8070              1475.2427
 Red. masses --      1.2615                 1.4460                 1.0753
 Frc consts  --      1.5317                 1.8280                 1.3788
 IR Inten    --      1.5390                19.6648                 8.5820

                     28                     29                     30
                      A                      A                      A
 Frequencies --   1497.6382              1653.9802              1729.7253
 Red. masses --      1.0741                 1.1014                 5.7434
 Frc consts  --      1.4194                 1.7753                10.1245
 IR Inten    --     17.7767                22.0148                 6.1001

                     31                     32                     33
                      A                      A                      A
 Frequencies --   2964.3659              3022.7732              3083.0514
 Red. masses --      1.0820                 1.0432                 1.0901
 Frc consts  --      5.6018                 5.6161                 6.1048
 IR Inten    --     53.7853                29.0706                16.5992

                     34                     35                     36
                      A                      A                      A
 Frequencies --   3122.5768              3154.6752              3250.8476
 Red. masses --      1.1020                 1.0630                 1.1120
 Frc consts  --      6.3310                 6.2332                 6.9239
 IR Inten    --     17.2931                11.2079                 4.7331

                     37                     38                     39
                      A                      A                      A
 Frequencies --   3484.5817              3572.2312              3826.0545
 Red. masses --      1.0477                 1.0938                 1.0663
 Frc consts  --      7.4956                 8.2233                 9.1966
 IR Inten    --      1.6011                 1.0201                15.2368

 - Thermochemistry -
 -------------------
 Temperature   298.150 Kelvin.  Pressure   1.00000 Atm.
 Atom     1 has atomic number  6 and mass  12.00000

 Molecular mass:    87.06841 amu.
 Principal axes and moments of inertia in atomic units:
                           1         2         3
     Eigenvalues --   376.45825 579.63865 837.24679
           X            0.99991  -0.01297   0.00305
           Y            0.01288   0.99957   0.02622
           Z           -0.00339  -0.02618   0.99965
 This molecule is an asymmetric top.
 Rotational symmetry number  1.
 Rotational temperatures (Kelvin)      0.23008     0.14943     0.10345
 Rotational constants (GHZ):           4.79400     3.11356     2.15557
 Zero-point vibrational energy     341839.5 (Joules/Mol)
                                   81.70160 (Kcal/Mol)
 Warning -- explicit consideration of  10 degrees of freedom as
           vibrations may cause significant error
 Vibrational temperatures:     85.25   248.63   335.47   380.11   423.00
          (Kelvin)            550.78   556.38   676.50   749.43   860.30
                             1064.40  1183.59  1195.53  1368.10  1372.66
                             1445.88  1530.97  1543.35  1556.23  1731.87
                             1775.96  1837.84  1997.10  2022.85  2065.42
                             2107.53  2122.54  2154.76  2379.71  2488.69
                             4265.06  4349.09  4435.82  4492.69  4538.87
                             4677.24  5013.53  5139.64  5504.83

 Zero-point correction=                           0.130200 (Hartree/Particle)
 Thermal correction to Energy=                    0.137657
 Thermal correction to Enthalpy=                  0.138601
 Thermal correction to Gibbs Free Energy=         0.099144
 Sum of electronic and zero-point Energies=           -287.684420
 Sum of electronic and thermal Energies=              -287.676962
 Sum of electronic and thermal Enthalpies=            -287.676018
 Sum of electronic and thermal Free Energies=         -287.715476

                     E (Thermal)             CV                S
                      KCal/Mol        Cal/Mol-Kelvin    Cal/Mol-Kelvin
 Total                   86.381             26.877             83.045
 Electronic               0.000              0.000              0.000
 Translational            0.889              2.981             39.305
 Rotational               0.889              2.981             26.705
 Vibrational             84.604             20.916             17.035
 Vibration     1          0.597              1.974              4.482
 Vibration     2          0.626              1.876              2.405
 Vibration     3          0.654              1.790              1.854
 Vibration     4          0.671              1.739              1.634
 Vibration     5          0.689              1.685              1.451
 Vibration     6          0.752              1.507              1.028
 Vibration     7          0.755              1.499              1.013
 Vibration     8          0.827              1.316              0.737
 Vibration     9          0.876              1.204              0.608
 Vibration    10          0.956              1.036              0.453

 Normal termination of Gaussian 09 at Wed Aug 24 17:17:17 2022.

 -----------------------------------------------------------------
 #P Geom=AllCheck Guess=TCheck SCRF=Check CCSD(T,E4T,FrzG4)/GTBas1
 -----------------------------------------------------------------

 Structure from the checkpoint file:  "G4.Frag_552.chk"
 --------
 Frag_552
 --------
 Charge =  0 Multiplicity = 1

 SCF Done:  E(RHF) =  -285.985333375     A.U. after   12 cycles
 E2 =    -0.8591248917D+00 EUMP2 =    -0.28684445826700D+03
 CCSD(T)
 CCSD(T)= -0.28692703572D+03
 977\CCSD(T)=-286.9270357\RMSD=4.985e-09\PG=C01 [X(C4H9N1O1)]\\@
 Normal termination of Gaussian 09 at Wed Aug 24 17:23:27 2022.

 ---------------------------------------------------------
 #P Geom=AllCheck Guess=TCheck SCRF=Check MP4=FrzG4/GTBas2
 ---------------------------------------------------------

 Structure from the checkpoint file:  "G4.Frag_552.chk"
 --------
 Frag_552
 --------
 Charge =  0 Multiplicity = 1

 SCF Done:  E(RHF) =  -285.996249813     A.U. after   12 cycles
 E2 =    -0.8726977760D+00 EUMP2 =    -0.28686894758852D+03
 Normal termination of Gaussian 09 at Wed Aug 24 17:30:00 2022.

 ---------------------------------------------------------
 #P Geom=AllCheck Guess=TCheck SCRF=Check MP4=FrzG4/GTBas3
 ---------------------------------------------------------

 Structure from the checkpoint file:  "G4.Frag_552.chk"
 --------
 Frag_552
 --------
 Charge =  0 Multiplicity = 1

 SCF Done:  E(RHF) =  -286.026467492     A.U. after   11 cycles
 E2 =    -0.1060109893D+01 EUMP2 =    -0.28708657738463D+03
 Normal termination of Gaussian 09 at Wed Aug 24 20:47:53 2022.

 -----------------------------------------------------------
 #P Geom=AllCheck Guess=TCheck SCRF=Check MP2=Full/GTLargeXP
 -----------------------------------------------------------

 Structure from the checkpoint file:  "G4.Frag_552.chk"
 --------
 Frag_552
 --------
 Charge =  0 Multiplicity = 1

 SCF Done:  E(RHF) =  -286.100515179     A.U. after   12 cycles
 E2 =    -0.1392742992D+01 EUMP2 =    -0.28749325817090D+03
 Normal termination of Gaussian 09 at Wed Aug 24 20:54:17 2022.
 SCF Done:  E(RHF) =  -286.123549739     A.U. after    8 cycles
 Normal termination of Gaussian 09 at Wed Aug 24 21:00:07 2022.

                         Standard orientation:
 ---------------------------------------------------------------------
 Center     Atomic      Atomic             Coordinates (Angstroms)
 Number     Number       Type             X           Y           Z
 ---------------------------------------------------------------------
      1          6           0       -1.073314    1.408280    0.400179
      2          6           0       -0.752215    0.194569   -0.040389
      3          6           0       -1.764673   -0.897737   -0.259969
      4          6           0        0.682702   -0.189574   -0.353283
      5          7           0        1.099778   -1.257809    0.540118
      6          8           0        1.492917    0.979561   -0.292283
      7          1           0       -0.323816    2.177049    0.535477
      8          1           0       -2.102634    1.665578    0.629472
      9          1           0       -2.772161   -0.558823   -0.006791
     10          1           0       -1.522930   -1.780675    0.339770
     11          1           0       -1.769466   -1.224845   -1.308122
     12          1           0        0.718618   -0.610966   -1.371903
     13          1           0        1.168529   -0.894165    1.486862
     14          1           0        2.013237   -1.616701    0.278974
     15          1           0        2.393845    0.718504   -0.505535
 ---------------------------------------------------------------------

 SCF Done:  E(RHF) =  -286.128460173     A.U. after    8 cycles

 The electronic state is 1-A.
 Alpha  occ. eigenvalues --  -20.55848 -15.55019 -11.31487 -11.23158 -11.21325
 Alpha  occ. eigenvalues --  -11.20725  -1.37327  -1.18161  -1.06896  -0.92747
 Alpha  occ. eigenvalues --   -0.89216  -0.73157  -0.70899  -0.66734  -0.63448
 Alpha  occ. eigenvalues --   -0.60536  -0.57488  -0.55721  -0.55194  -0.51089
 Alpha  occ. eigenvalues --   -0.47820  -0.46847  -0.41694  -0.35114
 Alpha virt. eigenvalues --    0.03293   0.04130   0.04823   0.05171   0.06821
 Alpha virt. eigenvalues --    0.07024   0.07330   0.08181   0.08467   0.09796
 Alpha virt. eigenvalues --    0.11179   0.11458   0.11968   0.12201   0.12642

 Mulliken charges:
               1
     1  C   -0.445367
     2  C    0.100671
     3  C   -0.564872
     4  C    0.181193
     5  N   -0.711534
     6  O   -0.580621
     7  H    0.214670
     8  H    0.180099
     9  H    0.161901
    10  H    0.205517
    11  H    0.165016
    12  H    0.149142
    13  H    0.304768
    14  H    0.279185
    15  H    0.360231
 Sum of Mulliken charges =  -0.00000

 Dipole moment (field-independent basis, Debye):
    X=              1.5828    Y=             -1.0191    Z=             -0.2773  Tot=              1.9028
 Quadrupole moment (field-independent basis, Debye-Ang):
   XX=            -30.4037   YY=            -41.8800   ZZ=            -37.5507
   XY=             -2.5643   XZ=             -0.8588   YZ=              1.5440

 Normal termination of Gaussian 09 at Wed Aug 24 23:53:50 2022.
