 Gaussian 09, Revision E.01,
 Gaussian 09:  ES64L-G09RevE.01 30-Nov-2015

 -----
 #P G4
 -----

 --------
 Frag_891
 --------
 Symbolic Z-matrix:
 Charge =  0 Multiplicity = 1

 SCF Done:  E(RB3LYP) =  -363.034433362     A.U. after   13 cycles
 SCF Done:  E(RB3LYP) =  -363.040800963     A.U. after   12 cycles
 SCF Done:  E(RB3LYP) =  -363.043218764     A.U. after   12 cycles
 SCF Done:  E(RB3LYP) =  -363.045470916     A.U. after   12 cycles
 SCF Done:  E(RB3LYP) =  -363.046624133     A.U. after   11 cycles
 SCF Done:  E(RB3LYP) =  -363.048188101     A.U. after   12 cycles
 SCF Done:  E(RB3LYP) =  -363.048546141     A.U. after   12 cycles
 SCF Done:  E(RB3LYP) =  -363.049828673     A.U. after   12 cycles
 SCF Done:  E(RB3LYP) =  -363.050226306     A.U. after   11 cycles
 SCF Done:  E(RB3LYP) =  -363.050428740     A.U. after   11 cycles
 SCF Done:  E(RB3LYP) =  -363.050500751     A.U. after    7 cycles
 SCF Done:  E(RB3LYP) =  -363.050501351     A.U. after    7 cycles
 SCF Done:  E(RB3LYP) =  -363.050501665     A.U. after    7 cycles
 Optimization completed.
    -- Stationary point found.
 Normal termination of Gaussian 09 at Sun Aug 21 15:02:22 2022.

 ----------------------------------------------------------
 #P Geom=AllCheck Guess=TCheck SCRF=Check B3LYP/GTBas3 Freq
 ----------------------------------------------------------

 Structure from the checkpoint file:  "G4.Frag_891.chk"
 --------
 Frag_891
 --------
 Charge =  0 Multiplicity = 1

 SCF Done:  E(RB3LYP) =  -363.050501665     A.U. after    1 cycles

  Exact polarizability:  61.154  -4.494  66.511   0.543  -0.330  47.027
 Approx polarizability:  81.004  -9.417 100.648  -0.865   0.370  70.445

                      1                      2                      3
                      A                      A                      A
 Frequencies --     74.9531               176.7459               206.1740
 Red. masses --      3.4024                 1.1015                 1.1023
 Frc consts  --      0.0113                 0.0203                 0.0276
 IR Inten    --      1.6838                44.3904                 7.6155

                      4                      5                      6
                      A                      A                      A
 Frequencies --    234.3193               274.9697               293.4135
 Red. masses --      2.1835                 3.0784                 1.3965
 Frc consts  --      0.0706                 0.1371                 0.0708
 IR Inten    --      6.3310                 0.8017                36.9788

                      7                      8                      9
                      A                      A                      A
 Frequencies --    354.2606               376.2901               416.1964
 Red. masses --      1.2517                 3.0898                 2.5035
 Frc consts  --      0.0926                 0.2578                 0.2555
 IR Inten    --    114.6310                11.7933                29.9436

                     10                     11                     12
                      A                      A                      A
 Frequencies --    490.9821               542.9104               549.5129
 Red. masses --      2.5885                 3.4113                 3.2566
 Frc consts  --      0.3676                 0.5924                 0.5794
 IR Inten    --     23.8340                 7.7422                23.7506

                     13                     14                     15
                      A                      A                      A
 Frequencies --    594.2126               740.3822               772.3573
 Red. masses --      2.4748                 3.8228                 1.2609
 Frc consts  --      0.5148                 1.2346                 0.4432
 IR Inten    --      8.3446                 8.1713                 1.2498

                     16                     17                     18
                      A                      A                      A
 Frequencies --    889.3463               936.4668               962.0454
 Red. masses --      1.6550                 2.2137                 1.3363
 Frc consts  --      0.7713                 1.1438                 0.7287
 IR Inten    --    126.1969                 5.0516                26.6443

                     19                     20                     21
                      A                      A                      A
 Frequencies --    991.6687              1010.9767              1052.7179
 Red. masses --      2.2717                 1.5387                 2.2522
 Frc consts  --      1.3163                 0.9266                 1.4706
 IR Inten    --     73.9486                50.1998               113.4277

                     22                     23                     24
                      A                      A                      A
 Frequencies --   1077.9776              1110.7589              1244.1035
 Red. masses --      1.5622                 1.9759                 1.8754
 Frc consts  --      1.0695                 1.4363                 1.7102
 IR Inten    --     17.3810                47.4687                47.4194

                     25                     26                     27
                      A                      A                      A
 Frequencies --   1305.2363              1353.3256              1392.7941
 Red. masses --      1.5931                 2.3635                 1.7463
 Frc consts  --      1.5991                 2.5504                 1.9959
 IR Inten    --     84.0294                65.8301                91.3438

                     28                     29                     30
                      A                      A                      A
 Frequencies --   1402.8498              1440.9024              1479.2499
 Red. masses --      1.2546                 1.2100                 1.0448
 Frc consts  --      1.4547                 1.4801                 1.3470
 IR Inten    --     14.6649                15.0227                 4.7594

                     31                     32                     33
                      A                      A                      A
 Frequencies --   1502.9307              1644.6333              1723.8270
 Red. masses --      1.0548                 1.1106                 5.8158
 Frc consts  --      1.4038                 1.7698                10.1824
 IR Inten    --     11.4337                46.0874                 5.7642

                     34                     35                     36
                      A                      A                      A
 Frequencies --   3031.9107              3086.9665              3120.1424
 Red. masses --      1.0362                 1.0990                 1.1009
 Frc consts  --      5.6122                 6.1705                 6.3145
 IR Inten    --     17.7632                12.5415                17.8448

                     37                     38                     39
                      A                      A                      A
 Frequencies --   3152.0979              3241.8156              3489.1456
 Red. masses --      1.0617                 1.1132                 1.0495
 Frc consts  --      6.2154                 6.8927                 7.5276
 IR Inten    --      9.6854                 6.1699                 2.3729

                     40                     41                     42
                      A                      A                      A
 Frequencies --   3577.4713              3797.2272              3822.8919
 Red. masses --      1.0916                 1.0651                 1.0653
 Frc consts  --      8.2309                 9.0482                 9.1730
 IR Inten    --      3.5432                24.5567                34.4216

 - Thermochemistry -
 -------------------
 Temperature   298.150 Kelvin.  Pressure   1.00000 Atm.
 Atom     1 has atomic number  6 and mass  12.00000

 Molecular mass:   103.06333 amu.
 Principal axes and moments of inertia in atomic units:
                           1         2         3
     Eigenvalues --   526.75216 747.63216 918.98330
           X            0.99976   0.01358   0.01747
           Y           -0.01333   0.99981  -0.01440
           Z           -0.01766   0.01417   0.99974
 This molecule is an asymmetric top.
 Rotational symmetry number  1.
 Warning -- assumption of classical behavior for rotation
           may cause significant error
 Rotational temperatures (Kelvin)      0.16443     0.11585     0.09425
 Rotational constants (GHZ):           3.42617     2.41394     1.96385
 Zero-point vibrational energy     352534.5 (Joules/Mol)
                                   84.25776 (Kcal/Mol)
 Warning -- explicit consideration of  13 degrees of freedom as
           vibrations may cause significant error
 Vibrational temperatures:    107.84   254.30   296.64   337.13   395.62
          (Kelvin)            422.16   509.70   541.40   598.81   706.41
                              781.13   790.63   854.94  1065.24  1111.25
                             1279.57  1347.37  1384.17  1426.79  1454.57
                             1514.62  1550.97  1598.13  1789.99  1877.94
                             1947.13  2003.92  2018.39  2073.13  2128.31
                             2162.38  2366.26  2480.20  4362.24  4441.45
                             4489.18  4535.16  4664.24  5020.10  5147.18
                             5463.36  5500.28

 Zero-point correction=                           0.134273 (Hartree/Particle)
 Thermal correction to Energy=                    0.142745
 Thermal correction to Enthalpy=                  0.143689
 Thermal correction to Gibbs Free Energy=         0.102213
 Sum of electronic and zero-point Energies=           -362.916228
 Sum of electronic and thermal Energies=              -362.907757
 Sum of electronic and thermal Enthalpies=            -362.906812
 Sum of electronic and thermal Free Energies=         -362.948289

                     E (Thermal)             CV                S
                      KCal/Mol        Cal/Mol-Kelvin    Cal/Mol-Kelvin
 Total                   89.574             31.426             87.294
 Electronic               0.000              0.000              0.000
 Translational            0.889              2.981             39.808
 Rotational               0.889              2.981             27.384
 Vibrational             87.796             25.464             20.102
 Vibration     1          0.599              1.966              4.019
 Vibration     2          0.628              1.871              2.363
 Vibration     3          0.641              1.831              2.077
 Vibration     4          0.654              1.788              1.846
 Vibration     5          0.677              1.720              1.565
 Vibration     6          0.688              1.686              1.454
 Vibration     7          0.730              1.567              1.147
 Vibration     8          0.747              1.521              1.054
 Vibration     9          0.779              1.435              0.905
 Vibration    10          0.847              1.270              0.681
 Vibration    11          0.898              1.155              0.559
 Vibration    12          0.905              1.141              0.545
 Vibration    13          0.952              1.044              0.460

 Normal termination of Gaussian 09 at Sun Aug 21 15:06:48 2022.

 -----------------------------------------------------------------
 #P Geom=AllCheck Guess=TCheck SCRF=Check CCSD(T,E4T,FrzG4)/GTBas1
 -----------------------------------------------------------------

 Structure from the checkpoint file:  "G4.Frag_891.chk"
 --------
 Frag_891
 --------
 Charge =  0 Multiplicity = 1

 SCF Done:  E(RHF) =  -360.854791947     A.U. after   12 cycles
 E2 =    -0.1038254431D+01 EUMP2 =    -0.36189304637713D+03
 CCSD(T)
 CCSD(T)= -0.36197964635D+03
 Q=-361.9796033\MP4SDQ=-361.947102\CCSD=-361.9475281\CCSD(T)=-361.97964
 Normal termination of Gaussian 09 at Sun Aug 21 15:21:33 2022.

 ---------------------------------------------------------
 #P Geom=AllCheck Guess=TCheck SCRF=Check MP4=FrzG4/GTBas2
 ---------------------------------------------------------

 Structure from the checkpoint file:  "G4.Frag_891.chk"
 --------
 Frag_891
 --------
 Charge =  0 Multiplicity = 1

 SCF Done:  E(RHF) =  -360.867919180     A.U. after   12 cycles
 E2 =    -0.1056092745D+01 EUMP2 =    -0.36192401192420D+03
 Normal termination of Gaussian 09 at Sun Aug 21 15:40:45 2022.

 ---------------------------------------------------------
 #P Geom=AllCheck Guess=TCheck SCRF=Check MP4=FrzG4/GTBas3
 ---------------------------------------------------------

 Structure from the checkpoint file:  "G4.Frag_891.chk"
 --------
 Frag_891
 --------
 Charge =  0 Multiplicity = 1

 SCF Done:  E(RHF) =  -360.906073566     A.U. after   11 cycles
 E2 =    -0.1280130104D+01 EUMP2 =    -0.36218620366986D+03
 Normal termination of Gaussian 09 at Sun Aug 21 20:00:07 2022.

 -----------------------------------------------------------
 #P Geom=AllCheck Guess=TCheck SCRF=Check MP2=Full/GTLargeXP
 -----------------------------------------------------------

 Structure from the checkpoint file:  "G4.Frag_891.chk"
 --------
 Frag_891
 --------
 Charge =  0 Multiplicity = 1

 SCF Done:  E(RHF) =  -361.002855555     A.U. after   12 cycles
 E2 =    -0.1676628900D+01 EUMP2 =    -0.36267948445441D+03
 Normal termination of Gaussian 09 at Sun Aug 21 20:11:13 2022.
 SCF Done:  E(RHF) =  -361.031682935     A.U. after    8 cycles
 Normal termination of Gaussian 09 at Sun Aug 21 20:19:55 2022.

                         Standard orientation:
 ---------------------------------------------------------------------
 Center     Atomic      Atomic             Coordinates (Angstroms)
 Number     Number       Type             X           Y           Z
 ---------------------------------------------------------------------
      1          6           0        1.458471   -1.393916   -0.046629
      2          6           0        0.917301   -0.179148   -0.003968
      3          6           0        1.732926    1.086160    0.026229
      4          6           0       -0.606205    0.007147    0.008045
      5          7           0       -1.031494    0.548147   -1.261522
      6          8           0       -1.291346   -1.192668    0.267744
      7          8           0       -0.989015    0.910661    1.033270
      8          1           0        2.535074   -1.531985   -0.059538
      9          1           0        0.841694   -2.283927   -0.073755
     10          1           0        1.445089    1.755027   -0.792893
     11          1           0        1.567310    1.632067    0.961737
     12          1           0        2.800649    0.871324   -0.059975
     13          1           0       -0.662269   -0.020204   -2.017511
     14          1           0       -2.046467    0.489952   -1.302240
     15          1           0       -1.144484   -1.411225    1.195907
     16          1           0       -0.888213    1.796537    0.668742
 ---------------------------------------------------------------------

 SCF Done:  E(RHF) =  -361.037951224     A.U. after    8 cycles

 The electronic state is 1-A.
 Alpha  occ. eigenvalues --  -20.56322 -20.56243 -15.55381 -11.37504 -11.24313
 Alpha  occ. eigenvalues --  -11.22415 -11.22170  -1.42594  -1.33698  -1.18367
 Alpha  occ. eigenvalues --   -1.07923  -0.93935  -0.88018  -0.76498  -0.72705
 Alpha  occ. eigenvalues --   -0.69268  -0.67974  -0.63535  -0.59780  -0.57502
 Alpha  occ. eigenvalues --   -0.56605  -0.54813  -0.54504  -0.51723  -0.49023
 Alpha  occ. eigenvalues --   -0.45136  -0.43833  -0.36677
 Alpha virt. eigenvalues --    0.03390   0.04270   0.04556   0.05032   0.06689
 Alpha virt. eigenvalues --    0.06700   0.07087   0.07630   0.07921   0.09424
 Alpha virt. eigenvalues --    0.10577   0.10983   0.11605   0.11978   0.12321

 Mulliken charges:
               1
     1  C   -0.471115
     2  C    0.120541
     3  C   -0.612760
     4  C    0.591652
     5  N   -0.751286
     6  O   -0.617059
     7  O   -0.623607
     8  H    0.184630
     9  H    0.219174
    10  H    0.204757
    11  H    0.192678
    12  H    0.167374
    13  H    0.309899
    14  H    0.311037
    15  H    0.381697
    16  H    0.392388
 Sum of Mulliken charges =  -0.00000

 Dipole moment (field-independent basis, Debye):
    X=              0.9681    Y=              0.2780    Z=             -0.5869  Tot=              1.1657
 Quadrupole moment (field-independent basis, Debye-Ang):
   XX=            -42.7691   YY=            -41.3450   ZZ=            -43.0802
   XY=             -0.9392   XZ=              1.5082   YZ=             -0.7817

 Normal termination of Gaussian 09 at Mon Aug 22 00:40:51 2022.
