 Gaussian 09, Revision E.01,
 Gaussian 09:  ES64L-G09RevE.01 30-Nov-2015

 -----
 #P G4
 -----

 --------
 Frag_884
 --------
 Symbolic Z-matrix:
 Charge =  0 Multiplicity = 1

 SCF Done:  E(RB3LYP) =  -320.282122610     A.U. after   14 cycles
 SCF Done:  E(RB3LYP) =  -320.310189653     A.U. after   13 cycles
 SCF Done:  E(RB3LYP) =  -320.313127197     A.U. after   13 cycles
 SCF Done:  E(RB3LYP) =  -320.307050735     A.U. after   14 cycles
 SCF Done:  E(RB3LYP) =  -320.314161283     A.U. after   10 cycles
 SCF Done:  E(RB3LYP) =  -320.314996549     A.U. after   12 cycles
 SCF Done:  E(RB3LYP) =  -320.315600801     A.U. after   12 cycles
 SCF Done:  E(RB3LYP) =  -320.316349818     A.U. after   14 cycles
 SCF Done:  E(RB3LYP) =  -320.317048517     A.U. after   12 cycles
 SCF Done:  E(RB3LYP) =  -320.318163768     A.U. after   12 cycles
 SCF Done:  E(RB3LYP) =  -320.318600235     A.U. after    9 cycles
 SCF Done:  E(RB3LYP) =  -320.318601216     A.U. after    8 cycles
 SCF Done:  E(RB3LYP) =  -320.318601333     A.U. after    7 cycles
 Optimization completed.
    -- Stationary point found.
 Normal termination of Gaussian 09 at Sun Aug 21 14:30:27 2022.

 ----------------------------------------------------------
 #P Geom=AllCheck Guess=TCheck SCRF=Check B3LYP/GTBas3 Freq
 ----------------------------------------------------------

 Structure from the checkpoint file:  "G4.Frag_884.chk"
 --------
 Frag_884
 --------
 Charge =  0 Multiplicity = 1

 SCF Done:  E(RB3LYP) =  -320.318601333     A.U. after    1 cycles

  Exact polarizability:  37.275  -2.403  30.878  -1.144  -0.509  19.851
 Approx polarizability:  50.114  -3.593  52.382  -0.929  -0.615  28.736

                      1                      2                      3
                      A                      A                      A
 Frequencies --    139.7888               191.4409               335.6786
 Red. masses --      1.3143                 2.9788                 4.8763
 Frc consts  --      0.0151                 0.0643                 0.3237
 IR Inten    --     44.2995                22.8647                31.8095

                      4                      5                      6
                      A                      A                      A
 Frequencies --    519.4103               524.6586               691.4435
 Red. masses --      1.2549                 3.5027                 9.5402
 Frc consts  --      0.1995                 0.5681                 2.6873
 IR Inten    --     94.7284                15.1273                 4.1872

                      7                      8                      9
                      A                      A                      A
 Frequencies --    777.3044               899.8951              1025.8207
 Red. masses --     11.7928                 6.5451                 8.9243
 Frc consts  --      4.1981                 3.1229                 5.5331
 IR Inten    --     20.2477                31.9260                17.2325

                     10                     11                     12
                      A                      A                      A
 Frequencies --   1205.1098              1263.9302              1355.4555
 Red. masses --      1.8946                 1.3341                 2.4632
 Frc consts  --      1.6211                 1.2557                 2.6664
 IR Inten    --     19.8205                77.7798               576.3357

                     13                     14                     15
                      A                      A                      A
 Frequencies --   1392.9436              1655.0772              1892.9034
 Red. masses --      1.1943                 1.0753                 9.0639
 Frc consts  --      1.3653                 1.7354                19.1348
 IR Inten    --     25.2951                56.3469               293.1551

                     16                     17                     18
                      A                      A                      A
 Frequencies --   3388.0099              3483.1141              3778.8205
 Red. masses --      1.0491                 1.0921                 1.0648
 Frc consts  --      7.0948                 7.8062                 8.9587
 IR Inten    --     16.8218                 9.0638                77.2701

 - Thermochemistry -
 -------------------
 Temperature   298.150 Kelvin.  Pressure   1.00000 Atm.
 Atom     1 has atomic number  7 and mass  14.00307

 Molecular mass:    77.01129 amu.
 Principal axes and moments of inertia in atomic units:
                           1         2         3
     Eigenvalues --   164.14041 398.45019 555.68549
           X            0.99880  -0.04714  -0.01330
           Y            0.04705   0.99886  -0.00757
           Z            0.01364   0.00693   0.99988
 This molecule is an asymmetric top.
 Rotational symmetry number  1.
 Rotational temperatures (Kelvin)      0.52768     0.21738     0.15587
 Rotational constants (GHZ):          10.99511     4.52940     3.24777
 Zero-point vibrational energy     146667.0 (Joules/Mol)
                                   35.05425 (Kcal/Mol)
 Warning -- explicit consideration of   5 degrees of freedom as
           vibrations may cause significant error
 Vibrational temperatures:    201.12   275.44   482.97   747.31   754.87
          (Kelvin)            994.83  1118.37  1294.75  1475.93  1733.88
                             1818.51  1950.20  2004.13  2381.28  2723.46
                             4874.58  5011.42  5436.87

 Zero-point correction=                           0.055863 (Hartree/Particle)
 Thermal correction to Energy=                    0.061063
 Thermal correction to Enthalpy=                  0.062007
 Thermal correction to Gibbs Free Energy=         0.027612
 Sum of electronic and zero-point Energies=           -320.262739
 Sum of electronic and thermal Energies=              -320.257539
 Sum of electronic and thermal Enthalpies=            -320.256594
 Sum of electronic and thermal Free Energies=         -320.290990

                     E (Thermal)             CV                S
                      KCal/Mol        Cal/Mol-Kelvin    Cal/Mol-Kelvin
 Total                   38.317             16.779             72.391
 Electronic               0.000              0.000              0.000
 Translational            0.889              2.981             38.939
 Rotational               0.889              2.981             25.100
 Vibrational             36.540             10.817              8.351
 Vibration     1          0.615              1.914              2.807
 Vibration     2          0.634              1.852              2.214
 Vibration     3          0.717              1.604              1.233
 Vibration     4          0.874              1.207              0.611
 Vibration     5          0.880              1.195              0.599

 Optimization completed.
    -- Stationary point found.
 Normal termination of Gaussian 09 at Sun Aug 21 14:31:12 2022.

 -----------------------------------------------------------------
 #P Geom=AllCheck Guess=TCheck SCRF=Check CCSD(T,E4T,FrzG4)/GTBas1
 -----------------------------------------------------------------

 Structure from the checkpoint file:  "G4.Frag_884.chk"
 --------
 Frag_884
 --------
 Charge =  0 Multiplicity = 1

 SCF Done:  E(RHF) =  -318.601617770     A.U. after   14 cycles
 E2 =    -0.8195235605D+00 EUMP2 =    -0.31942114133009D+03
 CCSD(T)
 CCSD(T)= -0.31946432613D+03
 9.4690177\MP4SDQ=-319.4414218\CCSD=-319.4396078\CCSD(T)=-319.4643261\R
 Normal termination of Gaussian 09 at Sun Aug 21 14:32:29 2022.

 ---------------------------------------------------------
 #P Geom=AllCheck Guess=TCheck SCRF=Check MP4=FrzG4/GTBas2
 ---------------------------------------------------------

 Structure from the checkpoint file:  "G4.Frag_884.chk"
 --------
 Frag_884
 --------
 Charge =  0 Multiplicity = 1

 SCF Done:  E(RHF) =  -318.611467722     A.U. after   12 cycles
 E2 =    -0.8325910620D+00 EUMP2 =    -0.31944405878441D+03
 Normal termination of Gaussian 09 at Sun Aug 21 14:33:42 2022.

 ---------------------------------------------------------
 #P Geom=AllCheck Guess=TCheck SCRF=Check MP4=FrzG4/GTBas3
 ---------------------------------------------------------

 Structure from the checkpoint file:  "G4.Frag_884.chk"
 --------
 Frag_884
 --------
 Charge =  0 Multiplicity = 1

 SCF Done:  E(RHF) =  -318.642659416     A.U. after   12 cycles
 E2 =    -0.1003612373D+01 EUMP2 =    -0.31964627178839D+03
 Normal termination of Gaussian 09 at Sun Aug 21 14:57:58 2022.

 -----------------------------------------------------------
 #P Geom=AllCheck Guess=TCheck SCRF=Check MP2=Full/GTLargeXP
 -----------------------------------------------------------

 Structure from the checkpoint file:  "G4.Frag_884.chk"
 --------
 Frag_884
 --------
 Charge =  0 Multiplicity = 1

 SCF Done:  E(RHF) =  -318.735115446     A.U. after   12 cycles
 E2 =    -0.1302654726D+01 EUMP2 =    -0.32003777017157D+03
 Normal termination of Gaussian 09 at Sun Aug 21 14:59:34 2022.
 SCF Done:  E(RHF) =  -318.761454433     A.U. after   10 cycles
 Normal termination of Gaussian 09 at Sun Aug 21 15:01:48 2022.

                         Standard orientation:
 ---------------------------------------------------------------------
 Center     Atomic      Atomic             Coordinates (Angstroms)
 Number     Number       Type             X           Y           Z
 ---------------------------------------------------------------------
      1          7           0       -1.832826   -0.157661   -0.087537
      2          8           0       -0.516530   -0.749423   -0.029426
      3          6           0        0.493425    0.156612    0.006535
      4          8           0        0.365474    1.347549    0.013178
      5          8           0        1.668565   -0.479294    0.012762
      6          1           0       -1.638201    0.832567   -0.271759
      7          1           0       -2.140474   -0.186441    0.886643
      8          1           0        1.507829   -1.432826   -0.013446
 ---------------------------------------------------------------------

 SCF Done:  E(RHF) =  -318.767076059     A.U. after    8 cycles

 The electronic state is 1-A.
 Alpha  occ. eigenvalues --  -20.65139 -20.63481 -20.56330 -15.64077 -11.45122
 Alpha  occ. eigenvalues --   -1.53457  -1.43086  -1.39452  -1.13734  -0.86477
 Alpha  occ. eigenvalues --   -0.81120  -0.73866  -0.71036  -0.67134  -0.63335
 Alpha  occ. eigenvalues --   -0.59656  -0.56059  -0.50889  -0.50175  -0.46038
 Alpha virt. eigenvalues --    0.03955   0.04549   0.05480   0.06089   0.08624
 Alpha virt. eigenvalues --    0.09427   0.09517   0.12404   0.13381   0.13571
 Alpha virt. eigenvalues --    0.15177   0.15743   0.16680   0.17452   0.18108

 Mulliken charges:
               1
     1  N   -0.468122
     2  O   -0.306260
     3  C    0.792656
     4  O   -0.566603
     5  O   -0.515923
     6  H    0.340274
     7  H    0.311312
     8  H    0.412665
 Sum of Mulliken charges =  -0.00000

 Dipole moment (field-independent basis, Debye):
    X=             -0.8657    Y=             -2.0210    Z=              1.1306  Tot=              2.4723
 Quadrupole moment (field-independent basis, Debye-Ang):
   XX=            -28.7048   YY=            -29.4693   ZZ=            -27.2832
   XY=             -6.1692   XZ=             -3.2257   YZ=             -0.9442

 Normal termination of Gaussian 09 at Sun Aug 21 15:58:09 2022.
