 Gaussian 09, Revision E.01,
 Gaussian 09:  ES64L-G09RevE.01 30-Nov-2015

 -----
 #P G4
 -----

 ---------
 Frag_1128
 ---------
 Symbolic Z-matrix:
 Charge =  0 Multiplicity = 1

 SCF Done:  E(RB3LYP) =  -280.507329636     A.U. after   13 cycles
 SCF Done:  E(RB3LYP) =  -280.555702774     A.U. after   12 cycles
 SCF Done:  E(RB3LYP) =  -280.541667949     A.U. after   13 cycles
 SCF Done:  E(RB3LYP) =  -280.576023372     A.U. after   10 cycles
 SCF Done:  E(RB3LYP) =  -280.577682761     A.U. after   11 cycles
 SCF Done:  E(RB3LYP) =  -280.577980223     A.U. after   10 cycles
 SCF Done:  E(RB3LYP) =  -280.578075526     A.U. after   10 cycles
 SCF Done:  E(RB3LYP) =  -280.578129539     A.U. after   10 cycles
 SCF Done:  E(RB3LYP) =  -280.578154837     A.U. after   10 cycles
 SCF Done:  E(RB3LYP) =  -280.578175503     A.U. after    9 cycles
 SCF Done:  E(RB3LYP) =  -280.578182186     A.U. after    8 cycles
 SCF Done:  E(RB3LYP) =  -280.578183217     A.U. after    7 cycles
 Optimization completed.
    -- Stationary point found.
 Normal termination of Gaussian 09 at Tue Aug 30 11:55:13 2022.

 ----------------------------------------------------------
 #P Geom=AllCheck Guess=TCheck SCRF=Check B3LYP/GTBas3 Freq
 ----------------------------------------------------------

 Structure from the checkpoint file:  "G4.Frag_1128.chk"
 ---------
 Frag_1128
 ---------
 Charge =  0 Multiplicity = 1

 SCF Done:  E(RB3LYP) =  -280.578183217     A.U. after    1 cycles

  Exact polarizability:  45.243   1.708  40.518  -0.938   0.023  23.288
 Approx polarizability:  59.000   1.784  66.531  -1.660  -0.783  34.595

                      1                      2                      3
                      A                      A                      A
 Frequencies --    173.1322               203.8710               297.9379
 Red. masses --      2.5195                 1.4837                 2.9553
 Frc consts  --      0.0445                 0.0363                 0.1546
 IR Inten    --      2.2540                 6.3341                22.8436

                      4                      5                      6
                      A                      A                      A
 Frequencies --    358.7512               505.9263               548.9986
 Red. masses --      1.0579                 4.3294                 1.4285
 Frc consts  --      0.0802                 0.6529                 0.2537
 IR Inten    --    107.8769                22.9531                85.4065

                      7                      8                      9
                      A                      A                      A
 Frequencies --    657.0087               724.8119               748.3604
 Red. masses --      2.6604                 1.7355                 2.5200
 Frc consts  --      0.6766                 0.5372                 0.8315
 IR Inten    --     72.4409                35.0549                99.5043

                     10                     11                     12
                      A                      A                      A
 Frequencies --    945.1087              1036.5090              1109.9105
 Red. masses --      2.3431                 3.5043                 1.4106
 Frc consts  --      1.2331                 2.2182                 1.0239
 IR Inten    --     60.5769                99.2896                59.7309

                     13                     14                     15
                      A                      A                      A
 Frequencies --   1155.6795              1264.2727              1364.4986
 Red. masses --      1.5508                 2.0974                 1.2682
 Frc consts  --      1.2203                 1.9753                 1.3912
 IR Inten    --    167.4093                95.0577                15.1918

                     16                     17                     18
                      A                      A                      A
 Frequencies --   1385.3023              1525.7793              1714.0962
 Red. masses --      1.3771                 2.0005                 1.0757
 Frc consts  --      1.5571                 2.7440                 1.8622
 IR Inten    --     22.0798               120.9396                44.2351

                     19                     20                     21
                      A                      A                      A
 Frequencies --   1752.9024              3442.3886              3511.1995
 Red. masses --      5.9483                 1.0497                 1.0909
 Frc consts  --     10.7685                 7.3287                 7.9237
 IR Inten    --    273.3873                 5.4214                 2.1059

                     22                     23                     24
                      A                      A                      A
 Frequencies --   3524.7803              3616.9813              3838.5038
 Red. masses --      1.0760                 1.0768                 1.0658
 Frc consts  --      7.8764                 8.2996                 9.2520
 IR Inten    --      3.6917                33.1337                51.8924

 - Thermochemistry -
 -------------------
 Temperature   298.150 Kelvin.  Pressure   1.00000 Atm.
 Atom     1 has atomic number  7 and mass  14.00307

 Molecular mass:    75.04326 amu.
 Principal axes and moments of inertia in atomic units:
                           1         2         3
     Eigenvalues --   175.70714 427.09533 591.85919
           X            0.99992   0.01201  -0.00480
           Y           -0.01199   0.99992   0.00424
           Z            0.00485  -0.00418   0.99998
 This molecule is an asymmetric top.
 Rotational symmetry number  1.
 Rotational temperatures (Kelvin)      0.49294     0.20280     0.14634
 Rotational constants (GHZ):          10.27130     4.22562     3.04927
 Zero-point vibrational energy     211779.2 (Joules/Mol)
                                   50.61643 (Kcal/Mol)
 Warning -- explicit consideration of   6 degrees of freedom as
           vibrations may cause significant error
 Vibrational temperatures:    249.10   293.32   428.67   516.16   727.91
          (Kelvin)            789.89   945.29  1042.84  1076.72  1359.80
                             1491.30  1596.91  1662.76  1819.00  1963.21
                             1993.14  2195.25  2466.20  2522.03  4952.82
                             5051.83  5071.37  5204.02  5522.74

 Zero-point correction=                           0.080662 (Hartree/Particle)
 Thermal correction to Energy=                    0.086326
 Thermal correction to Enthalpy=                  0.087270
 Thermal correction to Gibbs Free Energy=         0.052254
 Sum of electronic and zero-point Energies=           -280.497521
 Sum of electronic and thermal Energies=              -280.491857
 Sum of electronic and thermal Enthalpies=            -280.490913
 Sum of electronic and thermal Free Energies=         -280.525929

                     E (Thermal)             CV                S
                      KCal/Mol        Cal/Mol-Kelvin    Cal/Mol-Kelvin
 Total                   54.170             19.539             73.697
 Electronic               0.000              0.000              0.000
 Translational            0.889              2.981             38.862
 Rotational               0.889              2.981             25.299
 Vibrational             52.393             13.577              9.536
 Vibration     1          0.627              1.876              2.401
 Vibration     2          0.640              1.834              2.098
 Vibration     3          0.691              1.678              1.428
 Vibration     4          0.734              1.557              1.128
 Vibration     5          0.861              1.237              0.643
 Vibration     6          0.904              1.142              0.546

 Normal termination of Gaussian 09 at Tue Aug 30 11:55:32 2022.

 -----------------------------------------------------------------
 #P Geom=AllCheck Guess=TCheck SCRF=Check CCSD(T,E4T,FrzG4)/GTBas1
 -----------------------------------------------------------------

 Structure from the checkpoint file:  "G4.Frag_1128.chk"
 ---------
 Frag_1128
 ---------
 Charge =  0 Multiplicity = 1

 SCF Done:  E(RHF) =  -278.938412301     A.U. after   13 cycles
 E2 =    -0.7891463104D+00 EUMP2 =    -0.27972755861123D+03
 CCSD(T)
 CCSD(T)= -0.27978187696D+03
 Normal termination of Gaussian 09 at Tue Aug 30 11:56:22 2022.

 ---------------------------------------------------------
 #P Geom=AllCheck Guess=TCheck SCRF=Check MP4=FrzG4/GTBas2
 ---------------------------------------------------------

 Structure from the checkpoint file:  "G4.Frag_1128.chk"
 ---------
 Frag_1128
 ---------
 Charge =  0 Multiplicity = 1

 SCF Done:  E(RHF) =  -278.949751927     A.U. after   12 cycles
 E2 =    -0.8028601013D+00 EUMP2 =    -0.27975261202857D+03
 Normal termination of Gaussian 09 at Tue Aug 30 11:56:36 2022.

 ---------------------------------------------------------
 #P Geom=AllCheck Guess=TCheck SCRF=Check MP4=FrzG4/GTBas3
 ---------------------------------------------------------

 Structure from the checkpoint file:  "G4.Frag_1128.chk"
 ---------
 Frag_1128
 ---------
 Charge =  0 Multiplicity = 1

 SCF Done:  E(RHF) =  -278.980712820     A.U. after   12 cycles
 E2 =    -0.9590379796D+00 EUMP2 =    -0.27993975079942D+03
 Normal termination of Gaussian 09 at Tue Aug 30 11:57:45 2022.

 -----------------------------------------------------------
 #P Geom=AllCheck Guess=TCheck SCRF=Check MP2=Full/GTLargeXP
 -----------------------------------------------------------

 Structure from the checkpoint file:  "G4.Frag_1128.chk"
 ---------
 Frag_1128
 ---------
 Charge =  0 Multiplicity = 1

 SCF Done:  E(RHF) =  -279.060281051     A.U. after   12 cycles
 E2 =    -0.1249395094D+01 EUMP2 =    -0.28030967614512D+03
 Normal termination of Gaussian 09 at Tue Aug 30 11:58:24 2022.
 SCF Done:  E(RHF) =  -279.082598368     A.U. after    9 cycles
 Normal termination of Gaussian 09 at Tue Aug 30 11:59:09 2022.

                         Standard orientation:
 ---------------------------------------------------------------------
 Center     Atomic      Atomic             Coordinates (Angstroms)
 Number     Number       Type             X           Y           Z
 ---------------------------------------------------------------------
      1          7           0        0.455156    1.360177    0.015392
      2          6           0        0.489528    0.086238    0.028191
      3          8           0        1.572149   -0.743565   -0.020495
      4          7           0       -0.652039   -0.672574    0.111924
      5          7           0       -1.906950   -0.061841   -0.090348
      6          1           0        1.382939    1.775075   -0.003993
      7          1           0        2.365802   -0.202692   -0.083481
      8          1           0       -0.584944   -1.599939   -0.279154
      9          1           0       -2.193187    0.334706    0.802224
     10          1           0       -1.758143    0.743611   -0.699555
 ---------------------------------------------------------------------

 SCF Done:  E(RHF) =  -279.087390099     A.U. after    8 cycles

 The electronic state is 1-A.
 Alpha  occ. eigenvalues --  -20.61566 -15.60218 -15.58201 -15.53011 -11.37904
 Alpha  occ. eigenvalues --   -1.44758  -1.30770  -1.18476  -1.06583  -0.84093
 Alpha  occ. eigenvalues --   -0.76299  -0.68970  -0.68514  -0.63493  -0.62738
 Alpha  occ. eigenvalues --   -0.61364  -0.46952  -0.45356  -0.43748  -0.37804
 Alpha virt. eigenvalues --    0.03494   0.05201   0.05409   0.05467   0.08166
 Alpha virt. eigenvalues --    0.09459   0.09927   0.11058   0.11696   0.12764
 Alpha virt. eigenvalues --    0.13008   0.14141   0.15038   0.15469   0.16100

 Mulliken charges:
               1
     1  N   -0.729457
     2  C    0.569158
     3  O   -0.537446
     4  N   -0.349225
     5  N   -0.566925
     6  H    0.258552
     7  H    0.385854
     8  H    0.350747
     9  H    0.300451
    10  H    0.318290
 Sum of Mulliken charges =  -0.00000

 Dipole moment (field-independent basis, Debye):
    X=              2.1177    Y=             -0.0886    Z=             -0.3040  Tot=              2.1413
 Quadrupole moment (field-independent basis, Debye-Ang):
   XX=            -24.8623   YY=            -32.0414   ZZ=            -30.5374
   XY=              1.0502   XZ=             -1.5810   YZ=              0.5495

 Normal termination of Gaussian 09 at Tue Aug 30 12:03:42 2022.
