 Gaussian 09, Revision E.01,
 Gaussian 09:  ES64L-G09RevE.01 30-Nov-2015

 -----
 #P G4
 -----

 --------
 Frag_844
 --------
 Symbolic Z-matrix:
 Charge =  0 Multiplicity = 1

 SCF Done:  E(RB3LYP) =  -264.475452835     A.U. after   14 cycles
 SCF Done:  E(RB3LYP) =  -264.488133757     A.U. after   13 cycles
 SCF Done:  E(RB3LYP) =  -264.488977729     A.U. after   11 cycles
 SCF Done:  E(RB3LYP) =  -264.489191046     A.U. after   11 cycles
 SCF Done:  E(RB3LYP) =  -264.489605687     A.U. after   12 cycles
 SCF Done:  E(RB3LYP) =  -264.489887178     A.U. after   13 cycles
 SCF Done:  E(RB3LYP) =  -264.490314357     A.U. after   10 cycles
 SCF Done:  E(RB3LYP) =  -264.490806894     A.U. after   11 cycles
 SCF Done:  E(RB3LYP) =  -264.491019156     A.U. after   12 cycles
 SCF Done:  E(RB3LYP) =  -264.491128636     A.U. after   11 cycles
 SCF Done:  E(RB3LYP) =  -264.492388981     A.U. after   11 cycles
 SCF Done:  E(RB3LYP) =  -264.492409053     A.U. after   10 cycles
 SCF Done:  E(RB3LYP) =  -264.492409968     A.U. after    8 cycles
 Optimization completed.
    -- Stationary point found.
 Normal termination of Gaussian 09 at Tue Aug 23 10:34:48 2022.

 ----------------------------------------------------------
 #P Geom=AllCheck Guess=TCheck SCRF=Check B3LYP/GTBas3 Freq
 ----------------------------------------------------------

 Structure from the checkpoint file:  "G4.Frag_844.chk"
 --------
 Frag_844
 --------
 Charge =  0 Multiplicity = 1

 SCF Done:  E(RB3LYP) =  -264.492409968     A.U. after    1 cycles

  Exact polarizability:  53.164   2.548  43.261  -1.708  -0.501  28.029
 Approx polarizability:  82.271   8.316  59.054  -3.787  -0.031  42.283

                      1                      2                      3
                      A                      A                      A
 Frequencies --    127.2587               200.5858               276.3926
 Red. masses --      1.3438                 1.7334                 2.5885
 Frc consts  --      0.0128                 0.0411                 0.1165
 IR Inten    --      0.1778                 1.6959                10.7503

                      4                      5                      6
                      A                      A                      A
 Frequencies --    328.7302               374.8314               443.3460
 Red. masses --      2.8178                 1.1288                 3.5503
 Frc consts  --      0.1794                 0.0934                 0.4112
 IR Inten    --      1.8978               100.9136                 3.9025

                      7                      8                      9
                      A                      A                      A
 Frequencies --    607.0586               817.2271               838.6168
 Red. masses --      3.6067                 3.8266                 2.1173
 Frc consts  --      0.7831                 1.5057                 0.8773
 IR Inten    --     16.5723                18.4331                33.8044

                     10                     11                     12
                      A                      A                      A
 Frequencies --   1023.8812              1080.0500              1120.4233
 Red. masses --      2.5661                 1.1261                 1.8359
 Frc consts  --      1.5850                 0.7740                 1.3579
 IR Inten    --     15.6910                35.1868                 9.8423

                     13                     14                     15
                      A                      A                      A
 Frequencies --   1151.9255              1225.7231              1330.1849
 Red. masses --      1.3635                 1.7219                 3.5381
 Frc consts  --      1.0660                 1.5242                 3.6885
 IR Inten    --     20.5286               115.6814               107.3424

                     16                     17                     18
                      A                      A                      A
 Frequencies --   1387.9604              1421.0565              1440.2398
 Red. masses --      1.1276                 1.2205                 1.1772
 Frc consts  --      1.2798                 1.4522                 1.4387
 IR Inten    --     29.1760                40.8126                 1.6788

                     19                     20                     21
                      A                      A                      A
 Frequencies --   1486.3106              1499.8932              1706.0879
 Red. masses --      1.0493                 1.0688                 7.5251
 Frc consts  --      1.3658                 1.4166                12.9052
 IR Inten    --     12.8911                 6.6701               173.0958

                     22                     23                     24
                      A                      A                      A
 Frequencies --   3015.7571              3103.6166              3136.2231
 Red. masses --      1.0442                 1.0906                 1.0980
 Frc consts  --      5.5956                 6.1896                 6.3629
 IR Inten    --     35.5761                17.7590                12.1809

                     25                     26                     27
                      A                      A                      A
 Frequencies --   3139.0247              3467.4903              3769.6450
 Red. masses --      1.0937                 1.0732                 1.0685
 Frc consts  --      6.3496                 7.6028                 8.9458
 IR Inten    --     13.8389                 4.1787                39.9665

 - Thermochemistry -
 -------------------
 Temperature   298.150 Kelvin.  Pressure   1.00000 Atm.
 Atom     1 has atomic number  6 and mass  12.00000

 Molecular mass:    74.04801 amu.
 Principal axes and moments of inertia in atomic units:
                           1         2         3
     Eigenvalues --   200.90966 427.01145 600.96574
           X            0.99990  -0.01061  -0.00893
           Y            0.01045   0.99979  -0.01758
           Z            0.00911   0.01749   0.99981
 This molecule is an asymmetric top.
 Rotational symmetry number  1.
 Rotational temperatures (Kelvin)      0.43111     0.20284     0.14412
 Rotational constants (GHZ):           8.98285     4.22645     3.00307
 Zero-point vibrational energy     236379.3 (Joules/Mol)
                                   56.49602 (Kcal/Mol)
 Warning -- explicit consideration of   7 degrees of freedom as
           vibrations may cause significant error
 Vibrational temperatures:    183.10   288.60   397.67   472.97   539.30
          (Kelvin)            637.88   873.42  1175.81  1206.58  1473.13
                             1553.95  1612.04  1657.36  1763.54  1913.84
                             1996.96  2044.58  2072.18  2138.47  2158.01
                             2454.68  4339.00  4465.41  4512.32  4516.35
                             4988.94  5423.67

 Zero-point correction=                           0.090032 (Hartree/Particle)
 Thermal correction to Energy=                    0.096008
 Thermal correction to Enthalpy=                  0.096952
 Thermal correction to Gibbs Free Energy=         0.061178
 Sum of electronic and zero-point Energies=           -264.402378
 Sum of electronic and thermal Energies=              -264.396402
 Sum of electronic and thermal Enthalpies=            -264.395458
 Sum of electronic and thermal Free Energies=         -264.431232

                     E (Thermal)             CV                S
                      KCal/Mol        Cal/Mol-Kelvin    Cal/Mol-Kelvin
 Total                   60.246             20.154             75.294
 Electronic               0.000              0.000              0.000
 Translational            0.889              2.981             38.822
 Rotational               0.889              2.981             25.448
 Vibrational             58.469             14.192             11.024
 Vibration     1          0.611              1.926              2.987
 Vibration     2          0.638              1.839              2.128
 Vibration     3          0.678              1.717              1.556
 Vibration     4          0.712              1.618              1.266
 Vibration     5          0.746              1.524              1.060
 Vibration     6          0.803              1.376              0.816
 Vibration     7          0.966              1.017              0.438

 Normal termination of Gaussian 09 at Tue Aug 23 10:36:02 2022.

 -----------------------------------------------------------------
 #P Geom=AllCheck Guess=TCheck SCRF=Check CCSD(T,E4T,FrzG4)/GTBas1
 -----------------------------------------------------------------

 Structure from the checkpoint file:  "G4.Frag_844.chk"
 --------
 Frag_844
 --------
 Charge =  0 Multiplicity = 1

 SCF Done:  E(RHF) =  -262.895104760     A.U. after   13 cycles
 E2 =    -0.7615942786D+00 EUMP2 =    -0.26365669903904D+03
 CCSD(T)
 CCSD(T)= -0.26371980783D+03
 8\MP4SDQ=-263.6945131\CCSD=-263.6945975\CCSD(T)=-263.7198078\RMSD=7.47
 Normal termination of Gaussian 09 at Tue Aug 23 10:37:51 2022.

 ---------------------------------------------------------
 #P Geom=AllCheck Guess=TCheck SCRF=Check MP4=FrzG4/GTBas2
 ---------------------------------------------------------

 Structure from the checkpoint file:  "G4.Frag_844.chk"
 --------
 Frag_844
 --------
 Charge =  0 Multiplicity = 1

 SCF Done:  E(RHF) =  -262.904124633     A.U. after   12 cycles
 E2 =    -0.7738414373D+00 EUMP2 =    -0.26367796606990D+03
 Normal termination of Gaussian 09 at Tue Aug 23 10:39:43 2022.

 ---------------------------------------------------------
 #P Geom=AllCheck Guess=TCheck SCRF=Check MP4=FrzG4/GTBas3
 ---------------------------------------------------------

 Structure from the checkpoint file:  "G4.Frag_844.chk"
 --------
 Frag_844
 --------
 Charge =  0 Multiplicity = 1

 SCF Done:  E(RHF) =  -262.930068021     A.U. after   12 cycles
 E2 =    -0.9290061632D+00 EUMP2 =    -0.26385907418471D+03
 Normal termination of Gaussian 09 at Tue Aug 23 11:14:50 2022.

 -----------------------------------------------------------
 #P Geom=AllCheck Guess=TCheck SCRF=Check MP2=Full/GTLargeXP
 -----------------------------------------------------------

 Structure from the checkpoint file:  "G4.Frag_844.chk"
 --------
 Frag_844
 --------
 Charge =  0 Multiplicity = 1

 SCF Done:  E(RHF) =  -263.001341574     A.U. after   12 cycles
 E2 =    -0.1213366134D+01 EUMP2 =    -0.26421470770867D+03
 Normal termination of Gaussian 09 at Tue Aug 23 11:17:15 2022.
 SCF Done:  E(RHF) =  -263.022383172     A.U. after    9 cycles
 Normal termination of Gaussian 09 at Tue Aug 23 11:20:20 2022.

                         Standard orientation:
 ---------------------------------------------------------------------
 Center     Atomic      Atomic             Coordinates (Angstroms)
 Number     Number       Type             X           Y           Z
 ---------------------------------------------------------------------
      1          6           0       -0.613004    1.356351   -0.044360
      2          7           0       -0.381542   -0.040253    0.278221
      3          8           0       -1.442954   -0.853322   -0.203700
      4          6           0        0.855568   -0.626274    0.028759
      5          7           0        2.000890   -0.081674   -0.064315
      6          1           0       -1.597053    1.641330    0.331917
      7          1           0        0.134915    1.968687    0.465227
      8          1           0       -0.567911    1.551994   -1.124142
      9          1           0       -1.932900   -1.088032    0.594306
     10          1           0        0.762996   -1.711082   -0.033826
     11          1           0        1.952765    0.936710   -0.007623
 ---------------------------------------------------------------------

 SCF Done:  E(RHF) =  -263.026857613     A.U. after    8 cycles

 The electronic state is 1-A.
 Alpha  occ. eigenvalues --  -20.61511 -15.63802 -15.53744 -11.31356 -11.27300
 Alpha  occ. eigenvalues --   -1.43931  -1.23363  -1.13103  -0.96435  -0.80020
 Alpha  occ. eigenvalues --   -0.73721  -0.70731  -0.66716  -0.60142  -0.57952
 Alpha  occ. eigenvalues --   -0.56956  -0.52247  -0.49344  -0.43169  -0.37304
 Alpha virt. eigenvalues --    0.03440   0.04465   0.05206   0.05527   0.07069
 Alpha virt. eigenvalues --    0.07278   0.07799   0.09406   0.10853   0.12601
 Alpha virt. eigenvalues --    0.13481   0.14050   0.14861   0.15529   0.16475

 Mulliken charges:
               1
     1  C   -0.444306
     2  N   -0.022732
     3  O   -0.508189
     4  C    0.175848
     5  N   -0.663542
     6  H    0.179830
     7  H    0.189986
     8  H    0.187639
     9  H    0.404888
    10  H    0.231521
    11  H    0.269056
 Sum of Mulliken charges =  -0.00000

 Dipole moment (field-independent basis, Debye):
    X=             -2.9963    Y=              1.2991    Z=              1.1859  Tot=              3.4745
 Quadrupole moment (field-independent basis, Debye-Ang):
   XX=            -36.5747   YY=            -26.1760   ZZ=            -31.7514
   XY=              2.5447   XZ=             -2.3274   YZ=             -1.6042

 Normal termination of Gaussian 09 at Tue Aug 23 12:42:10 2022.
