 Gaussian 09, Revision E.01,
 Gaussian 09:  ES64L-G09RevE.01 30-Nov-2015

 -----
 #P G4
 -----

 --------
 Frag_745
 --------
 Symbolic Z-matrix:
 Charge =  0 Multiplicity = 1

 SCF Done:  E(RB3LYP) =  -249.628544770     A.U. after   12 cycles
 SCF Done:  E(RB3LYP) =  -249.634761122     A.U. after   11 cycles
 SCF Done:  E(RB3LYP) =  -249.635295543     A.U. after   11 cycles
 SCF Done:  E(RB3LYP) =  -249.635381876     A.U. after    9 cycles
 SCF Done:  E(RB3LYP) =  -249.635418241     A.U. after    8 cycles
 SCF Done:  E(RB3LYP) =  -249.635423391     A.U. after    8 cycles
 SCF Done:  E(RB3LYP) =  -249.635432909     A.U. after    7 cycles
 Optimization completed.
    -- Stationary point found.
 Normal termination of Gaussian 09 at Fri Aug 26 07:57:23 2022.

 ----------------------------------------------------------
 #P Geom=AllCheck Guess=TCheck SCRF=Check B3LYP/GTBas3 Freq
 ----------------------------------------------------------

 Structure from the checkpoint file:  "G4.Frag_745.chk"
 --------
 Frag_745
 --------
 Charge =  0 Multiplicity = 1

 SCF Done:  E(RB3LYP) =  -249.635432909     A.U. after    1 cycles

  Exact polarizability:  46.662  -0.001  46.658  -0.003  -0.002  47.775
 Approx polarizability:  61.745  -0.002  61.742  -0.009  -0.013  76.488

                      1                      2                      3
                      A                      A                      A
 Frequencies --    211.7438               280.1563               281.4556
 Red. masses --      1.0123                 1.0649                 1.0700
 Frc consts  --      0.0267                 0.0492                 0.0499
 IR Inten    --      0.0006                 0.0765                 0.0494

                      4                      5                      6
                      A                      A                      A
 Frequencies --    367.5924               369.2410               433.8513
 Red. masses --      2.5696                 2.5419                 2.3467
 Frc consts  --      0.2046                 0.2042                 0.2602
 IR Inten    --      7.2647                 7.3416                 9.0549

                      7                      8                      9
                      A                      A                      A
 Frequencies --    494.7330               495.4680               736.8723
 Red. masses --      3.2037                 3.2020                 4.0578
 Frc consts  --      0.4620                 0.4631                 1.2982
 IR Inten    --     14.4159                14.3844                 0.0030

                     10                     11                     12
                      A                      A                      A
 Frequencies --    890.9264               893.3818               968.1321
 Red. masses --      2.0650                 2.0636                 5.6770
 Frc consts  --      0.9657                 0.9704                 3.1350
 IR Inten    --      0.0897                 0.0983                35.1374

                     13                     14                     15
                      A                      A                      A
 Frequencies --   1053.0321              1117.6326              1118.3673
 Red. masses --      1.1888                 1.3920                 1.3921
 Frc consts  --      0.7767                 1.0244                 1.0259
 IR Inten    --      0.0001                 1.5976                 1.6106

                     16                     17                     18
                      A                      A                      A
 Frequencies --   1226.1329              1277.9416              1278.7248
 Red. masses --      1.7871                 2.2114                 2.2161
 Frc consts  --      1.5830                 2.1279                 2.1350
 IR Inten    --     10.9629                 1.5622                 1.6089

                     19                     20                     21
                      A                      A                      A
 Frequencies --   1402.9910              1403.3666              1446.9880
 Red. masses --      1.1702                 1.1688                 1.1973
 Frc consts  --      1.3571                 1.3562                 1.4770
 IR Inten    --      0.1862                 0.1607                 0.4583

                     22                     23                     24
                      A                      A                      A
 Frequencies --   1449.8780              1470.8229              1471.6350
 Red. masses --      1.0513                 1.0446                 1.0441
 Frc consts  --      1.3021                 1.3315                 1.3322
 IR Inten    --      0.0082                 0.2078                 0.1963

                     25                     26                     27
                      A                      A                      A
 Frequencies --   1484.1981              1484.7226              1510.2194
 Red. masses --      1.0616                 1.0622                 1.0451
 Frc consts  --      1.3778                 1.3796                 1.4044
 IR Inten    --     13.3440                13.3186                 8.1322

                     28                     29                     30
                      A                      A                      A
 Frequencies --   3034.6553              3034.9260              3049.1544
 Red. masses --      1.0396                 1.0396                 1.0384
 Frc consts  --      5.6407                 5.6418                 5.6883
 IR Inten    --     15.7422                15.7638                53.3776

                     31                     32                     33
                      A                      A                      A
 Frequencies --   3144.4640              3144.7817              3153.5604
 Red. masses --      1.0935                 1.0935                 1.0961
 Frc consts  --      6.3706                 6.3718                 6.4225
 IR Inten    --      1.7142                 1.7276                29.8482

                     34                     35                     36
                      A                      A                      A
 Frequencies --   3175.4811              3181.2500              3181.8184
 Red. masses --      1.1068                 1.1058                 1.1058
 Frc consts  --      6.5755                 6.5938                 6.5962
 IR Inten    --      0.0269                10.1619                10.0790

 - Thermochemistry -
 -------------------
 Temperature   298.150 Kelvin.  Pressure   1.00000 Atm.
 Atom     1 has atomic number  6 and mass  12.00000

 Molecular mass:    75.06841 amu.
 Principal axes and moments of inertia in atomic units:
                           1         2         3
     Eigenvalues --   351.77108 351.82712 374.36083
           X            0.99816  -0.06057   0.00017
           Y            0.06057   0.99816   0.00078
           Z           -0.00021  -0.00077   1.00000
 This molecule is an asymmetric top.
 Rotational symmetry number  1.
 Rotational temperatures (Kelvin)      0.24622     0.24618     0.23136
 Rotational constants (GHZ):           5.13044     5.12963     4.82086
 Zero-point vibrational energy     327300.1 (Joules/Mol)
                                   78.22659 (Kcal/Mol)
 Warning -- explicit consideration of   8 degrees of freedom as
           vibrations may cause significant error
 Vibrational temperatures:    304.65   403.08   404.95   528.88   531.25
          (Kelvin)            624.21   711.81   712.87  1060.19  1281.84
                             1285.38  1392.92  1515.08  1608.02  1609.08
                             1764.13  1838.67  1839.80  2018.59  2019.13
                             2081.89  2086.05  2116.18  2117.35  2135.43
                             2136.18  2172.87  4366.19  4366.58  4387.05
                             4524.18  4524.63  4537.26  4568.80  4577.10
                             4577.92

 Zero-point correction=                           0.124662 (Hartree/Particle)
 Thermal correction to Energy=                    0.130763
 Thermal correction to Enthalpy=                  0.131708
 Thermal correction to Gibbs Free Energy=         0.096203
 Sum of electronic and zero-point Energies=           -249.510771
 Sum of electronic and thermal Energies=              -249.504670
 Sum of electronic and thermal Enthalpies=            -249.503725
 Sum of electronic and thermal Free Energies=         -249.539230

                     E (Thermal)             CV                S
                      KCal/Mol        Cal/Mol-Kelvin    Cal/Mol-Kelvin
 Total                   82.055             22.536             74.726
 Electronic               0.000              0.000              0.000
 Translational            0.889              2.981             38.863
 Rotational               0.889              2.981             25.341
 Vibrational             80.278             16.574             10.522
 Vibration     1          0.643              1.823              2.029
 Vibration     2          0.680              1.710              1.533
 Vibration     3          0.681              1.708              1.525
 Vibration     4          0.740              1.539              1.090
 Vibration     5          0.742              1.535              1.083
 Vibration     6          0.795              1.396              0.846
 Vibration     7          0.850              1.262              0.671
 Vibration     8          0.851              1.260              0.670

 Normal termination of Gaussian 09 at Fri Aug 26 07:57:48 2022.

 -----------------------------------------------------------------
 #P Geom=AllCheck Guess=TCheck SCRF=Check CCSD(T,E4T,FrzG4)/GTBas1
 -----------------------------------------------------------------

 Structure from the checkpoint file:  "G4.Frag_745.chk"
 --------
 Frag_745
 --------
 Charge =  0 Multiplicity = 1

 SCF Done:  E(RHF) =  -248.043940563     A.U. after   11 cycles
 E2 =    -0.7451853895D+00 EUMP2 =    -0.24878912595252D+03
 CCSD(T)
 CCSD(T)= -0.24886247464D+03
 DQ=-248.8385996\CCSD=-248.8390625\CCSD(T)=-248.8624746\RMSD=7.745e-09\
 Normal termination of Gaussian 09 at Fri Aug 26 07:58:56 2022.

 ---------------------------------------------------------
 #P Geom=AllCheck Guess=TCheck SCRF=Check MP4=FrzG4/GTBas2
 ---------------------------------------------------------

 Structure from the checkpoint file:  "G4.Frag_745.chk"
 --------
 Frag_745
 --------
 Charge =  0 Multiplicity = 1

 SCF Done:  E(RHF) =  -248.055481055     A.U. after   11 cycles
 E2 =    -0.7589870577D+00 EUMP2 =    -0.24881446811299D+03
 Normal termination of Gaussian 09 at Fri Aug 26 07:59:15 2022.

 ---------------------------------------------------------
 #P Geom=AllCheck Guess=TCheck SCRF=Check MP4=FrzG4/GTBas3
 ---------------------------------------------------------

 Structure from the checkpoint file:  "G4.Frag_745.chk"
 --------
 Frag_745
 --------
 Charge =  0 Multiplicity = 1

 SCF Done:  E(RHF) =  -248.073174465     A.U. after   11 cycles
 E2 =    -0.9273036458D+00 EUMP2 =    -0.24900047811115D+03
 Normal termination of Gaussian 09 at Fri Aug 26 08:01:05 2022.

 -----------------------------------------------------------
 #P Geom=AllCheck Guess=TCheck SCRF=Check MP2=Full/GTLargeXP
 -----------------------------------------------------------

 Structure from the checkpoint file:  "G4.Frag_745.chk"
 --------
 Frag_745
 --------
 Charge =  0 Multiplicity = 1

 SCF Done:  E(RHF) =  -248.140852883     A.U. after   11 cycles
 E2 =    -0.1211232179D+01 EUMP2 =    -0.24935208506133D+03
 Normal termination of Gaussian 09 at Fri Aug 26 08:02:11 2022.
 SCF Done:  E(RHF) =  -248.160541838     A.U. after    9 cycles
 Normal termination of Gaussian 09 at Fri Aug 26 08:03:31 2022.

                         Standard orientation:
 ---------------------------------------------------------------------
 Center     Atomic      Atomic             Coordinates (Angstroms)
 Number     Number       Type             X           Y           Z
 ---------------------------------------------------------------------
      1          6           0       -0.376377    1.363309   -0.417888
      2          7           0       -0.000078   -0.000108    0.088349
      3          6           0       -0.992181   -1.007186   -0.419568
      4          6           0        1.368898   -0.355056   -0.418543
      5          8           0       -0.000427   -0.001221    1.437038
      6          1           0        0.352126    2.059907   -0.005211
      7          1           0       -1.359657    1.586846   -0.006197
      8          1           0       -0.387833    1.407225   -1.512268
      9          1           0       -0.693909   -1.971051   -0.009353
     10          1           0       -1.024813   -1.037421   -1.513910
     11          1           0       -1.959387   -0.724914   -0.005930
     12          1           0        1.413257   -0.365492   -1.512912
     13          1           0        2.054236    0.383936   -0.005628
     14          1           0        1.607902   -1.334913   -0.007342
 ---------------------------------------------------------------------

 SCF Done:  E(RHF) =  -248.164884686     A.U. after    8 cycles

 The electronic state is 1-A.
 Alpha  occ. eigenvalues --  -20.45536 -15.69767 -11.26796 -11.26795 -11.26792
 Alpha  occ. eigenvalues --   -1.38489  -1.11464  -0.98578  -0.98574  -0.83026
 Alpha  occ. eigenvalues --   -0.67810  -0.67804  -0.65528  -0.59042  -0.59037
 Alpha  occ. eigenvalues --   -0.54706  -0.53951  -0.53947  -0.52488  -0.36919
 Alpha  occ. eigenvalues --   -0.36918
 Alpha virt. eigenvalues --    0.03060   0.03824   0.03824   0.05560   0.06377
 Alpha virt. eigenvalues --    0.06377   0.07685   0.07685   0.09354   0.09599
 Alpha virt. eigenvalues --    0.12698   0.14113   0.14114   0.16519   0.17445

 Mulliken charges:
               1
     1  C   -0.497495
     2  N    0.506100
     3  C   -0.497535
     4  C   -0.497545
     5  O   -0.737102
     6  H    0.202093
     7  H    0.202076
     8  H    0.170327
     9  H    0.202044
    10  H    0.170337
    11  H    0.202209
    12  H    0.170324
    13  H    0.202101
    14  H    0.202065
 Sum of Mulliken charges =  -0.00000

 Dipole moment (field-independent basis, Debye):
    X=              0.0017    Y=              0.0045    Z=             -5.1599  Tot=              5.1599
 Quadrupole moment (field-independent basis, Debye-Ang):
   XX=            -29.5059   YY=            -29.5066   ZZ=            -39.6283
   XY=             -0.0005   XZ=              0.0020   YZ=              0.0083

 Normal termination of Gaussian 09 at Fri Aug 26 08:09:07 2022.
