 Gaussian 09, Revision E.01,
 Gaussian 09:  ES64L-G09RevE.01 30-Nov-2015

 -----
 #P G4
 -----

 --------
 Frag_972
 --------
 Symbolic Z-matrix:
 Charge =  0 Multiplicity = 1

 SCF Done:  E(RB3LYP) =  -379.087492629     A.U. after   14 cycles
 SCF Done:  E(RB3LYP) =  -379.097024424     A.U. after   13 cycles
 SCF Done:  E(RB3LYP) =  -379.100302070     A.U. after   13 cycles
 SCF Done:  E(RB3LYP) =  -379.103994709     A.U. after   14 cycles
 SCF Done:  E(RB3LYP) =  -379.106503000     A.U. after   12 cycles
 SCF Done:  E(RB3LYP) =  -379.108011868     A.U. after   12 cycles
 SCF Done:  E(RB3LYP) =  -379.108881266     A.U. after   11 cycles
 SCF Done:  E(RB3LYP) =  -379.109641335     A.U. after   13 cycles
 SCF Done:  E(RB3LYP) =  -379.110091180     A.U. after   12 cycles
 SCF Done:  E(RB3LYP) =  -379.110288141     A.U. after   12 cycles
 SCF Done:  E(RB3LYP) =  -379.111314029     A.U. after    7 cycles
 SCF Done:  E(RB3LYP) =  -379.111314181     A.U. after    7 cycles
 SCF Done:  E(RB3LYP) =  -379.111314252     A.U. after    7 cycles
 Optimization completed.
    -- Stationary point found.
 Normal termination of Gaussian 09 at Fri Aug 26 15:25:05 2022.

 ----------------------------------------------------------
 #P Geom=AllCheck Guess=TCheck SCRF=Check B3LYP/GTBas3 Freq
 ----------------------------------------------------------

 Structure from the checkpoint file:  "G4.Frag_972.chk"
 --------
 Frag_972
 --------
 Charge =  0 Multiplicity = 1

 SCF Done:  E(RB3LYP) =  -379.111314252     A.U. after    1 cycles

  Exact polarizability:  56.826  -1.160  55.830   1.314  -0.320  46.703
 Approx polarizability:  75.284  -5.409  87.333   2.766  -0.582  67.445

                      1                      2                      3
                      A                      A                      A
 Frequencies --     59.0377               121.9921               161.4428
 Red. masses --      3.2671                 1.2009                 1.0919
 Frc consts  --      0.0067                 0.0105                 0.0168
 IR Inten    --      0.9211                 0.9506                18.1379

                      4                      5                      6
                      A                      A                      A
 Frequencies --    234.0303               267.9354               301.9413
 Red. masses --      2.6932                 3.0151                 1.2134
 Frc consts  --      0.0869                 0.1275                 0.0652
 IR Inten    --      9.5086                 5.4448                38.4875

                      7                      8                      9
                      A                      A                      A
 Frequencies --    398.7778               409.0987               445.0129
 Red. masses --      3.6993                 4.2579                 3.9283
 Frc consts  --      0.3466                 0.4199                 0.4584
 IR Inten    --     17.7556                 7.4568                25.1321

                     10                     11                     12
                      A                      A                      A
 Frequencies --    509.9285               529.9520               607.2061
 Red. masses --      3.2269                 1.1456                 4.1063
 Frc consts  --      0.4944                 0.1896                 0.8920
 IR Inten    --      8.3494                24.2016                13.6210

                     13                     14                     15
                      A                      A                      A
 Frequencies --    633.9218               712.9088               795.4548
 Red. masses --      2.0443                 2.9390                 1.6472
 Frc consts  --      0.4840                 0.8801                 0.6141
 IR Inten    --      9.6785                25.0716               146.9741

                     16                     17                     18
                      A                      A                      A
 Frequencies --    892.8521               968.3323               995.5283
 Red. masses --      1.8554                 2.2575                 1.7047
 Frc consts  --      0.8715                 1.2472                 0.9954
 IR Inten    --    145.4041                33.2740                13.1113

                     19                     20                     21
                      A                      A                      A
 Frequencies --   1028.8333              1057.5472              1156.7602
 Red. masses --      2.0272                 2.1061                 2.4591
 Frc consts  --      1.2643                 1.3878                 1.9387
 IR Inten    --     29.0531                36.9867                63.3086

                     22                     23                     24
                      A                      A                      A
 Frequencies --   1224.5261              1275.4078              1316.4510
 Red. masses --      3.2049                 1.4140                 1.9143
 Frc consts  --      2.8314                 1.3552                 1.9547
 IR Inten    --     48.8353               130.2101                44.5881

                     25                     26                     27
                      A                      A                      A
 Frequencies --   1379.1710              1454.9912              1463.2316
 Red. masses --      1.3558                 1.3999                 1.1262
 Frc consts  --      1.5194                 1.7461                 1.4207
 IR Inten    --     37.3856                71.9005                32.2374

                     28                     29                     30
                      A                      A                      A
 Frequencies --   1472.3795              1617.4117              1655.3692
 Red. masses --      1.1086                 1.1192                 1.1001
 Frc consts  --      1.4160                 1.7251                 1.7761
 IR Inten    --     27.1040                27.0153                32.2557

                     31                     32                     33
                      A                      A                      A
 Frequencies --   1803.8417              3056.0160              3124.1856
 Red. masses --     10.7544                 1.0341                 1.0976
 Frc consts  --     20.6173                 5.6903                 6.3119
 IR Inten    --    134.8084                 0.9322                 1.5265

                     34                     35                     36
                      A                      A                      A
 Frequencies --   3160.5175              3464.9757              3526.4427
 Red. masses --      1.1047                 1.0494                 1.0480
 Frc consts  --      6.5016                 7.4235                 7.6790
 IR Inten    --      8.5971                 0.8417                 4.8185

                     37                     38                     39
                      A                      A                      A
 Frequencies --   3542.2699              3627.2214              3633.6441
 Red. masses --      1.0907                 1.0955                 1.0643
 Frc consts  --      8.0637                 8.4923                 8.2798
 IR Inten    --      1.5061                13.5865               110.6968

 - Thermochemistry -
 -------------------
 Temperature   298.150 Kelvin.  Pressure   1.00000 Atm.
 Atom     1 has atomic number  6 and mass  12.00000

 Molecular mass:   104.05858 amu.
 Principal axes and moments of inertia in atomic units:
                           1         2         3
     Eigenvalues --   525.11414 740.14078 902.68075
           X            0.99839   0.05664   0.00043
           Y           -0.05663   0.99835  -0.00929
           Z           -0.00096   0.00925   0.99996
 This molecule is an asymmetric top.
 Rotational symmetry number  1.
 Warning -- assumption of classical behavior for rotation
           may cause significant error
 Rotational temperatures (Kelvin)      0.16494     0.11702     0.09595
 Rotational constants (GHZ):           3.43686     2.43838     1.99931
 Zero-point vibrational energy     323509.4 (Joules/Mol)
                                   77.32060 (Kcal/Mol)
 Warning -- explicit consideration of  12 degrees of freedom as
           vibrations may cause significant error
 Vibrational temperatures:     84.94   175.52   232.28   336.72   385.50
          (Kelvin)            434.43   573.75   588.60   640.27   733.67
                              762.48   873.63   912.07  1025.72  1144.48
                             1284.61  1393.21  1432.34  1480.26  1521.57
                             1664.32  1761.82  1835.03  1894.08  1984.32
                             2093.41  2105.26  2118.42  2327.09  2381.70
                             2595.32  4396.92  4495.00  4547.27  4985.32
                             5073.76  5096.53  5218.76  5228.00

 Zero-point correction=                           0.123218 (Hartree/Particle)
 Thermal correction to Energy=                    0.131644
 Thermal correction to Enthalpy=                  0.132589
 Thermal correction to Gibbs Free Energy=         0.090716
 Sum of electronic and zero-point Energies=           -378.988096
 Sum of electronic and thermal Energies=              -378.979670
 Sum of electronic and thermal Enthalpies=            -378.978726
 Sum of electronic and thermal Free Energies=         -379.020599

                     E (Thermal)             CV                S
                      KCal/Mol        Cal/Mol-Kelvin    Cal/Mol-Kelvin
 Total                   82.608             30.276             88.129
 Electronic               0.000              0.000              0.000
 Translational            0.889              2.981             39.837
 Rotational               0.889              2.981             27.353
 Vibrational             80.831             24.314             20.940
 Vibration     1          0.596              1.974              4.489
 Vibration     2          0.609              1.931              3.069
 Vibration     3          0.622              1.890              2.533
 Vibration     4          0.654              1.789              1.848
 Vibration     5          0.673              1.732              1.609
 Vibration     6          0.694              1.670              1.406
 Vibration     7          0.765              1.473              0.967
 Vibration     8          0.773              1.450              0.930
 Vibration     9          0.804              1.372              0.811
 Vibration    10          0.865              1.228              0.634
 Vibration    11          0.885              1.184              0.587
 Vibration    12          0.966              1.017              0.437

 Optimization completed.
    -- Stationary point found.
 Normal termination of Gaussian 09 at Fri Aug 26 15:25:51 2022.

 -----------------------------------------------------------------
 #P Geom=AllCheck Guess=TCheck SCRF=Check CCSD(T,E4T,FrzG4)/GTBas1
 -----------------------------------------------------------------

 Structure from the checkpoint file:  "G4.Frag_972.chk"
 --------
 Frag_972
 --------
 Charge =  0 Multiplicity = 1

 SCF Done:  E(RHF) =  -376.872994358     A.U. after   14 cycles
 E2 =    -0.1069782763D+01 EUMP2 =    -0.37794277712079D+03
 CCSD(T)
 CCSD(T)= -0.37802232452D+03
 =-377.9895607\CCSD(T)=-378.0223245\RMSD=4.385e-09\PG=C01 [X(C3H8N2O2)]
 Normal termination of Gaussian 09 at Fri Aug 26 15:30:17 2022.

 ---------------------------------------------------------
 #P Geom=AllCheck Guess=TCheck SCRF=Check MP4=FrzG4/GTBas2
 ---------------------------------------------------------

 Structure from the checkpoint file:  "G4.Frag_972.chk"
 --------
 Frag_972
 --------
 Charge =  0 Multiplicity = 1

 SCF Done:  E(RHF) =  -376.886700250     A.U. after   13 cycles
 E2 =    -0.1088771621D+01 EUMP2 =    -0.37797547187072D+03
 Normal termination of Gaussian 09 at Fri Aug 26 15:31:36 2022.

 ---------------------------------------------------------
 #P Geom=AllCheck Guess=TCheck SCRF=Check MP4=FrzG4/GTBas3
 ---------------------------------------------------------

 Structure from the checkpoint file:  "G4.Frag_972.chk"
 --------
 Frag_972
 --------
 Charge =  0 Multiplicity = 1

 SCF Done:  E(RHF) =  -376.924086545     A.U. after   12 cycles
 E2 =    -0.1312314851D+01 EUMP2 =    -0.37823640139554D+03
 Normal termination of Gaussian 09 at Fri Aug 26 15:38:46 2022.

 -----------------------------------------------------------
 #P Geom=AllCheck Guess=TCheck SCRF=Check MP2=Full/GTLargeXP
 -----------------------------------------------------------

 Structure from the checkpoint file:  "G4.Frag_972.chk"
 --------
 Frag_972
 --------
 Charge =  0 Multiplicity = 1

 SCF Done:  E(RHF) =  -377.026874961     A.U. after   13 cycles
 E2 =    -0.1713365944D+01 EUMP2 =    -0.37874024090506D+03
 Normal termination of Gaussian 09 at Fri Aug 26 15:42:03 2022.
 SCF Done:  E(RHF) =  -377.056286054     A.U. after    9 cycles
 Normal termination of Gaussian 09 at Fri Aug 26 15:45:03 2022.

                         Standard orientation:
 ---------------------------------------------------------------------
 Center     Atomic      Atomic             Coordinates (Angstroms)
 Number     Number       Type             X           Y           Z
 ---------------------------------------------------------------------
      1          6           0       -1.827257   -0.974890    0.033161
      2          6           0       -0.923022    0.227361   -0.002872
      3          8           0       -1.327315    1.370589    0.005057
      4          6           0        0.618174   -0.020243   -0.012712
      5          7           0        0.947764   -0.828517   -1.177942
      6          7           0        0.960749   -0.748695    1.205555
      7          8           0        1.251127    1.229065    0.007759
      8          1           0       -1.602520   -1.633758   -0.810353
      9          1           0       -1.621399   -1.543510    0.944719
     10          1           0       -2.871111   -0.660913    0.012837
     11          1           0        0.686578   -0.321568   -2.021461
     12          1           0        1.961556   -0.919867   -1.212130
     13          1           0        1.249540   -1.695736    0.991467
     14          1           0        1.711692   -0.256041    1.673167
     15          1           0        0.528196    1.881276    0.020476
 ---------------------------------------------------------------------

 SCF Done:  E(RHF) =  -377.062695396     A.U. after    8 cycles

 The electronic state is 1-A.
 Alpha  occ. eigenvalues --  -20.56389 -20.56029 -15.56456 -15.55430 -11.35978
 Alpha  occ. eigenvalues --  -11.34136 -11.23471  -1.42400  -1.37725  -1.22333
 Alpha  occ. eigenvalues --   -1.14864  -1.02029  -0.89501  -0.77350  -0.72475
 Alpha  occ. eigenvalues --   -0.69971  -0.67928  -0.64928  -0.61549  -0.60389
 Alpha  occ. eigenvalues --   -0.59016  -0.58345  -0.52874  -0.51601  -0.50795
 Alpha  occ. eigenvalues --   -0.46064  -0.43449  -0.40185
 Alpha virt. eigenvalues --    0.03353   0.04023   0.04904   0.05411   0.06572
 Alpha virt. eigenvalues --    0.06933   0.07254   0.08046   0.08325   0.09790
 Alpha virt. eigenvalues --    0.10882   0.11190   0.12192   0.12612   0.12922

 Mulliken charges:
               1
     1  C   -0.607805
     2  C    0.482763
     3  O   -0.577815
     4  C    0.574215
     5  N   -0.735420
     6  N   -0.806123
     7  O   -0.652840
     8  H    0.221246
     9  H    0.223924
    10  H    0.205333
    11  H    0.295124
    12  H    0.299645
    13  H    0.328735
    14  H    0.334909
    15  H    0.414109
 Sum of Mulliken charges =  -0.00000

 Dipole moment (field-independent basis, Debye):
    X=              0.9841    Y=             -2.3636    Z=             -0.8505  Tot=              2.6979
 Quadrupole moment (field-independent basis, Debye-Ang):
   XX=            -41.1026   YY=            -45.1064   ZZ=            -40.8591
   XY=              0.5421   XZ=              0.6578   YZ=             -0.8291

 Normal termination of Gaussian 09 at Fri Aug 26 15:55:41 2022.
