 Gaussian 09, Revision E.01,
 Gaussian 09:  ES64L-G09RevE.01 30-Nov-2015

 -----
 #P G4
 -----

 ---------
 Frag_1149
 ---------
 Symbolic Z-matrix:
 Charge =  0 Multiplicity = 1

 SCF Done:  E(RB3LYP) =  -321.038451014     A.U. after   12 cycles
 SCF Done:  E(RB3LYP) =  -321.047660324     A.U. after   11 cycles
 SCF Done:  E(RB3LYP) =  -321.049016240     A.U. after   11 cycles
 SCF Done:  E(RB3LYP) =  -321.049538943     A.U. after   10 cycles
 SCF Done:  E(RB3LYP) =  -321.049933466     A.U. after   11 cycles
 SCF Done:  E(RB3LYP) =  -321.050416154     A.U. after   11 cycles
 SCF Done:  E(RB3LYP) =  -321.051070905     A.U. after   11 cycles
 SCF Done:  E(RB3LYP) =  -321.053071268     A.U. after   13 cycles
 SCF Done:  E(RB3LYP) =  -321.054396385     A.U. after   11 cycles
 SCF Done:  E(RB3LYP) =  -321.054486443     A.U. after   11 cycles
 SCF Done:  E(RB3LYP) =  -321.056518828     A.U. after    9 cycles
 SCF Done:  E(RB3LYP) =  -321.056520866     A.U. after    8 cycles
 SCF Done:  E(RB3LYP) =  -321.056521158     A.U. after    7 cycles
 Optimization completed.
    -- Stationary point found.
 Normal termination of Gaussian 09 at Mon Aug 22 23:16:36 2022.

 ----------------------------------------------------------
 #P Geom=AllCheck Guess=TCheck SCRF=Check B3LYP/GTBas3 Freq
 ----------------------------------------------------------

 Structure from the checkpoint file:  "G4.Frag_1149.chk"
 ---------
 Frag_1149
 ---------
 Charge =  0 Multiplicity = 1

 SCF Done:  E(RB3LYP) =  -321.056521158     A.U. after    1 cycles

  Exact polarizability:  53.478  -1.583  50.899   1.652  -2.102  46.247
 Approx polarizability:  70.666  -4.001  71.751   1.649  -3.184  69.952

                      1                      2                      3
                      A                      A                      A
 Frequencies --    112.3269               196.2769               249.7851
 Red. masses --      3.1605                 1.1281                 1.0793
 Frc consts  --      0.0235                 0.0256                 0.0397
 IR Inten    --      0.4782               130.8479                 3.4219

                      4                      5                      6
                      A                      A                      A
 Frequencies --    267.6840               305.1105               310.4510
 Red. masses --      2.3696                 2.6298                 1.3027
 Frc consts  --      0.1000                 0.1442                 0.0740
 IR Inten    --     13.4004                 9.6229                20.2601

                      7                      8                      9
                      A                      A                      A
 Frequencies --    367.1493               411.6588               480.0129
 Red. masses --      1.1301                 3.0007                 2.6854
 Frc consts  --      0.0898                 0.2996                 0.3646
 IR Inten    --     15.4595                 1.7183                21.6807

                     10                     11                     12
                      A                      A                      A
 Frequencies --    518.3710               604.6182               760.9638
 Red. masses --      3.0631                 2.7452                 3.3435
 Frc consts  --      0.4849                 0.5913                 1.1407
 IR Inten    --     13.8189                 6.5429                34.4014

                     13                     14                     15
                      A                      A                      A
 Frequencies --    881.7003               898.8303               952.3671
 Red. masses --      2.5677                 2.2802                 1.7247
 Frc consts  --      1.1761                 1.0854                 0.9217
 IR Inten    --     50.5059               119.3624                 8.3674

                     16                     17                     18
                      A                      A                      A
 Frequencies --   1028.2020              1054.3526              1130.8759
 Red. masses --      1.5649                 1.6339                 2.8014
 Frc consts  --      0.9748                 1.0701                 2.1109
 IR Inten    --     35.2561                36.9314                93.0137

                     19                     20                     21
                      A                      A                      A
 Frequencies --   1169.9497              1220.1155              1301.5753
 Red. masses --      3.2794                 1.7528                 1.3856
 Frc consts  --      2.6447                 1.5374                 1.3830
 IR Inten    --     80.7625                12.9099                 7.9196

                     22                     23                     24
                      A                      A                      A
 Frequencies --   1311.9951              1348.5777              1379.1524
 Red. masses --      1.4907                 1.2714                 1.2582
 Frc consts  --      1.5119                 1.3623                 1.4101
 IR Inten    --      5.3860                 4.7897                 3.9321

                     25                     26                     27
                      A                      A                      A
 Frequencies --   1393.3921              1412.5227              1490.4993
 Red. masses --      1.2258                 1.2752                 1.0541
 Frc consts  --      1.4022                 1.4990                 1.3797
 IR Inten    --     13.5976                63.9673                 0.8562

                     28                     29                     30
                      A                      A                      A
 Frequencies --   1499.9078              1656.3992              1687.5406
 Red. masses --      1.0480                 1.0858                 1.0765
 Frc consts  --      1.3892                 1.7553                 1.8062
 IR Inten    --      7.0495                 8.1861                17.3948

                     31                     32                     33
                      A                      A                      A
 Frequencies --   3025.7828              3083.6772              3105.2957
 Red. masses --      1.0438                 1.0850                 1.0919
 Frc consts  --      5.6305                 6.0788                 6.2037
 IR Inten    --     12.6420                 7.1283                35.6375

                     34                     35                     36
                      A                      A                      A
 Frequencies --   3129.0190              3362.2234              3382.5752
 Red. masses --      1.1022                 1.0555                 1.0578
 Frc consts  --      6.3583                 7.0302                 7.1311
 IR Inten    --     14.4780                24.1228                12.6929

                     37                     38                     39
                      A                      A                      A
 Frequencies --   3531.0506              3548.5149              3808.4222
 Red. masses --      1.0824                 1.0837                 1.0659
 Frc consts  --      7.9515                 8.0397                 9.1090
 IR Inten    --      1.0731                 1.3391                11.4041

 - Thermochemistry -
 -------------------
 Temperature   298.150 Kelvin.  Pressure   1.00000 Atm.
 Atom     1 has atomic number  6 and mass  12.00000

 Molecular mass:    91.07456 amu.
 Principal axes and moments of inertia in atomic units:
                           1         2         3
     Eigenvalues --   382.00738 608.42019 742.00596
           X            0.99928   0.02841   0.02525
           Y           -0.02840   0.99960  -0.00082
           Z           -0.02527   0.00011   0.99968
 This molecule is an asymmetric top.
 Rotational symmetry number  1.
 Rotational temperatures (Kelvin)      0.22673     0.14236     0.11673
 Rotational constants (GHZ):           4.72436     2.96627     2.43225
 Zero-point vibrational energy     343202.2 (Joules/Mol)
                                   82.02729 (Kcal/Mol)
 Warning -- explicit consideration of  11 degrees of freedom as
           vibrations may cause significant error
 Vibrational temperatures:    161.61   282.40   359.38   385.14   438.99
          (Kelvin)            446.67   528.25   592.28   690.63   745.82
                              869.91  1094.86  1268.57  1293.21  1370.24
                             1479.35  1516.98  1627.08  1683.29  1755.47
                             1872.67  1887.67  1940.30  1984.29  2004.78
                             2032.30  2144.49  2158.03  2383.19  2427.99
                             4353.42  4436.72  4467.82  4501.95  4837.48
                             4866.77  5080.39  5105.52  5479.46

 Zero-point correction=                           0.130719 (Hartree/Particle)
 Thermal correction to Energy=                    0.138282
 Thermal correction to Enthalpy=                  0.139227
 Thermal correction to Gibbs Free Energy=         0.100046
 Sum of electronic and zero-point Energies=           -320.925802
 Sum of electronic and thermal Energies=              -320.918239
 Sum of electronic and thermal Enthalpies=            -320.917295
 Sum of electronic and thermal Free Energies=         -320.956475

                     E (Thermal)             CV                S
                      KCal/Mol        Cal/Mol-Kelvin    Cal/Mol-Kelvin
 Total                   86.774             27.560             82.462
 Electronic               0.000              0.000              0.000
 Translational            0.889              2.981             39.439
 Rotational               0.889              2.981             26.647
 Vibrational             84.996             21.599             16.375
 Vibration     1          0.607              1.939              3.228
 Vibration     2          0.636              1.845              2.168
 Vibration     3          0.663              1.763              1.732
 Vibration     4          0.673              1.732              1.611
 Vibration     5          0.696              1.664              1.389
 Vibration     6          0.699              1.654              1.360
 Vibration     7          0.740              1.540              1.092
 Vibration     8          0.776              1.445              0.921
 Vibration     9          0.836              1.294              0.710
 Vibration    10          0.873              1.209              0.614
 Vibration    11          0.963              1.022              0.442

 Optimization completed.
    -- Stationary point found.
 Normal termination of Gaussian 09 at Mon Aug 22 23:19:28 2022.

 -----------------------------------------------------------------
 #P Geom=AllCheck Guess=TCheck SCRF=Check CCSD(T,E4T,FrzG4)/GTBas1
 -----------------------------------------------------------------

 Structure from the checkpoint file:  "G4.Frag_1149.chk"
 ---------
 Frag_1149
 ---------
 Charge =  0 Multiplicity = 1

 SCF Done:  E(RHF) =  -319.085422629     A.U. after   12 cycles
 E2 =    -0.9361373653D+00 EUMP2 =    -0.32002155999391D+03
 CCSD(T)
 CCSD(T)= -0.32010129822D+03
 0.0744101\CCSD(T)=-320.1012982\RMSD=3.967e-09\PG=C01 [X(C2H9N3O1)]\\@
 Normal termination of Gaussian 09 at Mon Aug 22 23:25:45 2022.

 ---------------------------------------------------------
 #P Geom=AllCheck Guess=TCheck SCRF=Check MP4=FrzG4/GTBas2
 ---------------------------------------------------------

 Structure from the checkpoint file:  "G4.Frag_1149.chk"
 ---------
 Frag_1149
 ---------
 Charge =  0 Multiplicity = 1

 SCF Done:  E(RHF) =  -319.097690956     A.U. after   12 cycles
 E2 =    -0.9527212694D+00 EUMP2 =    -0.32005041222588D+03
 Normal termination of Gaussian 09 at Mon Aug 22 23:34:54 2022.

 ---------------------------------------------------------
 #P Geom=AllCheck Guess=TCheck SCRF=Check MP4=FrzG4/GTBas3
 ---------------------------------------------------------

 Structure from the checkpoint file:  "G4.Frag_1149.chk"
 ---------
 Frag_1149
 ---------
 Charge =  0 Multiplicity = 1

 SCF Done:  E(RHF) =  -319.133109973     A.U. after   11 cycles
 E2 =    -0.1153828403D+01 EUMP2 =    -0.32028693837574D+03
 Normal termination of Gaussian 09 at Tue Aug 23 02:55:49 2022.

 -----------------------------------------------------------
 #P Geom=AllCheck Guess=TCheck SCRF=Check MP2=Full/GTLargeXP
 -----------------------------------------------------------

 Structure from the checkpoint file:  "G4.Frag_1149.chk"
 ---------
 Frag_1149
 ---------
 Charge =  0 Multiplicity = 1

 SCF Done:  E(RHF) =  -319.220566177     A.U. after   11 cycles
 E2 =    -0.1500379169D+01 EUMP2 =    -0.32072094534583D+03
 Normal termination of Gaussian 09 at Tue Aug 23 03:02:20 2022.
 SCF Done:  E(RHF) =  -319.245579694     A.U. after    9 cycles
 Normal termination of Gaussian 09 at Tue Aug 23 03:08:48 2022.

                         Standard orientation:
 ---------------------------------------------------------------------
 Center     Atomic      Atomic             Coordinates (Angstroms)
 Number     Number       Type             X           Y           Z
 ---------------------------------------------------------------------
      1          6           0        1.068860    1.193459    0.667752
      2          6           0        0.657651    0.231167   -0.454043
      3          8           0        1.555482   -0.850449   -0.556784
      4          7           0       -0.719597   -0.290645   -0.366411
      5          7           0       -1.636545    0.784220   -0.458802
      6          7           0       -0.981424   -1.125774    0.758582
      7          1           0        2.089200    1.543111    0.491169
      8          1           0        0.408083    2.063699    0.699279
      9          1           0        1.052101    0.709671    1.652958
     10          1           0        0.693242    0.759101   -1.410331
     11          1           0        1.764528   -1.151206    0.333687
     12          1           0       -1.808094    1.186278    0.467134
     13          1           0       -2.521490    0.383962   -0.756620
     14          1           0       -0.587370   -2.038245    0.551554
     15          1           0       -0.530166   -0.775142    1.609613
 ---------------------------------------------------------------------

 SCF Done:  E(RHF) =  -319.251216579     A.U. after    8 cycles

 The electronic state is 1-A.
 Alpha  occ. eigenvalues --  -20.56289 -15.60204 -15.57688 -15.57176 -11.31024
 Alpha  occ. eigenvalues --  -11.22871  -1.38513  -1.31551  -1.14702  -1.03641
 Alpha  occ. eigenvalues --   -0.95589  -0.82327  -0.71972  -0.68324  -0.67466
 Alpha  occ. eigenvalues --   -0.65096  -0.64231  -0.59760  -0.55872  -0.53941
 Alpha  occ. eigenvalues --   -0.50723  -0.48571  -0.42948  -0.41974  -0.38128
 Alpha virt. eigenvalues --    0.03150   0.04726   0.05092   0.05154   0.07360
 Alpha virt. eigenvalues --    0.07422   0.07730   0.08015   0.08936   0.11041
 Alpha virt. eigenvalues --    0.11792   0.12083   0.12609   0.13552   0.14441

 Mulliken charges:
               1
     1  C   -0.563909
     2  C    0.163404
     3  O   -0.590644
     4  N    0.044445
     5  N   -0.640076
     6  N   -0.687625
     7  H    0.188532
     8  H    0.196440
     9  H    0.150172
    10  H    0.186060
    11  H    0.358835
    12  H    0.268633
    13  H    0.316178
    14  H    0.329277
    15  H    0.280278
 Sum of Mulliken charges =  -0.00000

 Dipole moment (field-independent basis, Debye):
    X=              0.4040    Y=              0.5673    Z=              2.9476  Tot=              3.0288
 Quadrupole moment (field-independent basis, Debye-Ang):
   XX=            -38.2273   YY=            -37.3045   ZZ=            -38.1548
   XY=             -0.8328   XZ=              2.9593   YZ=             -1.3105

 Normal termination of Gaussian 09 at Tue Aug 23 06:03:45 2022.
