 Gaussian 09, Revision E.01,
 Gaussian 09:  ES64L-G09RevE.01 30-Nov-2015

 -----
 #P G4
 -----

 --------
 Frag_580
 --------
 Symbolic Z-matrix:
 Charge =  0 Multiplicity = 1

 SCF Done:  E(RB3LYP) =  -387.547575018     A.U. after   12 cycles
 SCF Done:  E(RB3LYP) =  -387.552774693     A.U. after   10 cycles
 SCF Done:  E(RB3LYP) =  -387.553032452     A.U. after   10 cycles
 SCF Done:  E(RB3LYP) =  -387.553111740     A.U. after   10 cycles
 SCF Done:  E(RB3LYP) =  -387.553206873     A.U. after    9 cycles
 SCF Done:  E(RB3LYP) =  -387.553225779     A.U. after    9 cycles
 SCF Done:  E(RB3LYP) =  -387.553239933     A.U. after    9 cycles
 SCF Done:  E(RB3LYP) =  -387.553253822     A.U. after    9 cycles
 SCF Done:  E(RB3LYP) =  -387.553261934     A.U. after    9 cycles
 SCF Done:  E(RB3LYP) =  -387.553263343     A.U. after    7 cycles
 SCF Done:  E(RB3LYP) =  -387.553267359     A.U. after    9 cycles
 SCF Done:  E(RB3LYP) =  -387.553267988     A.U. after    8 cycles
 SCF Done:  E(RB3LYP) =  -387.553267991     A.U. after    6 cycles
 Optimization completed.
    -- Stationary point found.
 Normal termination of Gaussian 09 at Fri Aug 26 09:42:33 2022.

 ----------------------------------------------------------
 #P Geom=AllCheck Guess=TCheck SCRF=Check B3LYP/GTBas3 Freq
 ----------------------------------------------------------

 Structure from the checkpoint file:  "G4.Frag_580.chk"
 --------
 Frag_580
 --------
 Charge =  0 Multiplicity = 1

 SCF Done:  E(RB3LYP) =  -387.553267991     A.U. after    1 cycles

  Exact polarizability:  74.949  -1.739  72.926   0.003  -0.704  71.566
 Approx polarizability: 101.396   0.609 103.718  -0.655  -1.069 104.950

                      1                      2                      3
                      A                      A                      A
 Frequencies --     83.5362               148.3898               195.7143
 Red. masses --      2.7845                 1.1132                 1.0491
 Frc consts  --      0.0114                 0.0144                 0.0237
 IR Inten    --      0.4374                83.2954                 7.5429

                      4                      5                      6
                      A                      A                      A
 Frequencies --    235.5832               248.3145               262.4460
 Red. masses --      1.1351                 1.4254                 1.3263
 Frc consts  --      0.0371                 0.0518                 0.0538
 IR Inten    --     10.6909                 8.7330                 2.5100

                      7                      8                      9
                      A                      A                      A
 Frequencies --    279.2976               286.8481               296.0843
 Red. masses --      2.0209                 1.5778                 1.3102
 Frc consts  --      0.0929                 0.0765                 0.0677
 IR Inten    --     38.4805                24.6429                43.8446

                     10                     11                     12
                      A                      A                      A
 Frequencies --    348.1368               357.6526               367.9524
 Red. masses --      2.2954                 2.5416                 1.9493
 Frc consts  --      0.1639                 0.1916                 0.1555
 IR Inten    --      1.3225                 0.0531                10.7022

                     13                     14                     15
                      A                      A                      A
 Frequencies --    397.7191               422.0460               507.2874
 Red. masses --      2.6021                 2.5327                 3.1112
 Frc consts  --      0.2425                 0.2658                 0.4717
 IR Inten    --      8.2914                 7.2754                 0.5571

                     16                     17                     18
                      A                      A                      A
 Frequencies --    530.3146               545.4581               680.5884
 Red. masses --      2.8949                 3.6525                 3.7845
 Frc consts  --      0.4797                 0.6403                 1.0328
 IR Inten    --      6.1282                 8.4283                 4.1519

                     19                     20                     21
                      A                      A                      A
 Frequencies --    826.0534               914.1172               935.0591
 Red. masses --      2.5954                 2.0931                 1.6495
 Frc consts  --      1.0435                 1.0305                 0.8497
 IR Inten    --      1.1289                20.7099                 1.7975

                     22                     23                     24
                      A                      A                      A
 Frequencies --    939.6711               957.3111               958.4656
 Red. masses --      1.6492                 1.2166                 2.0679
 Frc consts  --      0.8580                 0.6569                 1.1193
 IR Inten    --      1.2205                 0.8032                35.4611

                     25                     26                     27
                      A                      A                      A
 Frequencies --   1017.2185              1035.1363              1077.6394
 Red. masses --      1.7208                 1.3862                 1.8518
 Frc consts  --      1.0491                 0.8751                 1.2671
 IR Inten    --     19.2878                 1.4490                39.1687

                     28                     29                     30
                      A                      A                      A
 Frequencies --   1116.8606              1157.3221              1240.9523
 Red. masses --      1.6309                 2.2678                 2.5753
 Frc consts  --      1.1986                 1.7897                 2.3366
 IR Inten    --     92.7333                73.5932                11.3593

                     31                     32                     33
                      A                      A                      A
 Frequencies --   1243.7055              1267.6957              1315.8972
 Red. masses --      2.6730                 2.5521                 1.8192
 Frc consts  --      2.4361                 2.4164                 1.8560
 IR Inten    --     10.0848                 7.1226               101.2517

                     34                     35                     36
                      A                      A                      A
 Frequencies --   1373.9705              1390.5615              1395.7213
 Red. masses --      1.3107                 1.2670                 1.2478
 Frc consts  --      1.4578                 1.4434                 1.4322
 IR Inten    --     22.5101                 6.9418                12.7652

                     37                     38                     39
                      A                      A                      A
 Frequencies --   1419.4804              1429.1280              1478.8872
 Red. masses --      1.4039                 1.4026                 1.0494
 Frc consts  --      1.6666                 1.6878                 1.3522
 IR Inten    --     35.4062                22.9408                 0.8516

                     40                     41                     42
                      A                      A                      A
 Frequencies --   1484.8425              1490.1266              1497.9207
 Red. masses --      1.0524                 1.0501                 1.0510
 Frc consts  --      1.3670                 1.3739                 1.3894
 IR Inten    --      0.3464                 0.2218                 3.4444

                     43                     44                     45
                      A                      A                      A
 Frequencies --   1499.3274              1507.9992              1512.4449
 Red. masses --      1.0500                 1.0524                 1.0519
 Frc consts  --      1.3908                 1.4100                 1.4177
 IR Inten    --      1.9059                 1.6623                 3.9278

                     46                     47                     48
                      A                      A                      A
 Frequencies --   1527.0084              3028.9541              3033.4507
 Red. masses --      1.0600                 1.0356                 1.0352
 Frc consts  --      1.4563                 5.5981                 5.6123
 IR Inten    --     12.3553                26.6700                23.5468

                     49                     50                     51
                      A                      A                      A
 Frequencies --   3039.4335              3058.3459              3091.1279
 Red. masses --      1.0361                 1.0364                 1.1000
 Frc consts  --      5.6394                 5.7114                 6.1926
 IR Inten    --     14.2378                 7.6668                19.5774

                     52                     53                     54
                      A                      A                      A
 Frequencies --   3096.9005              3099.8846              3105.4804
 Red. masses --      1.1006                 1.1009                 1.0994
 Frc consts  --      6.2190                 6.2330                 6.2471
 IR Inten    --     13.1400                20.4102                56.6179

                     55                     56                     57
                      A                      A                      A
 Frequencies --   3118.0042              3119.9714              3132.3044
 Red. masses --      1.1015                 1.1013                 1.1005
 Frc consts  --      6.3091                 6.3160                 6.3616
 IR Inten    --     20.3862                20.5029                19.0954

                     58                     59                     60
                      A                      A                      A
 Frequencies --   3144.5357              3813.9893              3833.5440
 Red. masses --      1.1019                 1.0652                 1.0654
 Frc consts  --      6.4195                 9.1293                 9.2252
 IR Inten    --     14.4419                23.7444                18.7348

 - Thermochemistry -
 -------------------
 Temperature   298.150 Kelvin.  Pressure   1.00000 Atm.
 Atom     1 has atomic number  6 and mass  12.00000

 Molecular mass:   118.09938 amu.
 Principal axes and moments of inertia in atomic units:
                           1         2         3
     Eigenvalues --   745.114051038.690561052.56328
           X            0.99819  -0.05661   0.02014
           Y            0.05969   0.97269  -0.22430
           Z           -0.00689   0.22510   0.97431
 This molecule is an asymmetric top.
 Rotational symmetry number  1.
 Warning -- assumption of classical behavior for rotation
           may cause significant error
 Rotational temperatures (Kelvin)      0.11624     0.08339     0.08229
 Rotational constants (GHZ):           2.42210     1.73752     1.71462
 Zero-point vibrational energy     513914.6 (Joules/Mol)
                                  122.82855 (Kcal/Mol)
 Warning -- explicit consideration of  17 degrees of freedom as
           vibrations may cause significant error
 Vibrational temperatures:    120.19   213.50   281.59   338.95   357.27
          (Kelvin)            377.60   401.85   412.71   426.00   500.89
                              514.58   529.40   572.23   607.23   729.87
                              763.00   784.79   979.21  1188.51  1315.21
                             1345.34  1351.98  1377.36  1379.02  1463.55
                             1489.33  1550.48  1606.91  1665.13  1785.45
                             1789.41  1823.93  1893.28  1976.83  2000.71
                             2008.13  2042.31  2056.19  2127.79  2136.35
                             2143.96  2155.17  2157.20  2169.67  2176.07
                             2197.02  4357.98  4364.45  4373.06  4400.27
                             4447.44  4455.74  4460.04  4468.09  4486.11
                             4488.94  4506.68  4524.28  5487.47  5515.61

 Zero-point correction=                           0.195740 (Hartree/Particle)
 Thermal correction to Energy=                    0.206287
 Thermal correction to Enthalpy=                  0.207231
 Thermal correction to Gibbs Free Energy=         0.161825
 Sum of electronic and zero-point Energies=           -387.357528
 Sum of electronic and thermal Energies=              -387.346981
 Sum of electronic and thermal Enthalpies=            -387.346037
 Sum of electronic and thermal Free Energies=         -387.391443

                     E (Thermal)             CV                S
                      KCal/Mol        Cal/Mol-Kelvin    Cal/Mol-Kelvin
 Total                  129.447             40.198             95.566
 Electronic               0.000              0.000              0.000
 Translational            0.889              2.981             40.214
 Rotational               0.889              2.981             28.190
 Vibrational            127.670             34.237             27.163
 Vibration     1          0.600              1.961              3.806
 Vibration     2          0.618              1.904              2.693
 Vibration     3          0.636              1.846              2.173
 Vibration     4          0.655              1.786              1.836
 Vibration     5          0.662              1.766              1.743
 Vibration     6          0.670              1.742              1.645
 Vibration     7          0.680              1.712              1.538
 Vibration     8          0.684              1.698              1.492
 Vibration     9          0.690              1.681              1.439
 Vibration    10          0.726              1.579              1.175
 Vibration    11          0.733              1.560              1.132
 Vibration    12          0.741              1.538              1.088
 Vibration    13          0.764              1.475              0.971
 Vibration    14          0.784              1.422              0.885
 Vibration    15          0.862              1.234              0.640
 Vibration    16          0.885              1.183              0.587
 Vibration    17          0.901              1.150              0.554

 Optimization completed.
    -- Stationary point found.
 Normal termination of Gaussian 09 at Fri Aug 26 09:44:01 2022.

 -----------------------------------------------------------------
 #P Geom=AllCheck Guess=TCheck SCRF=Check CCSD(T,E4T,FrzG4)/GTBas1
 -----------------------------------------------------------------

 Structure from the checkpoint file:  "G4.Frag_580.chk"
 --------
 Frag_580
 --------
 Charge =  0 Multiplicity = 1

 SCF Done:  E(RHF) =  -385.074308192     A.U. after   11 cycles
 E2 =    -0.1158441464D+01 EUMP2 =    -0.38623274965566D+03
 CCSD(T)
 CCSD(T)= -0.38634462965D+03
 P4SDQ=-386.3086556\CCSD=-386.3092904\CCSD(T)=-386.3446296\RMSD=6.075e-
 Normal termination of Gaussian 09 at Fri Aug 26 09:54:25 2022.

 ---------------------------------------------------------
 #P Geom=AllCheck Guess=TCheck SCRF=Check MP4=FrzG4/GTBas2
 ---------------------------------------------------------

 Structure from the checkpoint file:  "G4.Frag_580.chk"
 --------
 Frag_580
 --------
 Charge =  0 Multiplicity = 1

 SCF Done:  E(RHF) =  -385.083340883     A.U. after   11 cycles
 E2 =    -0.1176369829D+01 EUMP2 =    -0.38625971071252D+03
 Normal termination of Gaussian 09 at Fri Aug 26 09:57:56 2022.

 ---------------------------------------------------------
 #P Geom=AllCheck Guess=TCheck SCRF=Check MP4=FrzG4/GTBas3
 ---------------------------------------------------------

 Structure from the checkpoint file:  "G4.Frag_580.chk"
 --------
 Frag_580
 --------
 Charge =  0 Multiplicity = 1

 SCF Done:  E(RHF) =  -385.127507108     A.U. after   10 cycles
 E2 =    -0.1448167733D+01 EUMP2 =    -0.38657567484055D+03
 Normal termination of Gaussian 09 at Fri Aug 26 10:28:12 2022.

 -----------------------------------------------------------
 #P Geom=AllCheck Guess=TCheck SCRF=Check MP2=Full/GTLargeXP
 -----------------------------------------------------------

 Structure from the checkpoint file:  "G4.Frag_580.chk"
 --------
 Frag_580
 --------
 Charge =  0 Multiplicity = 1

 SCF Done:  E(RHF) =  -385.221785091     A.U. after   12 cycles
 E2 =    -0.1895237108D+01 EUMP2 =    -0.38711702219977D+03
 Normal termination of Gaussian 09 at Fri Aug 26 10:36:39 2022.
 SCF Done:  E(RHF) =  -385.252539494     A.U. after    8 cycles
 Normal termination of Gaussian 09 at Fri Aug 26 10:39:35 2022.

                         Standard orientation:
 ---------------------------------------------------------------------
 Center     Atomic      Atomic             Coordinates (Angstroms)
 Number     Number       Type             X           Y           Z
 ---------------------------------------------------------------------
      1          6           0        1.367668   -1.366505    0.103136
      2          6           0        0.774516    0.053959    0.006254
      3          6           0        1.249183    0.878146    1.217557
      4          6           0        1.284566    0.708836   -1.292685
      5          6           0       -0.795323   -0.052289    0.007425
      6          6           0       -1.529756    1.289323    0.047336
      7          8           0       -1.242905   -0.762376    1.135634
      8          8           0       -1.235146   -0.815289   -1.117745
      9          1           0        1.163196   -1.819567    1.078215
     10          1           0        0.961244   -2.016007   -0.676946
     11          1           0        2.455265   -1.331191   -0.014264
     12          1           0        2.337273    0.807189    1.320736
     13          1           0        1.000348    1.938899    1.116195
     14          1           0        0.793394    0.505152    2.138602
     15          1           0        2.375222    0.801107   -1.262193
     16          1           0        0.880756    1.715625   -1.438511
     17          1           0        1.042450    0.106668   -2.175396
     18          1           0       -2.601577    1.088070   -0.007374
     19          1           0       -1.249083    1.930510   -0.792541
     20          1           0       -1.324986    1.825664    0.975627
     21          1           0       -1.045433   -1.692278    0.978231
     22          1           0       -1.068776   -0.307340   -1.917635
 ---------------------------------------------------------------------

 SCF Done:  E(RHF) =  -385.259272892     A.U. after    7 cycles

 The electronic state is 1-A.
 Alpha  occ. eigenvalues --  -20.55799 -20.55313 -11.33772 -11.24032 -11.22143
 Alpha  occ. eigenvalues --  -11.21445 -11.21233 -11.21124  -1.40950  -1.32680
 Alpha  occ. eigenvalues --   -1.09822  -0.99656  -0.93717  -0.92970  -0.84968
 Alpha  occ. eigenvalues --   -0.75758  -0.71670  -0.67098  -0.64107  -0.60911
 Alpha  occ. eigenvalues --   -0.60281  -0.56307  -0.55696  -0.55185  -0.53932
 Alpha  occ. eigenvalues --   -0.53618  -0.52335  -0.51458  -0.50379  -0.48638
 Alpha  occ. eigenvalues --   -0.46694  -0.45978  -0.41452
 Alpha virt. eigenvalues --    0.02850   0.03887   0.04111   0.04359   0.05906
 Alpha virt. eigenvalues --    0.06400   0.06718   0.06836   0.07040   0.09054
 Alpha virt. eigenvalues --    0.09115   0.09286   0.09710   0.09978   0.10384

 Mulliken charges:
               1
     1  C   -0.673236
     2  C    0.447645
     3  C   -0.644729
     4  C   -0.651589
     5  C    0.498056
     6  C   -0.614110
     7  O   -0.629612
     8  O   -0.638160
     9  H    0.168644
    10  H    0.201418
    11  H    0.173201
    12  H    0.171451
    13  H    0.165147
    14  H    0.200022
    15  H    0.178159
    16  H    0.175036
    17  H    0.165862
    18  H    0.195716
    19  H    0.171177
    20  H    0.186404
    21  H    0.379741
    22  H    0.373756
 Sum of Mulliken charges =  -0.00000

 Dipole moment (field-independent basis, Debye):
    X=              1.5446    Y=              0.9152    Z=             -1.2473  Tot=              2.1861
 Quadrupole moment (field-independent basis, Debye-Ang):
   XX=            -55.2624   YY=            -50.5768   ZZ=            -51.7014
   XY=             -2.1416   XZ=              1.4098   YZ=             -2.0273

 Normal termination of Gaussian 09 at Fri Aug 26 10:59:55 2022.
